 Entering Gaussian System, Link 0=g16
 Initial command:
 /share/software/user/restricted/gaussian/g16.B01/l1.exe "/home/users/jlapier/Chloroaromatics/Gau-11511.inp" -scrdir="/home/users/jlapier/Chloroaromatics/"
 Entering Link 1 = /share/software/user/restricted/gaussian/g16.B01/l1.exe PID=     11512.
  
 Copyright (c) 1988-2017, Gaussian, Inc.  All Rights Reserved.
  
 This is part of the Gaussian(R) 16 program.  It is based on
 the Gaussian(R) 09 system (copyright 2009, Gaussian, Inc.),
 the Gaussian(R) 03 system (copyright 2003, Gaussian, Inc.),
 the Gaussian(R) 98 system (copyright 1998, Gaussian, Inc.),
 the Gaussian(R) 94 system (copyright 1995, Gaussian, Inc.),
 the Gaussian 92(TM) system (copyright 1992, Gaussian, Inc.),
 the Gaussian 90(TM) system (copyright 1990, Gaussian, Inc.),
 the Gaussian 88(TM) system (copyright 1988, Gaussian, Inc.),
 the Gaussian 86(TM) system (copyright 1986, Carnegie Mellon
 University), and the Gaussian 82(TM) system (copyright 1983,
 Carnegie Mellon University). Gaussian is a federally registered
 trademark of Gaussian, Inc.
  
 This software contains proprietary and confidential information,
 including trade secrets, belonging to Gaussian, Inc.
  
 This software is provided under written license and may be
 used, copied, transmitted, or stored only in accord with that
 written license.
  
 The following legend is applicable only to US Government
 contracts under FAR:
  
                    RESTRICTED RIGHTS LEGEND
  
 Use, reproduction and disclosure by the US Government is
 subject to restrictions as set forth in subparagraphs (a)
 and (c) of the Commercial Computer Software - Restricted
 Rights clause in FAR 52.227-19.
  
 Gaussian, Inc.
 340 Quinnipiac St., Bldg. 40, Wallingford CT 06492
  
  
 ---------------------------------------------------------------
 Warning -- This program may not be used in any manner that
 competes with the business of Gaussian, Inc. or will provide
 assistance to any competitor of Gaussian, Inc.  The licensee
 of this program is prohibited from giving any competitor of
 Gaussian, Inc. access to this program.  By using this program,
 the user acknowledges that Gaussian, Inc. is engaged in the
 business of creating and licensing software in the field of
 computational chemistry and represents and warrants to the
 licensee that it is not a competitor of Gaussian, Inc. and that
 it will not use this program in any manner prohibited above.
 ---------------------------------------------------------------
  

 Cite this work as:
 Gaussian 16, Revision B.01,
 M. J. Frisch, G. W. Trucks, H. B. Schlegel, G. E. Scuseria, 
 M. A. Robb, J. R. Cheeseman, G. Scalmani, V. Barone, 
 G. A. Petersson, H. Nakatsuji, X. Li, M. Caricato, A. V. Marenich, 
 J. Bloino, B. G. Janesko, R. Gomperts, B. Mennucci, H. P. Hratchian, 
 J. V. Ortiz, A. F. Izmaylov, J. L. Sonnenberg, D. Williams-Young, 
 F. Ding, F. Lipparini, F. Egidi, J. Goings, B. Peng, A. Petrone, 
 T. Henderson, D. Ranasinghe, V. G. Zakrzewski, J. Gao, N. Rega, 
 G. Zheng, W. Liang, M. Hada, M. Ehara, K. Toyota, R. Fukuda, 
 J. Hasegawa, M. Ishida, T. Nakajima, Y. Honda, O. Kitao, H. Nakai, 
 T. Vreven, K. Throssell, J. A. Montgomery, Jr., J. E. Peralta, 
 F. Ogliaro, M. J. Bearpark, J. J. Heyd, E. N. Brothers, K. N. Kudin, 
 V. N. Staroverov, T. A. Keith, R. Kobayashi, J. Normand, 
 K. Raghavachari, A. P. Rendell, J. C. Burant, S. S. Iyengar, 
 J. Tomasi, M. Cossi, J. M. Millam, M. Klene, C. Adamo, R. Cammi, 
 J. W. Ochterski, R. L. Martin, K. Morokuma, O. Farkas, 
 J. B. Foresman, and D. J. Fox, Gaussian, Inc., Wallingford CT, 2016.
 
 ******************************************
 Gaussian 16:  ES64L-G16RevB.01 20-Dec-2017
                10-Dec-2025 
 ******************************************
 %mem=2GB
 %nprocshare=1
 Will use up to    1 processors via shared memory.
 %chk=geometry_chks/1-_-ClBzNeutralRadical.chk
 -----------------
 # opt am1 SCF=XQC
 -----------------
 1/18=20,19=15,26=1,38=1/1,3;
 2/9=110,12=2,17=6,18=5,40=1/2;
 3/5=2,25=1,41=700000,71=1/1,2,3;
 4/35=1/1;
 5/5=2,8=3,13=1,35=1,38=5/2,8;
 6/7=2,8=2,9=2,10=2,28=1/1;
 7//1,2,3,16;
 1/18=20,19=15,26=1/3(2);
 2/9=110/2;
 99//99;
 2/9=110/2;
 3/5=2,25=1,41=700000,71=1,135=20/1,2,3;
 4/5=5,16=3,35=1/1;
 5/5=2,8=3,13=1,35=1,38=5/2,8;
 7//1,2,3,16;
 1/18=20,19=15,26=1/3(-5);
 2/9=110/2;
 6/7=2,8=2,9=2,10=2,19=2,28=1/1;
 99/9=1/99;
 -----------------------------
 Neutral Radical (removed 1) _
 -----------------------------
 Symbolic Z-matrix:
 Charge =  0 Multiplicity = 2
 C                    -3.20928   0.19943   0. 
 C                    -2.0115    0.93555   0. 
 C                    -0.77511   0.2663    0. 
 C                    -0.7365   -1.13907   0. 
 C                    -1.93429  -1.87519   0. 
 C                    -3.17067  -1.20594   0. 
 H                    -4.76193   1.03987   0. 
 H                    -2.05998   2.7004    0. 
 H                     0.72905   1.19071   0. 
 H                     0.81614  -1.97951   0. 
 H                    -1.8858   -3.64003   0. 
 
 Add virtual bond connecting atoms H11        and C5         Dist= 3.34D+00.
 Add virtual bond connecting atoms H10        and C4         Dist= 3.34D+00.
 Add virtual bond connecting atoms H9         and C3         Dist= 3.34D+00.
 Add virtual bond connecting atoms H8         and C2         Dist= 3.34D+00.
 Add virtual bond connecting atoms H7         and C1         Dist= 3.34D+00.

 GradGradGradGradGradGradGradGradGradGradGradGradGradGradGradGradGradGrad
 Berny optimization.
 Initialization pass.
                           ----------------------------
                           !    Initial Parameters    !
                           ! (Angstroms and Degrees)  !
 --------------------------                            --------------------------
 ! Name  Definition              Value          Derivative Info.                !
 --------------------------------------------------------------------------------
 ! R1    R(1,2)                  1.4059         estimate D2E/DX2                !
 ! R2    R(1,6)                  1.4059         estimate D2E/DX2                !
 ! R3    R(1,7)                  1.7655         estimate D2E/DX2                !
 ! R4    R(2,3)                  1.4059         estimate D2E/DX2                !
 ! R5    R(2,8)                  1.7655         estimate D2E/DX2                !
 ! R6    R(3,4)                  1.4059         estimate D2E/DX2                !
 ! R7    R(3,9)                  1.7655         estimate D2E/DX2                !
 ! R8    R(4,5)                  1.4059         estimate D2E/DX2                !
 ! R9    R(4,10)                 1.7655         estimate D2E/DX2                !
 ! R10   R(5,6)                  1.4059         estimate D2E/DX2                !
 ! R11   R(5,11)                 1.7655         estimate D2E/DX2                !
 ! A1    A(2,1,6)              119.9999         estimate D2E/DX2                !
 ! A2    A(2,1,7)              119.9999         estimate D2E/DX2                !
 ! A3    A(6,1,7)              120.0001         estimate D2E/DX2                !
 ! A4    A(1,2,3)              120.0            estimate D2E/DX2                !
 ! A5    A(1,2,8)              120.0001         estimate D2E/DX2                !
 ! A6    A(3,2,8)              119.9999         estimate D2E/DX2                !
 ! A7    A(2,3,4)              120.0001         estimate D2E/DX2                !
 ! A8    A(2,3,9)              120.0            estimate D2E/DX2                !
 ! A9    A(4,3,9)              119.9999         estimate D2E/DX2                !
 ! A10   A(3,4,5)              119.9997         estimate D2E/DX2                !
 ! A11   A(3,4,10)             120.0003         estimate D2E/DX2                !
 ! A12   A(5,4,10)             120.0            estimate D2E/DX2                !
 ! A13   A(4,5,6)              120.0            estimate D2E/DX2                !
 ! A14   A(4,5,11)             119.9996         estimate D2E/DX2                !
 ! A15   A(6,5,11)             120.0004         estimate D2E/DX2                !
 ! A16   A(1,6,5)              120.0003         estimate D2E/DX2                !
 ! D1    D(6,1,2,3)              0.0            estimate D2E/DX2                !
 ! D2    D(6,1,2,8)            180.0            estimate D2E/DX2                !
 ! D3    D(7,1,2,3)            180.0            estimate D2E/DX2                !
 ! D4    D(7,1,2,8)              0.0            estimate D2E/DX2                !
 ! D5    D(2,1,6,5)              0.0            estimate D2E/DX2                !
 ! D6    D(7,1,6,5)            180.0            estimate D2E/DX2                !
 ! D7    D(1,2,3,4)              0.0            estimate D2E/DX2                !
 ! D8    D(1,2,3,9)            180.0            estimate D2E/DX2                !
 ! D9    D(8,2,3,4)            180.0            estimate D2E/DX2                !
 ! D10   D(8,2,3,9)              0.0            estimate D2E/DX2                !
 ! D11   D(2,3,4,5)              0.0            estimate D2E/DX2                !
 ! D12   D(2,3,4,10)           180.0            estimate D2E/DX2                !
 ! D13   D(9,3,4,5)            180.0            estimate D2E/DX2                !
 ! D14   D(9,3,4,10)             0.0            estimate D2E/DX2                !
 ! D15   D(3,4,5,6)              0.0            estimate D2E/DX2                !
 ! D16   D(3,4,5,11)           180.0            estimate D2E/DX2                !
 ! D17   D(10,4,5,6)           180.0            estimate D2E/DX2                !
 ! D18   D(10,4,5,11)            0.0            estimate D2E/DX2                !
 ! D19   D(4,5,6,1)              0.0            estimate D2E/DX2                !
 ! D20   D(11,5,6,1)           180.0            estimate D2E/DX2                !
 --------------------------------------------------------------------------------
 Trust Radius=3.00D-01 FncErr=1.00D-07 GrdErr=1.00D-07 EigMax=2.50D+02 EigMin=1.00D-04
 Number of steps in this run=     57 maximum allowed number of steps=    100.
 GradGradGradGradGradGradGradGradGradGradGradGradGradGradGradGradGradGrad

                          Input orientation:                          
 ---------------------------------------------------------------------
 Center     Atomic      Atomic             Coordinates (Angstroms)
 Number     Number       Type             X           Y           Z
 ---------------------------------------------------------------------
      1          6           0       -3.209280    0.199430    0.000000
      2          6           0       -2.011500    0.935550    0.000000
      3          6           0       -0.775110    0.266300    0.000000
      4          6           0       -0.736500   -1.139070    0.000000
      5          6           0       -1.934290   -1.875190    0.000000
      6          6           0       -3.170670   -1.205940    0.000000
      7          1           0       -4.761930    1.039870    0.000000
      8          1           0       -2.059980    2.700400    0.000000
      9          1           0        0.729050    1.190710    0.000000
     10          1           0        0.816140   -1.979510    0.000000
     11          1           0       -1.885800   -3.640030    0.000000
 ---------------------------------------------------------------------
                    Distance matrix (angstroms):
                    1          2          3          4          5
     1  C    0.000000
     2  C    1.405898   0.000000
     3  C    2.435088   1.405900   0.000000
     4  C    2.811801   2.435092   1.405900   0.000000
     5  C    2.435087   2.811800   2.435093   1.405907   0.000000
     6  C    1.405900   2.435088   2.811796   2.435088   1.405892
     7  H    1.765520   2.752408   4.061175   4.577321   4.061173
     8  H    2.752406   1.765516   2.752405   4.061173   4.577316
     9  H    4.061167   2.752403   1.765512   2.752401   4.061173
    10  H    4.577312   4.061173   2.752406   1.765511   2.752408
    11  H    4.061164   4.577306   4.061163   2.752397   1.765506
                    6          7          8          9         10
     6  C    0.000000
     7  H    2.752412   0.000000
     8  H    4.061173   3.171418   0.000000
     9  H    4.577308   5.493051   3.171412   0.000000
    10  H    4.061165   6.342832   5.493052   3.171416   0.000000
    11  H    2.752396   5.493049   6.342822   5.493040   3.171404
                   11
    11  H    0.000000
 Stoichiometry    C6H5(2)
 Framework group  CS[SG(C6H5)]
 Deg. of freedom    19
 Full point group                 CS      NOp   2
 Largest Abelian subgroup         CS      NOp   2
 Largest concise Abelian subgroup C1      NOp   1
                         Standard orientation:                         
 ---------------------------------------------------------------------
 Center     Atomic      Atomic             Coordinates (Angstroms)
 Number     Number       Type             X           Y           Z
 ---------------------------------------------------------------------
      1          6           0        1.284531   -0.664276    0.000000
      2          6           0        0.066987   -1.367224    0.000000
      3          6           0       -1.150557   -0.664272    0.000000
      4          6           0       -1.150557    0.741628    0.000000
      5          6           0        0.066997    1.444576    0.000000
      6          6           0        1.284531    0.741624    0.000000
      7          1           0        2.813514   -1.547040    0.000000
      8          1           0        0.066981   -3.132740    0.000000
      9          1           0       -2.679537   -1.547025    0.000000
     10          1           0       -2.679531    1.624391    0.000000
     11          1           0        0.066992    3.210082    0.000000
 ---------------------------------------------------------------------
 Rotational constants (GHZ):           5.5355837           4.9758856           2.6204168
 Standard basis: VSTO-6G (5D, 7F)
 There are    23 symmetry adapted cartesian basis functions of A'  symmetry.
 There are     6 symmetry adapted cartesian basis functions of A"  symmetry.
 There are    23 symmetry adapted basis functions of A'  symmetry.
 There are     6 symmetry adapted basis functions of A"  symmetry.
    29 basis functions,   174 primitive gaussians,    29 cartesian basis functions
    15 alpha electrons       14 beta electrons
       nuclear repulsion energy       107.7740489911 Hartrees.
 Integral buffers will be    131072 words long.
 Regular integral format.
 Two-electron integral symmetry is turned off.
 Do NDO integrals.
 One-electron integrals computed using PRISM.
 NBasis=    29 RedAO= T EigKep=  1.00D+00  NBF=    23     6
 NBsUse=    29 1.00D-06 EigRej= -1.00D+00 NBFU=    23     6
 Simple Huckel Guess.
 Initial guess orbital symmetries:
 Alpha Orbitals:
       Occupied  (A') (A') (A') (A') (A') (A') (A') (A") (A') (A')
                 (A') (A') (A") (A") (A')
       Virtual   (A') (A') (A") (A") (A') (A') (A') (A") (A') (A')
                 (A') (A') (A') (A')
 Beta  Orbitals:
       Occupied  (A') (A') (A') (A') (A') (A') (A') (A") (A') (A')
                 (A') (A') (A") (A")
       Virtual   (A') (A') (A') (A") (A") (A') (A') (A') (A") (A')
                 (A') (A') (A') (A') (A')
 The electronic state of the initial guess is 2-A'.
 Initial guess <Sx>= 0.0000 <Sy>= 0.0000 <Sz>= 0.5000 <S**2>= 0.7500 S= 0.5000
 Keep J ints in memory in canonical form, NReq=861446.
 Overlap will be assumed to be unity.
 Requested convergence on RMS density matrix=1.00D-08 within  32 cycles.
 Requested convergence on MAX density matrix=1.00D-06.
 Requested convergence on             energy=1.00D-06.
 No special actions if energy rises.
 Fock symm off for IB=2 I1=    1 I=   24 J=    4 Cut=1.00D-07 Err=1.43D-02
 Fock matrix is not symmetric: symmetry in diagonalization turned off.
 Rare condition: small coef for last iteration:  0.000D+00
 Rare condition: small coef for last iteration:  0.000D+00
 Rare condition: small coef for last iteration:  0.000D+00
 Rare condition: small coef for last iteration:  0.000D+00
 Rare condition: small coef for last iteration:  0.000D+00
 Rare condition: small coef for last iteration:  0.000D+00
 Rare condition: small coef for last iteration:  0.000D+00
 Rare condition: small coef for last iteration:  0.000D+00
 >>>>>>>>>> Convergence criterion not met.
 SCF Done:  E(UAM1) =  0.737700348839     A.U. after   33 cycles
            NFock= 32  Conv=0.45D-05     -V/T= 1.0160
 <Sx>= 0.0000 <Sy>= 0.0000 <Sz>= 0.5000 <S**2>= 1.1024 S= 0.6629
 <L.S>=  0.00000000000    
 Annihilation of the first spin contaminant:
 S**2 before annihilation     1.1024,   after     0.8433
 Keep J ints in memory in canonical form, NReq=861846.
 LinEq1:  Iter=  0 NonCon=     1 RMS=4.07D-07 Max=2.40D-06 NDo=     1
 AX will form     1 AO Fock derivatives at one time.
 LinEq1:  Iter=  1 NonCon=     1 RMS=1.32D-07 Max=8.30D-07 NDo=     1
 LinEq1:  Iter=  2 NonCon=     1 RMS=4.84D-08 Max=3.05D-07 NDo=     1
 LinEq1:  Iter=  3 NonCon=     1 RMS=1.33D-08 Max=1.17D-07 NDo=     1
 LinEq1:  Iter=  4 NonCon=     1 RMS=4.04D-09 Max=3.88D-08 NDo=     1
 LinEq1:  Iter=  5 NonCon=     1 RMS=1.52D-09 Max=1.39D-08 NDo=     1
 LinEq1:  Iter=  6 NonCon=     1 RMS=3.49D-10 Max=1.72D-09 NDo=     1
 LinEq1:  Iter=  7 NonCon=     1 RMS=6.71D-11 Max=3.06D-10 NDo=     1
 LinEq1:  Iter=  8 NonCon=     0 RMS=2.04D-11 Max=1.14D-10 NDo=     1
 Linear equations converged to 4.103D-11 4.103D-10 after     8 iterations.
 LinEq1:  Iter=  0 NonCon=     1 RMS=1.34D-07 Max=7.50D-07 NDo=     1
 LinEq1:  Iter=  1 NonCon=     1 RMS=5.21D-08 Max=2.34D-07 NDo=     1
 LinEq1:  Iter=  2 NonCon=     1 RMS=1.30D-08 Max=1.05D-07 NDo=     1
 LinEq1:  Iter=  3 NonCon=     1 RMS=4.01D-09 Max=3.74D-08 NDo=     1
 LinEq1:  Iter=  4 NonCon=     1 RMS=1.26D-09 Max=6.61D-09 NDo=     1
 LinEq1:  Iter=  5 NonCon=     1 RMS=3.44D-10 Max=1.95D-09 NDo=     1
 LinEq1:  Iter=  6 NonCon=     1 RMS=8.74D-11 Max=6.18D-10 NDo=     1
 LinEq1:  Iter=  7 NonCon=     1 RMS=2.85D-11 Max=1.67D-10 NDo=     1
 LinEq1:  Iter=  8 NonCon=     0 RMS=9.30D-12 Max=5.16D-11 NDo=     1
 Linear equations converged to 1.730D-11 1.730D-10 after     8 iterations.
 Incorrect curvature in search direction -- initial direction reversed.
     Minimum is close to point 14 DX=  0.00D+00 DF=  0.00D+00 DXR=  0.00D+00 DFR=  0.00D+00 which will be used.
 Gradient too large for Newton-Raphson -- use scaled steepest descent instead.
     Accept linear search using points  4 and  5.
 Gradient too large for Newton-Raphson -- use scaled steepest descent instead.
 LinEq1:  Iter=  0 NonCon=     1 RMS=8.44D-04 Max=4.74D-03 NDo=     1
 LinEq1:  Iter=  1 NonCon=     1 RMS=4.20D-04 Max=2.10D-03 NDo=     1
 LinEq1:  Iter=  2 NonCon=     1 RMS=6.16D-05 Max=3.71D-04 NDo=     1
 LinEq1:  Iter=  3 NonCon=     1 RMS=2.73D-05 Max=1.61D-04 NDo=     1
 LinEq1:  Iter=  4 NonCon=     1 RMS=4.61D-06 Max=2.84D-05 NDo=     1
 LinEq1:  Iter=  5 NonCon=     1 RMS=9.24D-07 Max=1.16D-05 NDo=     1
 LinEq1:  Iter=  6 NonCon=     1 RMS=1.58D-07 Max=6.42D-07 NDo=     1
 LinEq1:  Iter=  7 NonCon=     1 RMS=5.05D-08 Max=2.77D-07 NDo=     1
 LinEq1:  Iter=  8 NonCon=     1 RMS=8.52D-09 Max=4.03D-08 NDo=     1
 LinEq1:  Iter=  9 NonCon=     1 RMS=2.11D-09 Max=1.52D-08 NDo=     1
 LinEq1:  Iter= 10 NonCon=     0 RMS=8.21D-10 Max=6.37D-09 NDo=     1
 Linear equations converged to 2.049D-09 2.049D-08 after    10 iterations.
 Incorrect curvature in search direction -- initial direction reversed.
     Accept linear search using points  1 and  2.
 Gradient too large for Newton-Raphson -- use scaled steepest descent instead.
 Gradient too large for Newton-Raphson -- use scaled steepest descent instead.
     Minimum is close to point  2 DX=  1.90D-01 DF= -5.31D-06 DXR=  9.10D-02 DFR=  8.36D-03 which will be used.
 Gradient too large for Newton-Raphson -- use scaled steepest descent instead.
     Minimum is close to point  2 DX=  1.63D-01 DF= -3.58D-06 DXR=  7.91D-02 DFR=  6.30D-03 which will be used.
 Gradient too large for Newton-Raphson -- use scaled steepest descent instead.
     Minimum is close to point  2 DX= -1.46D-01 DF= -2.99D-06 DXR=  7.49D-02 DFR=  5.64D-03 which will be used.
 Gradient too large for Newton-Raphson -- use scaled steepest descent instead.
     Accept linear search using points  1 and  2.
     Minimum is close to point  2 DX= -1.55D-01 DF= -7.74D-06 DXR=  8.41D-02 DFR=  1.62D-02 which will be used.
 Gradient too large for Newton-Raphson -- use scaled steepest descent instead.
     Accept linear search using points  1 and  2.
 Gradient too large for Newton-Raphson -- use scaled steepest descent instead.
     Minimum is close to point  2 DX= -1.12D-01 DF= -2.44D-06 DXR=  7.08D-02 DFR=  5.04D-03 which will be used.
 Gradient too large for Newton-Raphson -- use scaled steepest descent instead.
 Gradient too large for Newton-Raphson -- use scaled steepest descent instead.
     Minimum is close to point  2 DX=  1.38D-01 DF= -2.51D-06 DXR=  7.49D-02 DFR=  5.64D-03 which will be used.
 LinEq1:  Iter=  0 NonCon=     1 RMS=1.05D-03 Max=8.53D-03 NDo=     1
 LinEq1:  Iter=  1 NonCon=     1 RMS=5.53D-04 Max=4.36D-03 NDo=     1
 LinEq1:  Iter=  2 NonCon=     1 RMS=1.62D-05 Max=1.47D-04 NDo=     1
 LinEq1:  Iter=  3 NonCon=     1 RMS=6.31D-06 Max=5.27D-05 NDo=     1
 LinEq1:  Iter=  4 NonCon=     1 RMS=8.95D-07 Max=5.72D-06 NDo=     1
 LinEq1:  Iter=  5 NonCon=     1 RMS=2.60D-07 Max=1.53D-06 NDo=     1
 LinEq1:  Iter=  6 NonCon=     1 RMS=8.50D-08 Max=5.94D-07 NDo=     1
 LinEq1:  Iter=  7 NonCon=     1 RMS=1.47D-08 Max=7.94D-08 NDo=     1
 LinEq1:  Iter=  8 NonCon=     1 RMS=3.80D-09 Max=2.20D-08 NDo=     1
 LinEq1:  Iter=  9 NonCon=     0 RMS=9.27D-10 Max=4.73D-09 NDo=     1
 Linear equations converged to 2.049D-09 2.049D-08 after     9 iterations.
 LinEq1:  Iter=  0 NonCon=     1 RMS=9.51D-04 Max=5.97D-03 NDo=     1
 LinEq1:  Iter=  1 NonCon=     1 RMS=4.75D-04 Max=2.73D-03 NDo=     1
 LinEq1:  Iter=  2 NonCon=     1 RMS=5.51D-05 Max=5.50D-04 NDo=     1
 LinEq1:  Iter=  3 NonCon=     1 RMS=1.24D-05 Max=8.35D-05 NDo=     1
 LinEq1:  Iter=  4 NonCon=     1 RMS=2.43D-06 Max=1.29D-05 NDo=     1
 LinEq1:  Iter=  5 NonCon=     1 RMS=4.70D-07 Max=2.72D-06 NDo=     1
 LinEq1:  Iter=  6 NonCon=     1 RMS=1.32D-07 Max=8.96D-07 NDo=     1
 LinEq1:  Iter=  7 NonCon=     1 RMS=3.58D-08 Max=1.77D-07 NDo=     1
 LinEq1:  Iter=  8 NonCon=     1 RMS=7.57D-09 Max=4.06D-08 NDo=     1
 LinEq1:  Iter=  9 NonCon=     0 RMS=1.70D-09 Max=1.50D-08 NDo=     1
 Linear equations converged to 2.049D-09 2.049D-08 after     9 iterations.
 Incorrect curvature in search direction -- initial direction reversed.
 Gradient too large for Newton-Raphson -- use scaled steepest descent instead.
     Minimum is close to point  2 DX= -8.90D-03 DF= -1.32D-08 DXR=  4.97D-03 DFR=  2.47D-05 which will be used.
 LinEq1:  Iter=  0 NonCon=     1 RMS=9.52D-04 Max=5.94D-03 NDo=     1
 LinEq1:  Iter=  1 NonCon=     1 RMS=4.50D-04 Max=2.53D-03 NDo=     1
 LinEq1:  Iter=  2 NonCon=     1 RMS=3.01D-05 Max=2.10D-04 NDo=     1
 LinEq1:  Iter=  3 NonCon=     1 RMS=8.90D-06 Max=6.05D-05 NDo=     1
 LinEq1:  Iter=  4 NonCon=     1 RMS=9.67D-07 Max=6.49D-06 NDo=     1
 LinEq1:  Iter=  5 NonCon=     1 RMS=2.25D-07 Max=1.53D-06 NDo=     1
 LinEq1:  Iter=  6 NonCon=     1 RMS=4.93D-08 Max=3.08D-07 NDo=     1
 LinEq1:  Iter=  7 NonCon=     1 RMS=1.29D-08 Max=8.43D-08 NDo=     1
 LinEq1:  Iter=  8 NonCon=     1 RMS=2.67D-09 Max=2.05D-08 NDo=     1
 LinEq1:  Iter=  9 NonCon=     0 RMS=7.25D-10 Max=5.55D-09 NDo=     1
 Linear equations converged to 2.049D-09 2.049D-08 after     9 iterations.
     Accept linear search using points  1 and  2.
 LinEq1:  Iter=  0 NonCon=     1 RMS=2.92D-04 Max=1.78D-03 NDo=     1
 LinEq1:  Iter=  1 NonCon=     1 RMS=9.39D-05 Max=6.53D-04 NDo=     1
 LinEq1:  Iter=  2 NonCon=     1 RMS=1.27D-05 Max=9.45D-05 NDo=     1
 LinEq1:  Iter=  3 NonCon=     1 RMS=1.78D-06 Max=1.21D-05 NDo=     1
 LinEq1:  Iter=  4 NonCon=     1 RMS=3.96D-07 Max=2.28D-06 NDo=     1
 LinEq1:  Iter=  5 NonCon=     1 RMS=7.73D-08 Max=4.46D-07 NDo=     1
 LinEq1:  Iter=  6 NonCon=     1 RMS=1.50D-08 Max=9.41D-08 NDo=     1
 LinEq1:  Iter=  7 NonCon=     1 RMS=4.22D-09 Max=2.49D-08 NDo=     1
 LinEq1:  Iter=  8 NonCon=     0 RMS=9.75D-10 Max=6.34D-09 NDo=     1
 Linear equations converged to 2.049D-09 2.049D-08 after     8 iterations.
     Minimum is close to point  2 DX=  1.64D-02 DF= -9.52D-09 DXR=  1.62D-02 DFR=  2.62D-04 which will be used.
 LinEq1:  Iter=  0 NonCon=     1 RMS=3.69D-06 Max=3.72D-05 NDo=     1
 LinEq1:  Iter=  1 NonCon=     1 RMS=7.28D-07 Max=5.90D-06 NDo=     1
 LinEq1:  Iter=  2 NonCon=     1 RMS=1.55D-07 Max=1.28D-06 NDo=     1
 LinEq1:  Iter=  3 NonCon=     1 RMS=3.17D-08 Max=2.78D-07 NDo=     1
 LinEq1:  Iter=  4 NonCon=     1 RMS=7.16D-09 Max=5.19D-08 NDo=     1
 LinEq1:  Iter=  5 NonCon=     1 RMS=1.17D-09 Max=5.61D-09 NDo=     1
 LinEq1:  Iter=  6 NonCon=     0 RMS=2.71D-10 Max=1.46D-09 NDo=     1
 Linear equations converged to 3.586D-10 3.586D-09 after     6 iterations.
 LinEq1:  Iter=  0 NonCon=     1 RMS=5.05D-08 Max=2.73D-07 NDo=     1
 LinEq1:  Iter=  1 NonCon=     1 RMS=1.74D-08 Max=9.50D-08 NDo=     1
 LinEq1:  Iter=  2 NonCon=     1 RMS=3.14D-09 Max=2.17D-08 NDo=     1
 LinEq1:  Iter=  3 NonCon=     1 RMS=6.19D-10 Max=4.32D-09 NDo=     1
 LinEq1:  Iter=  4 NonCon=     1 RMS=1.35D-10 Max=9.56D-10 NDo=     1
 LinEq1:  Iter=  5 NonCon=     1 RMS=3.18D-11 Max=2.09D-10 NDo=     1
 LinEq1:  Iter=  6 NonCon=     0 RMS=6.64D-12 Max=4.38D-11 NDo=     1
 Linear equations converged to 7.397D-12 7.397D-11 after     6 iterations.
 SCF Done:  E(UAM1) =  0.719164698180     a.u. after   22 cycles
            Convg  =    0.1080D-07                   134 Fock formations.
              S**2 =  2.8280                  -V/T =  1.0157
 <Sx>= 0.0000 <Sy>= 0.0000 <Sz>= 0.5000 <S**2>= 2.8280 S= 1.2544
 <L.S>=  0.00000000000    
 Annihilation of the first spin contaminant:
 S**2 before annihilation     2.8280,   after     7.7132

 **********************************************************************

            Population analysis using the SCF Density.

 **********************************************************************

 Orbital symmetries:
 Alpha Orbitals:
       Occupied  (A') (A') (A') (A') (A') (A') (A') (A") (A') (A')
                 (A') (A") (A') (A") (A')
       Virtual   (A') (A') (A') (A") (A") (A') (A') (A") (A') (A')
                 (A') (A') (A') (A')
 Beta  Orbitals:
       Occupied  (A') (A') (A') (A') (A') (A') (A') (A") (A') (A')
                 (A') (A') (A") (A")
       Virtual   (A') (A') (A') (A') (A") (A") (A') (A') (A") (A')
                 (A') (A') (A') (A') (A')
 The electronic state is 2-A'.
 Alpha  occ. eigenvalues --   -1.37265  -1.07588  -1.07407  -0.76596  -0.76582
 Alpha  occ. eigenvalues --   -0.55372  -0.52311  -0.48374  -0.44418  -0.42658
 Alpha  occ. eigenvalues --   -0.42364  -0.36860  -0.36849  -0.36433  -0.36428
 Alpha virt. eigenvalues --   -0.00355   0.03293   0.03301   0.04611   0.04752
 Alpha virt. eigenvalues --    0.04885   0.05508   0.11821   0.17307   0.17317
 Alpha virt. eigenvalues --    0.20032   0.20144   0.20379   0.22179
  Beta  occ. eigenvalues --   -1.36861  -1.07312  -1.06616  -0.76340  -0.75236
  Beta  occ. eigenvalues --   -0.55023  -0.51905  -0.48120  -0.43641  -0.42597
  Beta  occ. eigenvalues --   -0.39059  -0.36696  -0.36560  -0.36275
  Beta virt. eigenvalues --   -0.01534   0.03239   0.03530   0.03720   0.04670
  Beta virt. eigenvalues --    0.05346   0.05718   0.05783   0.12177   0.17533
  Beta virt. eigenvalues --    0.17556   0.20418   0.20584   0.20695   0.22675
          Condensed to atoms (all electrons):
               1          2          3          4          5          6
     1  C    4.128364   0.000000   0.000000   0.000000   0.000000   0.000000
     2  C    0.000000   4.119962   0.000000   0.000000   0.000000   0.000000
     3  C    0.000000   0.000000   4.120407   0.000000   0.000000   0.000000
     4  C    0.000000   0.000000   0.000000   4.119963   0.000000   0.000000
     5  C    0.000000   0.000000   0.000000   0.000000   4.128367   0.000000
     6  C    0.000000   0.000000   0.000000   0.000000   0.000000   4.050159
     7  H    0.000000   0.000000   0.000000   0.000000   0.000000   0.000000
     8  H    0.000000   0.000000   0.000000   0.000000   0.000000   0.000000
     9  H    0.000000   0.000000   0.000000   0.000000   0.000000   0.000000
    10  H    0.000000   0.000000   0.000000   0.000000   0.000000   0.000000
    11  H    0.000000   0.000000   0.000000   0.000000   0.000000   0.000000
               7          8          9         10         11
     1  C    0.000000   0.000000   0.000000   0.000000   0.000000
     2  C    0.000000   0.000000   0.000000   0.000000   0.000000
     3  C    0.000000   0.000000   0.000000   0.000000   0.000000
     4  C    0.000000   0.000000   0.000000   0.000000   0.000000
     5  C    0.000000   0.000000   0.000000   0.000000   0.000000
     6  C    0.000000   0.000000   0.000000   0.000000   0.000000
     7  H    0.863193   0.000000   0.000000   0.000000   0.000000
     8  H    0.000000   0.865125   0.000000   0.000000   0.000000
     9  H    0.000000   0.000000   0.876149   0.000000   0.000000
    10  H    0.000000   0.000000   0.000000   0.865122   0.000000
    11  H    0.000000   0.000000   0.000000   0.000000   0.863187
          Atomic-Atomic Spin Densities.
               1          2          3          4          5          6
     1  C   -1.083332   0.000000   0.000000   0.000000   0.000000   0.000000
     2  C    0.000000   1.082706   0.000000   0.000000   0.000000   0.000000
     3  C    0.000000   0.000000  -1.089908   0.000000   0.000000   0.000000
     4  C    0.000000   0.000000   0.000000   1.082701   0.000000   0.000000
     5  C    0.000000   0.000000   0.000000   0.000000  -1.083299   0.000000
     6  C    0.000000   0.000000   0.000000   0.000000   0.000000   1.544287
     7  H    0.000000   0.000000   0.000000   0.000000   0.000000   0.000000
     8  H    0.000000   0.000000   0.000000   0.000000   0.000000   0.000000
     9  H    0.000000   0.000000   0.000000   0.000000   0.000000   0.000000
    10  H    0.000000   0.000000   0.000000   0.000000   0.000000   0.000000
    11  H    0.000000   0.000000   0.000000   0.000000   0.000000   0.000000
               7          8          9         10         11
     1  C    0.000000   0.000000   0.000000   0.000000   0.000000
     2  C    0.000000   0.000000   0.000000   0.000000   0.000000
     3  C    0.000000   0.000000   0.000000   0.000000   0.000000
     4  C    0.000000   0.000000   0.000000   0.000000   0.000000
     5  C    0.000000   0.000000   0.000000   0.000000   0.000000
     6  C    0.000000   0.000000   0.000000   0.000000   0.000000
     7  H    0.492144   0.000000   0.000000   0.000000   0.000000
     8  H    0.000000  -0.470862   0.000000   0.000000   0.000000
     9  H    0.000000   0.000000   0.504301   0.000000   0.000000
    10  H    0.000000   0.000000   0.000000  -0.470848   0.000000
    11  H    0.000000   0.000000   0.000000   0.000000   0.492110
 Mulliken charges and spin densities:
               1          2
     1  C   -0.128364  -1.083332
     2  C   -0.119962   1.082706
     3  C   -0.120407  -1.089908
     4  C   -0.119963   1.082701
     5  C   -0.128367  -1.083299
     6  C   -0.050159   1.544287
     7  H    0.136807   0.492144
     8  H    0.134875  -0.470862
     9  H    0.123851   0.504301
    10  H    0.134878  -0.470848
    11  H    0.136813   0.492110
 Sum of Mulliken charges =  -0.00000   1.00000
 Mulliken charges and spin densities with hydrogens summed into heavy atoms:
               1          2
     1  C    0.008444  -0.591188
     2  C    0.014913   0.611843
     3  C    0.003443  -0.585606
     4  C    0.014914   0.611853
     5  C    0.008446  -0.591189
     6  C   -0.050159   1.544287
 Charge=             -0.0000 electrons
 Dipole moment (field-independent basis, Debye):
    X=             -1.0829    Y=             -0.6251    Z=              0.0000  Tot=              1.2503
 N-N= 1.077740489911D+02 E-N=-1.499992664660D+02  KE=-4.581302122861D+01
 Symmetry A'   KE=-3.664590927174D+01
 Symmetry A"   KE=-9.167111956872D+00
 Symmetry A'   SP= 1.000000000000D+00
 Symmetry A"   SP=-2.220446049250D-16
 Calling FoFJK, ICntrl=      2127 FMM=F ISym2X=1 I1Cent= 0 IOpClX= 1 NMat=1 NMatS=1 NMatT=0.
 ***** Axes restored to original set *****
 -------------------------------------------------------------------
 Center     Atomic                   Forces (Hartrees/Bohr)
 Number     Number              X              Y              Z
 -------------------------------------------------------------------
      1        6          -0.056141335    0.018645614    0.000000000
      2        6          -0.001441120    0.055734425    0.000000000
      3        6           0.045609523    0.028028728    0.000000000
      4        6           0.049070351   -0.026463364    0.000000000
      5        6          -0.008714114   -0.058514157    0.000000000
      6        6           0.054356021    0.033411398    0.000000000
      7        1           0.083088376   -0.045426258   -0.000000000
      8        1           0.002414647   -0.096973794   -0.000000000
      9        1          -0.079817207   -0.049053123   -0.000000000
     10        1          -0.085427672    0.045958600   -0.000000000
     11        1          -0.002997470    0.094651931   -0.000000000
 -------------------------------------------------------------------
 Cartesian Forces:  Max     0.096973794 RMS     0.044614415

 GradGradGradGradGradGradGradGradGradGradGradGradGradGradGradGradGradGrad
 Berny optimization.
 FormGI is forming the generalized inverse of G from B-inverse, IUseBI=4.
 Internal  Forces:  Max     0.097005248 RMS     0.034876059
 Search for a local minimum.
 Step number   1 out of a maximum of   57
 All quantities printed in internal units (Hartrees-Bohrs-Radians)
 Mixed Optimization -- RFO/linear search
 Second derivative matrix not updated -- first step.
 ITU=  0
     Eigenvalues ---    0.02011   0.02011   0.02011   0.02011   0.02011
     Eigenvalues ---    0.02011   0.02011   0.02011   0.06524   0.06524
     Eigenvalues ---    0.06524   0.06524   0.06524   0.16000   0.16000
     Eigenvalues ---    0.16000   0.16000   0.16000   0.22000   0.22000
     Eigenvalues ---    0.23189   0.40686   0.41317   0.44656   0.44657
     Eigenvalues ---    0.44657   0.44657
 RFO step:  Lambda=-1.93997548D-01 EMin= 2.01065650D-02
 Linear search not attempted -- first point.
 Maximum step size (   0.300) exceeded in Quadratic search.
    -- Step size scaled by   0.357
 Iteration  1 RMS(Cart)=  0.05019078 RMS(Int)=  0.00003702
 Iteration  2 RMS(Cart)=  0.00006775 RMS(Int)=  0.00000626
 Iteration  3 RMS(Cart)=  0.00000000 RMS(Int)=  0.00000626
 ClnCor:  largest displacement from symmetrization is 1.20D-08 for atom     6.
 Variable       Old X    -DE/DX   Delta X   Delta X   Delta X     New X
                                 (Linear)    (Quad)   (Total)
    R1        2.65676  -0.04084   0.00000  -0.02275  -0.02275   2.63401
    R2        2.65677  -0.05046   0.00000  -0.02826  -0.02825   2.62852
    R3        3.33635  -0.09469   0.00000  -0.13036  -0.13036   3.20599
    R4        2.65677  -0.03837   0.00000  -0.02124  -0.02125   2.63552
    R5        3.33634  -0.09700   0.00000  -0.13354  -0.13354   3.20280
    R6        2.65677  -0.03837   0.00000  -0.02124  -0.02125   2.63552
    R7        3.33633  -0.09369   0.00000  -0.12897  -0.12897   3.20736
    R8        2.65678  -0.04084   0.00000  -0.02276  -0.02276   2.63402
    R9        3.33633  -0.09701   0.00000  -0.13354  -0.13354   3.20279
   R10        2.65675  -0.05046   0.00000  -0.02825  -0.02825   2.62850
   R11        3.33632  -0.09470   0.00000  -0.13037  -0.13037   3.20595
    A1        2.09439  -0.00555   0.00000  -0.00486  -0.00486   2.08954
    A2        2.09439   0.00344   0.00000   0.00310   0.00310   2.09749
    A3        2.09440   0.00211   0.00000   0.00176   0.00176   2.09616
    A4        2.09439  -0.00108   0.00000  -0.00056  -0.00057   2.09382
    A5        2.09440   0.00013   0.00000  -0.00014  -0.00013   2.09427
    A6        2.09439   0.00096   0.00000   0.00070   0.00071   2.09510
    A7        2.09440   0.00046   0.00000   0.00099   0.00097   2.09537
    A8        2.09440  -0.00023   0.00000  -0.00050  -0.00049   2.09391
    A9        2.09439  -0.00023   0.00000  -0.00049  -0.00049   2.09391
   A10        2.09439  -0.00108   0.00000  -0.00056  -0.00057   2.09382
   A11        2.09440   0.00096   0.00000   0.00070   0.00071   2.09511
   A12        2.09440   0.00013   0.00000  -0.00014  -0.00013   2.09426
   A13        2.09439  -0.00555   0.00000  -0.00486  -0.00486   2.08954
   A14        2.09439   0.00344   0.00000   0.00310   0.00310   2.09748
   A15        2.09440   0.00211   0.00000   0.00176   0.00176   2.09616
   A16        2.09440   0.01280   0.00000   0.00987   0.00989   2.10429
    D1        0.00000   0.00000   0.00000   0.00000   0.00000   0.00000
    D2        3.14159  -0.00000   0.00000  -0.00000   0.00000   3.14159
    D3        3.14159   0.00000   0.00000   0.00000   0.00000   3.14159
    D4        0.00000   0.00000   0.00000   0.00000   0.00000   0.00000
    D5        0.00000  -0.00000   0.00000  -0.00000   0.00000   0.00000
    D6        3.14159  -0.00000   0.00000  -0.00000   0.00000   3.14159
    D7        0.00000  -0.00000   0.00000  -0.00000   0.00000   0.00000
    D8        3.14159  -0.00000   0.00000  -0.00000   0.00000   3.14159
    D9        3.14159   0.00000   0.00000   0.00000   0.00000   3.14159
   D10        0.00000  -0.00000   0.00000  -0.00000   0.00000   0.00000
   D11        0.00000  -0.00000   0.00000  -0.00000   0.00000   0.00000
   D12        3.14159  -0.00000   0.00000  -0.00000   0.00000   3.14159
   D13        3.14159   0.00000   0.00000   0.00000   0.00000   3.14159
   D14        0.00000   0.00000   0.00000   0.00000   0.00000   0.00000
   D15        0.00000   0.00000   0.00000   0.00000   0.00000   0.00000
   D16        3.14159  -0.00000   0.00000  -0.00000   0.00000   3.14159
   D17        3.14159   0.00000   0.00000   0.00000   0.00000   3.14159
   D18        0.00000  -0.00000   0.00000  -0.00000   0.00000   0.00000
   D19        0.00000  -0.00000   0.00000  -0.00000   0.00000   0.00000
   D20        3.14159   0.00000   0.00000   0.00000   0.00000   3.14159
         Item               Value     Threshold  Converged?
 Maximum Force            0.097005     0.000450     NO 
 RMS     Force            0.034876     0.000300     NO 
 Maximum Displacement     0.158980     0.001800     NO 
 RMS     Displacement     0.050203     0.001200     NO 
 Predicted change in Energy=-6.561005D-02
 GradGradGradGradGradGradGradGradGradGradGradGradGradGradGradGradGradGrad

                          Input orientation:                          
 ---------------------------------------------------------------------
 Center     Atomic      Atomic             Coordinates (Angstroms)
 Number     Number       Type             X           Y           Z
 ---------------------------------------------------------------------
      1          6           0       -3.192588    0.198512    0.000000
      2          6           0       -2.005131    0.928433    0.000000
      3          6           0       -0.778951    0.263939    0.000000
      4          6           0       -0.739973   -1.130174    0.000000
      5          6           0       -1.927568   -1.859884    0.000000
      6          6           0       -3.147514   -1.191709    0.000000
      7          1           0       -4.687134    1.001359    0.000000
      8          1           0       -2.052044    2.622632    0.000000
      9          1           0        0.667062    1.152613    0.000000
     10          1           0        0.750342   -1.937302    0.000000
     11          1           0       -1.886372   -3.555901    0.000000
 ---------------------------------------------------------------------
                    Distance matrix (angstroms):
                    1          2          3          4          5
     1  C    0.000000
     2  C    1.393858   0.000000
     3  C    2.414524   1.394658   0.000000
     4  C    2.789396   2.416296   1.394657   0.000000
     5  C    2.416044   2.789395   2.414527   1.393865   0.000000
     6  C    1.390951   2.408327   2.780108   2.408328   1.390945
     7  H    1.696535   2.682994   3.977145   4.485924   3.975162
     8  H    2.679029   1.694848   2.680336   3.975561   4.484243
     9  H    3.975829   2.681581   1.697261   2.681579   3.975832
    10  H    4.484239   3.975558   2.680335   1.694843   2.679028
    11  H    3.975151   4.485907   3.977130   2.682981   1.696518
                    6          7          8          9         10
     6  C    0.000000
     7  H    2.679548   0.000000
     8  H    3.968533   3.093902   0.000000
     9  H    4.477370   5.356332   3.091034   0.000000
    10  H    3.968525   6.180766   5.352229   3.091037   0.000000
    11  H    2.679531   5.349102   6.180754   5.356318   3.093885
                   11
    11  H    0.000000
 Stoichiometry    C6H5(2)
 Framework group  CS[SG(C6H5)]
 Deg. of freedom    19
 Full point group                 CS      NOp   2
 Largest Abelian subgroup         CS      NOp   2
 Largest concise Abelian subgroup C1      NOp   1
                         Standard orientation:                         
 ---------------------------------------------------------------------
 Center     Atomic      Atomic             Coordinates (Angstroms)
 Number     Number       Type             X           Y           Z
 ---------------------------------------------------------------------
      1          6           0        1.208023    0.773091    0.000000
      2          6           0        1.208148   -0.620767    0.000000
      3          6           0        0.000000   -1.317509    0.000000
      4          6           0       -1.208149   -0.620769    0.000000
      5          6           0       -1.208022    0.773096    0.000000
      6          6           0       -0.000002    1.462600    0.000000
      7          1           0        2.674557    1.626032    0.000000
      8          1           0        2.676115   -1.467869    0.000000
      9          1           0        0.000000   -3.014770    0.000000
     10          1           0       -2.676115   -1.467863    0.000000
     11          1           0       -2.674545    1.626021    0.000000
 ---------------------------------------------------------------------
 Rotational constants (GHZ):           5.6891452           5.1095764           2.6919040
 Standard basis: VSTO-6G (5D, 7F)
 There are    23 symmetry adapted cartesian basis functions of A'  symmetry.
 There are     6 symmetry adapted cartesian basis functions of A"  symmetry.
 There are    23 symmetry adapted basis functions of A'  symmetry.
 There are     6 symmetry adapted basis functions of A"  symmetry.
    29 basis functions,   174 primitive gaussians,    29 cartesian basis functions
    15 alpha electrons       14 beta electrons
       nuclear repulsion energy       108.6827495531 Hartrees.
 Integral buffers will be    131072 words long.
 Regular integral format.
 Two-electron integral symmetry is turned off.
 Do NDO integrals.
 One-electron integrals computed using PRISM.
 NBasis=    29 RedAO= T EigKep=  1.00D+00  NBF=    23     6
 NBsUse=    29 1.00D-06 EigRej= -1.00D+00 NBFU=    23     6
 Initial guess from the checkpoint file:  "geometry_chks/1-_-ClBzNeutralRadical.chk"
 B after Tr=    -0.000000    0.000000   -0.000000
         Rot=    0.866025   -0.000000   -0.000000   -0.500001 Ang= -60.00 deg.
 Initial guess orbital symmetries:
 Alpha Orbitals:
       Occupied  (A') (A') (A') (A') (A') (A') (A') (A") (A') (A')
                 (A') (A") (A') (A") (A')
       Virtual   (A') (A') (A') (A") (A") (A') (A') (A") (A') (A')
                 (A') (A') (A') (A')
 Beta  Orbitals:
       Occupied  (A') (A') (A') (A') (A') (A') (A') (A") (A') (A')
                 (A') (A') (A") (A")
       Virtual   (A') (A') (A') (A') (A") (A") (A') (A') (A") (A')
                 (A') (A') (A') (A') (A')
 Initial guess <Sx>= 0.0000 <Sy>= 0.0000 <Sz>= 0.5000 <S**2>= 2.8280 S= 1.2544
 Keep J ints in memory in canonical form, NReq=861446.
 Overlap will be assumed to be unity.
 Requested convergence on RMS density matrix=1.00D-08 within  32 cycles.
 Requested convergence on MAX density matrix=1.00D-06.
 Requested convergence on             energy=1.00D-06.
 No special actions if energy rises.
 Fock symm off for IB=2 I1=    1 I=   24 J=    5 Cut=1.00D-07 Err=2.17D-03
 Fock matrix is not symmetric: symmetry in diagonalization turned off.
 SCF Done:  E(UAM1) =  0.645385727963     A.U. after   22 cycles
            NFock= 21  Conv=0.78D-08     -V/T= 1.0140
 <Sx>= 0.0000 <Sy>= 0.0000 <Sz>= 0.5000 <S**2>= 1.8773 S= 0.9585
 <L.S>=  0.00000000000    
 Annihilation of the first spin contaminant:
 S**2 before annihilation     1.8773,   after     2.7410
 QCSCF skips out because SCF is already converged.
 Calling FoFJK, ICntrl=      2127 FMM=F ISym2X=1 I1Cent= 0 IOpClX= 1 NMat=1 NMatS=1 NMatT=0.
 ***** Axes restored to original set *****
 -------------------------------------------------------------------
 Center     Atomic                   Forces (Hartrees/Bohr)
 Number     Number              X              Y              Z
 -------------------------------------------------------------------
      1        6          -0.087094342    0.036030851    0.000000000
      2        6          -0.001531828    0.090949006    0.000000000
      3        6           0.074368735    0.045703529    0.000000000
      4        6           0.080446789   -0.042450441    0.000000000
      5        6          -0.007186208   -0.093982012    0.000000000
      6        6           0.038933184    0.023932287   -0.000000000
      7        1           0.097505778   -0.052921031   -0.000000000
      8        1           0.002900642   -0.114604645   -0.000000000
      9        1          -0.094233456   -0.057912874   -0.000000000
     10        1          -0.100937488    0.054355963   -0.000000000
     11        1          -0.003171807    0.110899368   -0.000000000
 -------------------------------------------------------------------
 Cartesian Forces:  Max     0.114604645 RMS     0.056984831

 GradGradGradGradGradGradGradGradGradGradGradGradGradGradGradGradGradGrad
 Berny optimization.
 Using GEDIIS/GDIIS optimizer.
 FormGI is forming the generalized inverse of G from B-inverse, IUseBI=4.
 Internal  Forces:  Max     0.114642370 RMS     0.037854289
 Search for a local minimum.
 Step number   2 out of a maximum of   57
 All quantities printed in internal units (Hartrees-Bohrs-Radians)
 Mixed Optimization -- RFO/linear search
 Update second derivatives using D2CorX and points    1    2
 DE= -7.38D-02 DEPred=-6.56D-02 R= 1.12D+00
 TightC=F SS=  1.41D+00  RLast= 3.00D-01 DXNew= 5.0454D-01 9.0000D-01
 Trust test= 1.12D+00 RLast= 3.00D-01 DXMaxT set to 5.05D-01
 ITU=  1  0
 Use linear search instead of GDIIS.
     Eigenvalues ---   -0.20477   0.02011   0.02011   0.02011   0.02011
     Eigenvalues ---    0.02011   0.02011   0.02011   0.02011   0.06515
     Eigenvalues ---    0.06524   0.06524   0.06524   0.15996   0.16000
     Eigenvalues ---    0.16000   0.16000   0.16000   0.16752   0.22000
     Eigenvalues ---    0.22002   0.23191   0.40645   0.41229   0.44651
     Eigenvalues ---    0.44656   0.44657
 RFO step:  Lambda=-3.50488446D-01 EMin=-2.04771230D-01
 Skip linear search -- no minimum in search direction.
 Maximum step size (   0.505) exceeded in Quadratic search.
    -- Step size scaled by   0.484
 Iteration  1 RMS(Cart)=  0.05758574 RMS(Int)=  0.00809100
 Iteration  2 RMS(Cart)=  0.00798054 RMS(Int)=  0.00000398
 Iteration  3 RMS(Cart)=  0.00000134 RMS(Int)=  0.00000393
 Iteration  4 RMS(Cart)=  0.00000000 RMS(Int)=  0.00000393
 ClnCor:  largest displacement from symmetrization is 5.59D-09 for atom     7.
 Variable       Old X    -DE/DX   Delta X   Delta X   Delta X     New X
                                 (Linear)    (Quad)   (Total)
    R1        2.63401  -0.02288   0.00000   0.02118   0.02118   2.65519
    R2        2.62852  -0.03152   0.00000   0.01518   0.01519   2.64370
    R3        3.20599  -0.11094   0.00000  -0.21954  -0.21954   2.98645
    R4        2.63552  -0.02095   0.00000   0.02184   0.02183   2.65735
    R5        3.20280  -0.11464   0.00000  -0.23028  -0.23028   2.97251
    R6        2.63552  -0.02095   0.00000   0.02184   0.02183   2.65735
    R7        3.20736  -0.11061   0.00000  -0.22179  -0.22179   2.98556
    R8        2.63402  -0.02288   0.00000   0.02118   0.02118   2.65520
    R9        3.20279  -0.11464   0.00000  -0.23028  -0.23028   2.97250
   R10        2.62850  -0.03151   0.00000   0.01518   0.01519   2.64369
   R11        3.20595  -0.11094   0.00000  -0.21954  -0.21954   2.98642
    A1        2.08954  -0.00620   0.00000  -0.00960  -0.00960   2.07994
    A2        2.09749   0.00387   0.00000   0.00615   0.00615   2.10364
    A3        2.09616   0.00233   0.00000   0.00345   0.00345   2.09961
    A4        2.09382  -0.00102   0.00000  -0.00079  -0.00080   2.09302
    A5        2.09427   0.00008   0.00000  -0.00024  -0.00024   2.09403
    A6        2.09510   0.00095   0.00000   0.00103   0.00104   2.09614
    A7        2.09537   0.00110   0.00000   0.00377   0.00376   2.09913
    A8        2.09391  -0.00055   0.00000  -0.00189  -0.00188   2.09203
    A9        2.09391  -0.00055   0.00000  -0.00189  -0.00188   2.09203
   A10        2.09382  -0.00102   0.00000  -0.00079  -0.00080   2.09302
   A11        2.09511   0.00095   0.00000   0.00103   0.00103   2.09614
   A12        2.09426   0.00008   0.00000  -0.00024  -0.00024   2.09403
   A13        2.08954  -0.00620   0.00000  -0.00960  -0.00960   2.07994
   A14        2.09748   0.00387   0.00000   0.00615   0.00615   2.10363
   A15        2.09616   0.00233   0.00000   0.00345   0.00345   2.09961
   A16        2.10429   0.01335   0.00000   0.01702   0.01704   2.12133
    D1       -0.00000  -0.00000   0.00000  -0.00000   0.00000   0.00000
    D2        3.14159  -0.00000   0.00000  -0.00000   0.00000   3.14159
    D3        3.14159   0.00000   0.00000   0.00000   0.00000   3.14159
    D4        0.00000   0.00000   0.00000  -0.00000  -0.00000   0.00000
    D5        0.00000   0.00000   0.00000   0.00000  -0.00000   0.00000
    D6        3.14159  -0.00000   0.00000  -0.00000   0.00000   3.14159
    D7        0.00000  -0.00000   0.00000   0.00000  -0.00000   0.00000
    D8        3.14159  -0.00000   0.00000   0.00000   0.00000   3.14159
    D9        3.14159   0.00000   0.00000   0.00000   0.00000   3.14159
   D10       -0.00000   0.00000   0.00000   0.00000   0.00000   0.00000
   D11       -0.00000   0.00000   0.00000   0.00000   0.00000   0.00000
   D12        3.14159  -0.00000   0.00000   0.00000   0.00000   3.14159
   D13        3.14159   0.00000   0.00000   0.00000   0.00000   3.14159
   D14       -0.00000   0.00000   0.00000   0.00000   0.00000   0.00000
   D15        0.00000  -0.00000   0.00000  -0.00000   0.00000   0.00000
   D16        3.14159  -0.00000   0.00000   0.00000   0.00000   3.14159
   D17        3.14159   0.00000   0.00000  -0.00000   0.00000   3.14159
   D18       -0.00000  -0.00000   0.00000  -0.00000   0.00000   0.00000
   D19       -0.00000  -0.00000   0.00000  -0.00000   0.00000   0.00000
   D20        3.14159   0.00000   0.00000  -0.00000   0.00000   3.14159
         Item               Value     Threshold  Converged?
 Maximum Force            0.114642     0.000450     NO 
 RMS     Force            0.037854     0.000300     NO 
 Maximum Displacement     0.203258     0.001800     NO 
 RMS     Displacement     0.065342     0.001200     NO 
 Predicted change in Energy=-1.459966D-01
 GradGradGradGradGradGradGradGradGradGradGradGradGradGradGradGradGradGrad

                          Input orientation:                          
 ---------------------------------------------------------------------
 Center     Atomic      Atomic             Coordinates (Angstroms)
 Number     Number       Type             X           Y           Z
 ---------------------------------------------------------------------
      1          6           0       -3.195186    0.211991   -0.000000
      2          6           0       -1.997384    0.946489   -0.000000
      3          6           0       -0.762309    0.274166    0.000000
      4          6           0       -0.720365   -1.131418    0.000000
      5          6           0       -1.916714   -1.868290    0.000000
      6          6           0       -3.137941   -1.185825    0.000000
      7          1           0       -4.591162    0.952795   -0.000000
      8          1           0       -2.039595    2.518909   -0.000000
      9          1           0        0.583710    1.101387    0.000000
     10          1           0        0.663426   -1.879343    0.000000
     11          1           0       -1.886348   -3.448342    0.000000
 ---------------------------------------------------------------------
                    Distance matrix (angstroms):
                    1          2          3          4          5
     1  C    0.000000
     2  C    1.405067   0.000000
     3  C    2.433671   1.406211   0.000000
     4  C    2.815934   2.438950   1.406210   0.000000
     5  C    2.441733   2.815934   2.433674   1.405073   0.000000
     6  C    1.398988   2.418188   2.788405   2.418188   1.398983
     7  H    1.580361   2.593785   3.888528   4.396250   3.887312
     8  H    2.580166   1.572987   2.582699   3.881399   4.388920
     9  H    3.882148   2.585738   1.579893   2.585737   3.882152
    10  H    4.388914   3.881397   2.582697   1.572982   2.580164
    11  H    3.887299   4.396233   3.888513   2.593771   1.580344
                    6          7          8          9         10
     6  C    0.000000
     7  H    2.585643   0.000000
     8  H    3.864120   2.993861   0.000000
     9  H    4.368298   5.177005   2.981795   0.000000
    10  H    3.864112   5.969230   5.162456   2.981796   0.000000
    11  H    2.585627   5.165852   5.969219   5.176990   2.993845
                   11
    11  H    0.000000
 Stoichiometry    C6H5(2)
 Framework group  CS[SG(C6H5)]
 Deg. of freedom    19
 Full point group                 CS      NOp   2
 Largest Abelian subgroup         CS      NOp   2
 Largest concise Abelian subgroup C1      NOp   1
                         Standard orientation:                         
 ---------------------------------------------------------------------
 Center     Atomic      Atomic             Coordinates (Angstroms)
 Number     Number       Type             X           Y           Z
 ---------------------------------------------------------------------
      1          6           0        1.220867    0.777096   -0.000000
      2          6           0        1.219475   -0.627971   -0.000000
      3          6           0       -0.000000   -1.328193   -0.000000
      4          6           0       -1.219475   -0.627973    0.000000
      5          6           0       -1.220866    0.777100    0.000000
      6          6           0       -0.000002    1.460213    0.000000
      7          1           0        2.582932    1.578544   -0.000000
      8          1           0        2.581229   -1.415317   -0.000000
      9          1           0       -0.000000   -2.908085   -0.000000
     10          1           0       -2.581227   -1.415311    0.000000
     11          1           0       -2.582920    1.578533    0.000000
 ---------------------------------------------------------------------
 Rotational constants (GHZ):           5.7291787           5.1390794           2.7090546
 Standard basis: VSTO-6G (5D, 7F)
 There are    23 symmetry adapted cartesian basis functions of A'  symmetry.
 There are     6 symmetry adapted cartesian basis functions of A"  symmetry.
 There are    23 symmetry adapted basis functions of A'  symmetry.
 There are     6 symmetry adapted basis functions of A"  symmetry.
    29 basis functions,   174 primitive gaussians,    29 cartesian basis functions
    15 alpha electrons       14 beta electrons
       nuclear repulsion energy       109.0930421040 Hartrees.
 Integral buffers will be    131072 words long.
 Regular integral format.
 Two-electron integral symmetry is turned off.
 Do NDO integrals.
 One-electron integrals computed using PRISM.
 NBasis=    29 RedAO= T EigKep=  1.00D+00  NBF=    23     6
 NBsUse=    29 1.00D-06 EigRej= -1.00D+00 NBFU=    23     6
 Initial guess from the checkpoint file:  "geometry_chks/1-_-ClBzNeutralRadical.chk"
 B after Tr=     0.000000   -0.000000    0.000000
         Rot=    1.000000    0.000000    0.000000   -0.000000 Ang=  -0.00 deg.
 Initial guess orbital symmetries:
 Alpha Orbitals:
       Occupied  (A') (A') (A') (A') (A') (A') (A') (A") (A') (A')
                 (A') (A') (A") (A') (A")
       Virtual   (A') (A') (A') (A") (A") (A') (A') (A") (A') (A')
                 (A') (A') (A') (A')
 Beta  Orbitals:
       Occupied  (A') (A') (A') (A') (A') (A') (A') (A") (A') (A')
                 (A') (A') (A") (A")
       Virtual   (A') (A') (A') (A') (A") (A") (A') (A') (A") (A')
                 (A') (A') (A') (A') (A')
 Initial guess <Sx>= 0.0000 <Sy>= 0.0000 <Sz>= 0.5000 <S**2>= 1.8773 S= 0.9585
 Keep J ints in memory in canonical form, NReq=861446.
 Overlap will be assumed to be unity.
 Requested convergence on RMS density matrix=1.00D-08 within  32 cycles.
 Requested convergence on MAX density matrix=1.00D-06.
 Requested convergence on             energy=1.00D-06.
 No special actions if energy rises.
 Fock symm off for IB=2 I1=    1 I=   24 J=    7 Cut=1.00D-07 Err=9.66D-04
 Fock matrix is not symmetric: symmetry in diagonalization turned off.
 SCF Done:  E(UAM1) =  0.514832636331     A.U. after   21 cycles
            NFock= 20  Conv=0.29D-08     -V/T= 1.0111
 <Sx>= 0.0000 <Sy>= 0.0000 <Sz>= 0.5000 <S**2>= 1.3663 S= 0.7713
 <L.S>=  0.00000000000    
 Annihilation of the first spin contaminant:
 S**2 before annihilation     1.3663,   after     1.1443
 QCSCF skips out because SCF is already converged.
 Calling FoFJK, ICntrl=      2127 FMM=F ISym2X=1 I1Cent= 0 IOpClX= 1 NMat=1 NMatS=1 NMatT=0.
 ***** Axes restored to original set *****
 -------------------------------------------------------------------
 Center     Atomic                   Forces (Hartrees/Bohr)
 Number     Number              X              Y              Z
 -------------------------------------------------------------------
      1        6          -0.086710148    0.037585034    0.000000000
      2        6          -0.000755351    0.086794964    0.000000000
      3        6           0.074130505    0.045557048    0.000000000
      4        6           0.077091147   -0.039880415    0.000000000
      5        6          -0.005628004   -0.094337559    0.000000000
      6        6           0.045937306    0.028235308   -0.000000000
      7        1           0.107293980   -0.057342300   -0.000000000
      8        1           0.003047594   -0.122627251   -0.000000000
      9        1          -0.103684542   -0.063721211   -0.000000000
     10        1          -0.108027536    0.058110285   -0.000000000
     11        1          -0.002694951    0.121626095   -0.000000000
 -------------------------------------------------------------------
 Cartesian Forces:  Max     0.122627251 RMS     0.059775559

 GradGradGradGradGradGradGradGradGradGradGradGradGradGradGradGradGradGrad
 Berny optimization.
 Using GEDIIS/GDIIS optimizer.
 FormGI is forming the generalized inverse of G from B-inverse, IUseBI=4.
 Internal  Forces:  Max     0.122664967 RMS     0.041915585
 Search for a local minimum.
 Step number   3 out of a maximum of   57
 All quantities printed in internal units (Hartrees-Bohrs-Radians)
 Mixed Optimization -- RFO/linear search
 Update second derivatives using D2CorX and points    2    3
 DE= -1.31D-01 DEPred=-1.46D-01 R= 8.94D-01
 TightC=F SS=  1.41D+00  RLast= 5.05D-01 DXNew= 8.4853D-01 1.5136D+00
 Trust test= 8.94D-01 RLast= 5.05D-01 DXMaxT set to 8.49D-01
 ITU=  1  1  0
 Use linear search instead of GDIIS.
     Eigenvalues ---   -0.05707   0.02011   0.02011   0.02011   0.02011
     Eigenvalues ---    0.02011   0.02011   0.02011   0.02011   0.06355
     Eigenvalues ---    0.06522   0.06524   0.06524   0.13313   0.15999
     Eigenvalues ---    0.16000   0.16000   0.16000   0.16001   0.22000
     Eigenvalues ---    0.22003   0.23123   0.40729   0.41008   0.44637
     Eigenvalues ---    0.44656   0.44657
 RFO step:  Lambda=-3.16560909D-01 EMin=-5.70700389D-02
 Skip linear search -- no minimum in search direction.
 Maximum step size (   0.849) exceeded in Quadratic search.
    -- Step size scaled by   0.846
 Iteration  1 RMS(Cart)=  0.09965482 RMS(Int)=  0.05357265
 Iteration  2 RMS(Cart)=  0.05324800 RMS(Int)=  0.00004710
 Iteration  3 RMS(Cart)=  0.00001472 RMS(Int)=  0.00004642
 Iteration  4 RMS(Cart)=  0.00000000 RMS(Int)=  0.00004642
 ClnCor:  largest displacement from symmetrization is 5.56D-11 for atom     8.
 Variable       Old X    -DE/DX   Delta X   Delta X   Delta X     New X
                                 (Linear)    (Quad)   (Total)
    R1        2.65519  -0.03415   0.00000  -0.09286  -0.09286   2.56233
    R2        2.64370  -0.04051   0.00000  -0.10244  -0.10237   2.54133
    R3        2.98645  -0.12166   0.00000  -0.36832  -0.36832   2.61813
    R4        2.65735  -0.03293   0.00000  -0.09160  -0.09167   2.56568
    R5        2.97251  -0.12266   0.00000  -0.35722  -0.35722   2.61529
    R6        2.65735  -0.03293   0.00000  -0.09161  -0.09167   2.56568
    R7        2.98556  -0.12170   0.00000  -0.36954  -0.36954   2.61603
    R8        2.65520  -0.03415   0.00000  -0.09287  -0.09287   2.56233
    R9        2.97250  -0.12266   0.00000  -0.35722  -0.35722   2.61529
   R10        2.64369  -0.04050   0.00000  -0.10243  -0.10237   2.54133
   R11        2.98642  -0.12166   0.00000  -0.36830  -0.36830   2.61811
    A1        2.07994  -0.00648   0.00000  -0.01788  -0.01782   2.06212
    A2        2.10364   0.00377   0.00000   0.00950   0.00947   2.11311
    A3        2.09961   0.00271   0.00000   0.00838   0.00835   2.10796
    A4        2.09302  -0.00044   0.00000   0.00078   0.00070   2.09372
    A5        2.09403  -0.00015   0.00000  -0.00110  -0.00106   2.09297
    A6        2.09614   0.00058   0.00000   0.00032   0.00036   2.09649
    A7        2.09913   0.00126   0.00000   0.00385   0.00371   2.10284
    A8        2.09203  -0.00063   0.00000  -0.00193  -0.00186   2.09017
    A9        2.09203  -0.00063   0.00000  -0.00193  -0.00186   2.09017
   A10        2.09302  -0.00043   0.00000   0.00078   0.00070   2.09372
   A11        2.09614   0.00058   0.00000   0.00032   0.00036   2.09650
   A12        2.09403  -0.00015   0.00000  -0.00110  -0.00106   2.09297
   A13        2.07994  -0.00648   0.00000  -0.01788  -0.01782   2.06212
   A14        2.10363   0.00377   0.00000   0.00949   0.00947   2.11310
   A15        2.09961   0.00271   0.00000   0.00838   0.00835   2.10797
   A16        2.12133   0.01257   0.00000   0.03035   0.03052   2.15185
    D1       -0.00000  -0.00000   0.00000  -0.00000   0.00000   0.00000
    D2        3.14159  -0.00000   0.00000  -0.00000   0.00000   3.14159
    D3        3.14159   0.00000   0.00000   0.00000   0.00000   3.14159
    D4        0.00000   0.00000   0.00000   0.00000  -0.00000   0.00000
    D5        0.00000   0.00000   0.00000   0.00000  -0.00000   0.00000
    D6        3.14159  -0.00000   0.00000  -0.00000   0.00000   3.14159
    D7        0.00000   0.00000   0.00000   0.00000   0.00000   0.00000
    D8        3.14159  -0.00000   0.00000  -0.00000   0.00000   3.14159
    D9        3.14159   0.00000   0.00000   0.00000   0.00000   3.14159
   D10       -0.00000  -0.00000   0.00000  -0.00000   0.00000   0.00000
   D11       -0.00000  -0.00000   0.00000  -0.00000   0.00000   0.00000
   D12        3.14159  -0.00000   0.00000  -0.00000   0.00000   3.14159
   D13        3.14159   0.00000   0.00000   0.00000   0.00000   3.14159
   D14       -0.00000  -0.00000   0.00000  -0.00000   0.00000   0.00000
   D15        0.00000   0.00000   0.00000   0.00000   0.00000   0.00000
   D16        3.14159  -0.00000   0.00000  -0.00000   0.00000   3.14159
   D17        3.14159   0.00000   0.00000   0.00000   0.00000   3.14159
   D18        0.00000  -0.00000   0.00000   0.00000   0.00000   0.00000
   D19       -0.00000   0.00000   0.00000  -0.00000   0.00000   0.00000
   D20        3.14159   0.00000   0.00000   0.00000   0.00000   3.14159
         Item               Value     Threshold  Converged?
 Maximum Force            0.122665     0.000450     NO 
 RMS     Force            0.041916     0.000300     NO 
 Maximum Displacement     0.473411     0.001800     NO 
 RMS     Displacement     0.150648     0.001200     NO 
 Predicted change in Energy=-2.638349D-01
 GradGradGradGradGradGradGradGradGradGradGradGradGradGradGradGradGradGrad

                          Input orientation:                          
 ---------------------------------------------------------------------
 Center     Atomic      Atomic             Coordinates (Angstroms)
 Number     Number       Type             X           Y           Z
 ---------------------------------------------------------------------
      1          6           0       -3.136641    0.204084   -0.000000
      2          6           0       -1.978921    0.909930   -0.000000
      3          6           0       -0.787659    0.258587    0.000000
      4          6           0       -0.744644   -1.098431    0.000000
      5          6           0       -1.897323   -1.812483    0.000000
      6          6           0       -3.061116   -1.138608   -0.000000
      7          1           0       -4.364908    0.845057   -0.000000
      8          1           0       -2.013984    2.293439   -0.000000
      9          1           0        0.391757    0.983418    0.000000
     10          1           0        0.473838   -1.754648    0.000000
     11          1           0       -1.880269   -3.197824    0.000000
 ---------------------------------------------------------------------
                    Distance matrix (angstroms):
                    1          2          3          4          5
     1  C    0.000000
     2  C    1.355925   0.000000
     3  C    2.349614   1.357701   0.000000
     4  C    2.723637   2.357319   1.357700   0.000000
     5  C    2.366950   2.723635   2.349613   1.355927   0.000000
     6  C    1.344814   2.316819   2.668475   2.316820   1.344813
     7  H    1.385456   2.386869   3.625005   4.108949   3.626499
     8  H    2.371869   1.383953   2.375815   3.621603   4.107579
     9  H    3.613441   2.371817   1.384342   2.371815   3.613440
    10  H    4.107577   3.621603   2.375814   1.383951   2.371866
    11  H    3.626492   4.108938   3.624992   2.386858   1.385446
                    6          7          8          9         10
     6  C    0.000000
     7  H    2.373774   0.000000
     8  H    3.588235   2.761278   0.000000
     9  H    4.052817   4.758677   2.739296   0.000000
    10  H    3.588232   5.492899   4.751449   2.739297   0.000000
    11  H    2.373767   4.745347   5.492890   4.758664   2.761263
                   11
    11  H    0.000000
 Stoichiometry    C6H5(2)
 Framework group  CS[SG(C6H5)]
 Deg. of freedom    19
 Full point group                 CS      NOp   2
 Largest Abelian subgroup         CS      NOp   2
 Largest concise Abelian subgroup C1      NOp   1
                         Standard orientation:                         
 ---------------------------------------------------------------------
 Center     Atomic      Atomic             Coordinates (Angstroms)
 Number     Number       Type             X           Y           Z
 ---------------------------------------------------------------------
      1          6           0        1.183475    0.749051   -0.000000
      2          6           0        1.178660   -0.606866   -0.000000
      3          6           0       -0.000000   -1.280745    0.000000
      4          6           0       -1.178660   -0.606869    0.000000
      5          6           0       -1.183475    0.749050    0.000000
      6          6           0       -0.000001    1.387729   -0.000000
      7          1           0        2.372676    1.459887   -0.000000
      8          1           0        2.375725   -1.301389   -0.000000
      9          1           0        0.000000   -2.665088    0.000000
     10          1           0       -2.375724   -1.301387    0.000000
     11          1           0       -2.372671    1.459875    0.000000
 ---------------------------------------------------------------------
 Rotational constants (GHZ):           6.3255111           5.6353488           2.9802591
 Standard basis: VSTO-6G (5D, 7F)
 There are    23 symmetry adapted cartesian basis functions of A'  symmetry.
 There are     6 symmetry adapted cartesian basis functions of A"  symmetry.
 There are    23 symmetry adapted basis functions of A'  symmetry.
 There are     6 symmetry adapted basis functions of A"  symmetry.
    29 basis functions,   174 primitive gaussians,    29 cartesian basis functions
    15 alpha electrons       14 beta electrons
       nuclear repulsion energy       112.5067718165 Hartrees.
 Integral buffers will be    131072 words long.
 Regular integral format.
 Two-electron integral symmetry is turned off.
 Do NDO integrals.
 One-electron integrals computed using PRISM.
 NBasis=    29 RedAO= T EigKep=  1.00D+00  NBF=    23     6
 NBsUse=    29 1.00D-06 EigRej= -1.00D+00 NBFU=    23     6
 Initial guess from the checkpoint file:  "geometry_chks/1-_-ClBzNeutralRadical.chk"
 B after Tr=     0.000000    0.000000   -0.000000
         Rot=    1.000000    0.000000    0.000000   -0.000000 Ang=  -0.00 deg.
 Initial guess orbital symmetries:
 Alpha Orbitals:
       Occupied  (A') (A') (A') (A') (A') (A') (A') (A") (A') (A')
                 (A') (A') (A') (A") (A")
       Virtual   (A") (A') (A") (A') (A') (A') (A') (A") (A') (A')
                 (A') (A') (A') (A')
 Beta  Orbitals:
       Occupied  (A') (A') (A') (A') (A') (A') (A') (A") (A') (A')
                 (A') (A') (A") (A")
       Virtual   (A') (A") (A') (A") (A') (A') (A') (A') (A") (A')
                 (A') (A') (A') (A') (A')
 Initial guess <Sx>= 0.0000 <Sy>= 0.0000 <Sz>= 0.5000 <S**2>= 1.3663 S= 0.7713
 Keep J ints in memory in canonical form, NReq=861446.
 Overlap will be assumed to be unity.
 Requested convergence on RMS density matrix=1.00D-08 within  32 cycles.
 Requested convergence on MAX density matrix=1.00D-06.
 Requested convergence on             energy=1.00D-06.
 No special actions if energy rises.
 Fock symm off for IB=2 I1=    1 I=   24 J=    5 Cut=1.00D-07 Err=6.99D-03
 Fock matrix is not symmetric: symmetry in diagonalization turned off.
 SCF Done:  E(UAM1) =  0.303326367971     A.U. after   18 cycles
            NFock= 17  Conv=0.41D-08     -V/T= 1.0065
 <Sx>= 0.0000 <Sy>= 0.0000 <Sz>= 0.5000 <S**2>= 0.9677 S= 0.6035
 <L.S>=  0.00000000000    
 Annihilation of the first spin contaminant:
 S**2 before annihilation     0.9677,   after     0.7864
 QCSCF skips out because SCF is already converged.
 Calling FoFJK, ICntrl=      2127 FMM=F ISym2X=1 I1Cent= 0 IOpClX= 1 NMat=1 NMatS=1 NMatT=0.
 ***** Axes restored to original set *****
 -------------------------------------------------------------------
 Center     Atomic                   Forces (Hartrees/Bohr)
 Number     Number              X              Y              Z
 -------------------------------------------------------------------
      1        6          -0.146937388    0.065775698    0.000000000
      2        6           0.000118506    0.151205994   -0.000000000
      3        6           0.128270997    0.078832152    0.000000000
      4        6           0.134952825   -0.068195735    0.000000000
      5        6          -0.007685781   -0.160802963    0.000000000
      6        6          -0.021006867   -0.012908779   -0.000000000
      7        1           0.093437205   -0.048968733   -0.000000000
      8        1           0.002525871   -0.105150191   -0.000000000
      9        1          -0.089521640   -0.055017016   -0.000000000
     10        1          -0.092670227    0.049750220   -0.000000000
     11        1          -0.001483502    0.105479354   -0.000000000
 -------------------------------------------------------------------
 Cartesian Forces:  Max     0.160802963 RMS     0.073083413

 GradGradGradGradGradGradGradGradGradGradGradGradGradGradGradGradGradGrad
 Berny optimization.
 Using GEDIIS/GDIIS optimizer.
 FormGI is forming the generalized inverse of G from B-inverse, IUseBI=4.
 Internal  Forces:  Max     0.105491298 RMS     0.038072369
 Search for a local minimum.
 Step number   4 out of a maximum of   57
 All quantities printed in internal units (Hartrees-Bohrs-Radians)
 Mixed Optimization -- RFO/linear search
 Update second derivatives using D2CorX and points    3    4
 DE= -2.12D-01 DEPred=-2.64D-01 R= 8.02D-01
 TightC=F SS=  1.41D+00  RLast= 8.49D-01 DXNew= 1.4270D+00 2.5456D+00
 Trust test= 8.02D-01 RLast= 8.49D-01 DXMaxT set to 1.43D+00
 ITU=  1  1  1  0
 Use linear search instead of GDIIS.
     Eigenvalues ---    0.02011   0.02011   0.02011   0.02011   0.02011
     Eigenvalues ---    0.02011   0.02011   0.02011   0.02207   0.06509
     Eigenvalues ---    0.06523   0.06524   0.06524   0.15997   0.16000
     Eigenvalues ---    0.16000   0.16000   0.16000   0.21994   0.22000
     Eigenvalues ---    0.23130   0.40546   0.40721   0.44599   0.44656
     Eigenvalues ---    0.44657   0.64412
 RFO step:  Lambda=-1.97801292D-01 EMin= 2.01065653D-02
 Quartic linear search produced a step of  0.96076.
 Iteration  1 RMS(Cart)=  0.04658950 RMS(Int)=  0.12783363
 Iteration  2 RMS(Cart)=  0.06469413 RMS(Int)=  0.06261442
 Iteration  3 RMS(Cart)=  0.06203609 RMS(Int)=  0.00007038
 Iteration  4 RMS(Cart)=  0.00000345 RMS(Int)=  0.00007034
 Iteration  5 RMS(Cart)=  0.00000000 RMS(Int)=  0.00007034
 ClnCor:  largest displacement from symmetrization is 6.89D-09 for atom     8.
 Variable       Old X    -DE/DX   Delta X   Delta X   Delta X     New X
                                 (Linear)    (Quad)   (Total)
    R1        2.56233   0.04912  -0.08922   0.18499   0.09577   2.65810
    R2        2.54133   0.04006  -0.09836   0.17226   0.07400   2.61533
    R3        2.61813  -0.10549  -0.35386  -0.23272  -0.58659   2.03154
    R4        2.56568   0.04716  -0.08807   0.18013   0.09196   2.65765
    R5        2.61529  -0.10518  -0.34320  -0.25573  -0.59894   2.01636
    R6        2.56568   0.04716  -0.08807   0.18014   0.09197   2.65765
    R7        2.61603  -0.10508  -0.35504  -0.23288  -0.58791   2.02811
    R8        2.56233   0.04912  -0.08923   0.18500   0.09577   2.65810
    R9        2.61529  -0.10518  -0.34320  -0.25574  -0.59893   2.01635
   R10        2.54133   0.04006  -0.09835   0.17225   0.07400   2.61533
   R11        2.61811  -0.10549  -0.35385  -0.23273  -0.58658   2.03153
    A1        2.06212  -0.00566  -0.01712  -0.01147  -0.02851   2.03361
    A2        2.11311   0.00307   0.00910   0.00721   0.01626   2.12937
    A3        2.10796   0.00259   0.00803   0.00427   0.01225   2.12021
    A4        2.09372  -0.00032   0.00068  -0.00114  -0.00057   2.09315
    A5        2.09297  -0.00002  -0.00102   0.00011  -0.00085   2.09212
    A6        2.09649   0.00034   0.00034   0.00103   0.00142   2.09792
    A7        2.10284   0.00087   0.00357   0.00503   0.00839   2.11123
    A8        2.09017  -0.00043  -0.00178  -0.00252  -0.00420   2.08598
    A9        2.09017  -0.00043  -0.00178  -0.00252  -0.00420   2.08598
   A10        2.09372  -0.00032   0.00068  -0.00114  -0.00057   2.09315
   A11        2.09650   0.00034   0.00034   0.00102   0.00142   2.09792
   A12        2.09297  -0.00002  -0.00102   0.00011  -0.00085   2.09212
   A13        2.06212  -0.00566  -0.01712  -0.01148  -0.02851   2.03361
   A14        2.11310   0.00307   0.00910   0.00721   0.01626   2.12936
   A15        2.10797   0.00259   0.00802   0.00427   0.01225   2.12022
   A16        2.15185   0.01109   0.02932   0.02019   0.04978   2.20162
    D1       -0.00000  -0.00000   0.00000  -0.00000   0.00000   0.00000
    D2        3.14159  -0.00000   0.00000  -0.00000   0.00000   3.14159
    D3        3.14159   0.00000   0.00000   0.00000   0.00000   3.14159
    D4        0.00000   0.00000   0.00000  -0.00000   0.00000   0.00000
    D5        0.00000   0.00000   0.00000   0.00000  -0.00000   0.00000
    D6        3.14159  -0.00000   0.00000  -0.00000   0.00000   3.14159
    D7        0.00000   0.00000   0.00000   0.00000   0.00000   0.00000
    D8        3.14159  -0.00000   0.00000  -0.00000   0.00000   3.14159
    D9        3.14159   0.00000   0.00000   0.00000   0.00000   3.14159
   D10       -0.00000   0.00000   0.00000   0.00000   0.00000   0.00000
   D11       -0.00000   0.00000   0.00000   0.00000   0.00000   0.00000
   D12        3.14159  -0.00000   0.00000   0.00000   0.00000   3.14159
   D13        3.14159   0.00000   0.00000   0.00000   0.00000   3.14159
   D14        0.00000  -0.00000   0.00000   0.00000  -0.00000   0.00000
   D15       -0.00000  -0.00000   0.00000  -0.00000   0.00000   0.00000
   D16        3.14159  -0.00000   0.00000  -0.00000   0.00000   3.14159
   D17        3.14159   0.00000   0.00000  -0.00000   0.00000   3.14159
   D18        0.00000  -0.00000   0.00000  -0.00000  -0.00000   0.00000
   D19        0.00000   0.00000   0.00000   0.00000   0.00000   0.00000
   D20        3.14159   0.00000   0.00000   0.00000   0.00000   3.14159
         Item               Value     Threshold  Converged?
 Maximum Force            0.105491     0.000450     NO 
 RMS     Force            0.038072     0.000300     NO 
 Maximum Displacement     0.502918     0.001800     NO 
 RMS     Displacement     0.162900     0.001200     NO 
 Predicted change in Energy=-3.145608D-01
 GradGradGradGradGradGradGradGradGradGradGradGradGradGradGradGradGradGrad

                          Input orientation:                          
 ---------------------------------------------------------------------
 Center     Atomic      Atomic             Coordinates (Angstroms)
 Number     Number       Type             X           Y           Z
 ---------------------------------------------------------------------
      1          6           0       -3.164992    0.245866   -0.000000
      2          6           0       -1.961357    0.973739   -0.000000
      3          6           0       -0.730237    0.293877    0.000000
      4          6           0       -0.679783   -1.111584    0.000000
      5          6           0       -1.872853   -1.856651    0.000000
      6          6           0       -3.052906   -1.133562   -0.000000
      7          1           0       -4.124278    0.731146   -0.000000
      8          1           0       -1.985433    2.040478   -0.000000
      9          1           0        0.184123    0.855814    0.000000
     10          1           0        0.261051   -1.614912    0.000000
     11          1           0       -1.873207   -2.931691    0.000000
 ---------------------------------------------------------------------
                    Distance matrix (angstroms):
                    1          2          3          4          5
     1  C    0.000000
     2  C    1.406605   0.000000
     3  C    2.435228   1.406367   0.000000
     4  C    2.831772   2.447653   1.406366   0.000000
     5  C    2.467833   2.831774   2.435230   1.406606   0.000000
     6  C    1.383974   2.373225   2.726237   2.373225   1.383973
     7  H    1.075047   2.176483   3.422092   3.906430   3.430103
[...]
     Eigenvalues ---    0.37305   0.40920   0.42614   0.44656   0.44657
     Eigenvalues ---    0.51468   0.59835
 RFO step:  Lambda=-6.86433199D-07 EMin= 2.01065663D-02
 Quartic linear search produced a step of -0.05409.
 Iteration  1 RMS(Cart)=  0.00029913 RMS(Int)=  0.00000007
 Iteration  2 RMS(Cart)=  0.00000008 RMS(Int)=  0.00000001
 ClnCor:  largest displacement from symmetrization is 1.89D-13 for atom    11.
 Variable       Old X    -DE/DX   Delta X   Delta X   Delta X     New X
                                 (Linear)    (Quad)   (Total)
    R1        2.66076   0.00011  -0.00005   0.00033   0.00027   2.66103
    R2        2.59068   0.00007   0.00005   0.00014   0.00019   2.59087
    R3        2.07135  -0.00008   0.00007  -0.00035  -0.00028   2.07108
    R4        2.65055  -0.00032  -0.00011  -0.00055  -0.00067   2.64989
    R5        2.07551   0.00005   0.00015  -0.00003   0.00013   2.07563
    R6        2.65055  -0.00032  -0.00011  -0.00055  -0.00067   2.64989
    R7        2.07851   0.00005  -0.00023   0.00064   0.00042   2.07893
    R8        2.66076   0.00011  -0.00005   0.00033   0.00027   2.66103
    R9        2.07551   0.00005   0.00015  -0.00003   0.00012   2.07563
   R10        2.59068   0.00007   0.00005   0.00014   0.00019   2.59087
   R11        2.07135  -0.00007   0.00007  -0.00031  -0.00024   2.07110
    A1        2.00530  -0.00001   0.00005  -0.00010  -0.00005   2.00526
    A2        2.13373  -0.00005   0.00005  -0.00042  -0.00037   2.13337
    A3        2.14415   0.00007  -0.00010   0.00052   0.00041   2.14456
    A4        2.09167   0.00005   0.00004   0.00007   0.00011   2.09178
    A5        2.09291  -0.00000   0.00002   0.00003   0.00005   2.09296
    A6        2.09861  -0.00004  -0.00006  -0.00010  -0.00016   2.09845
    A7        2.11992   0.00007  -0.00002   0.00018   0.00016   2.12008
    A8        2.08163  -0.00004   0.00001  -0.00009  -0.00008   2.08155
    A9        2.08163  -0.00004   0.00001  -0.00009  -0.00008   2.08155
   A10        2.09167   0.00005   0.00004   0.00007   0.00011   2.09178
   A11        2.09861  -0.00004  -0.00006  -0.00010  -0.00016   2.09845
   A12        2.09291  -0.00000   0.00002   0.00003   0.00005   2.09296
   A13        2.00530  -0.00001   0.00005  -0.00010  -0.00005   2.00526
   A14        2.13373  -0.00005   0.00005  -0.00042  -0.00037   2.13337
   A15        2.14415   0.00007  -0.00010   0.00052   0.00041   2.14456
   A16        2.25250  -0.00014  -0.00016  -0.00012  -0.00027   2.25223
    D1       -0.00000  -0.00000   0.00000  -0.00000   0.00000   0.00000
    D2        3.14159  -0.00000   0.00000  -0.00000   0.00000   3.14159
    D3        3.14159   0.00000   0.00000   0.00000   0.00000   3.14159
    D4        0.00000   0.00000   0.00000   0.00000  -0.00000   0.00000
    D5       -0.00000   0.00000   0.00000   0.00000   0.00000   0.00000
    D6        3.14159  -0.00000   0.00000  -0.00000   0.00000   3.14159
    D7        0.00000   0.00000   0.00000   0.00000   0.00000   0.00000
    D8        3.14159  -0.00000   0.00000  -0.00000   0.00000   3.14159
    D9        3.14159   0.00000   0.00000   0.00000   0.00000   3.14159
   D10       -0.00000  -0.00000   0.00000  -0.00000   0.00000   0.00000
   D11       -0.00000  -0.00000   0.00000  -0.00000   0.00000   0.00000
   D12        3.14159  -0.00000   0.00000  -0.00000   0.00000   3.14159
   D13        3.14159   0.00000   0.00000   0.00000   0.00000   3.14159
   D14        0.00000   0.00000   0.00000   0.00000  -0.00000   0.00000
   D15        0.00000   0.00000   0.00000   0.00000   0.00000   0.00000
   D16        3.14159  -0.00000   0.00000  -0.00000   0.00000   3.14159
   D17        3.14159   0.00000   0.00000   0.00000   0.00000   3.14159
   D18       -0.00000  -0.00000   0.00000  -0.00000   0.00000   0.00000
   D19        0.00000  -0.00000   0.00000  -0.00000  -0.00000   0.00000
   D20        3.14159   0.00000   0.00000   0.00000   0.00000   3.14159
         Item               Value     Threshold  Converged?
 Maximum Force            0.000321     0.000450     YES
 RMS     Force            0.000081     0.000300     YES
 Maximum Displacement     0.000853     0.001800     YES
 RMS     Displacement     0.000299     0.001200     YES
 Predicted change in Energy=-3.781480D-07
 Optimization completed.
    -- Stationary point found.
                           ----------------------------
                           !   Optimized Parameters   !
                           ! (Angstroms and Degrees)  !
 --------------------------                            --------------------------
 ! Name  Definition              Value          Derivative Info.                !
 --------------------------------------------------------------------------------
 ! R1    R(1,2)                  1.408          -DE/DX =    0.0001              !
 ! R2    R(1,6)                  1.3709         -DE/DX =    0.0001              !
 ! R3    R(1,7)                  1.0961         -DE/DX =   -0.0001              !
 ! R4    R(2,3)                  1.4026         -DE/DX =   -0.0003              !
 ! R5    R(2,8)                  1.0983         -DE/DX =    0.0001              !
 ! R6    R(3,4)                  1.4026         -DE/DX =   -0.0003              !
 ! R7    R(3,9)                  1.0999         -DE/DX =    0.0001              !
 ! R8    R(4,5)                  1.408          -DE/DX =    0.0001              !
 ! R9    R(4,10)                 1.0983         -DE/DX =    0.0                 !
 ! R10   R(5,6)                  1.3709         -DE/DX =    0.0001              !
 ! R11   R(5,11)                 1.0961         -DE/DX =   -0.0001              !
 ! A1    A(2,1,6)              114.8955         -DE/DX =    0.0                 !
 ! A2    A(2,1,7)              122.2539         -DE/DX =   -0.0001              !
 ! A3    A(6,1,7)              122.8506         -DE/DX =    0.0001              !
 ! A4    A(1,2,3)              119.8439         -DE/DX =    0.0                 !
 ! A5    A(1,2,8)              119.9149         -DE/DX =    0.0                 !
 ! A6    A(3,2,8)              120.2412         -DE/DX =    0.0                 !
 ! A7    A(2,3,4)              121.4626         -DE/DX =    0.0001              !
 ! A8    A(2,3,9)              119.2687         -DE/DX =    0.0                 !
 ! A9    A(4,3,9)              119.2687         -DE/DX =    0.0                 !
 ! A10   A(3,4,5)              119.8439         -DE/DX =    0.0                 !
 ! A11   A(3,4,10)             120.2413         -DE/DX =    0.0                 !
 ! A12   A(5,4,10)             119.9149         -DE/DX =    0.0                 !
 ! A13   A(4,5,6)              114.8955         -DE/DX =    0.0                 !
 ! A14   A(4,5,11)             122.2539         -DE/DX =   -0.0001              !
 ! A15   A(6,5,11)             122.8506         -DE/DX =    0.0001              !
 ! A16   A(1,6,5)              129.0587         -DE/DX =   -0.0001              !
 ! D1    D(6,1,2,3)              0.0            -DE/DX =    0.0                 !
 ! D2    D(6,1,2,8)            180.0            -DE/DX =    0.0                 !
 ! D3    D(7,1,2,3)            180.0            -DE/DX =    0.0                 !
 ! D4    D(7,1,2,8)              0.0            -DE/DX =    0.0                 !
 ! D5    D(2,1,6,5)              0.0            -DE/DX =    0.0                 !
 ! D6    D(7,1,6,5)            180.0            -DE/DX =    0.0                 !
 ! D7    D(1,2,3,4)              0.0            -DE/DX =    0.0                 !
 ! D8    D(1,2,3,9)            180.0            -DE/DX =    0.0                 !
 ! D9    D(8,2,3,4)            180.0            -DE/DX =    0.0                 !
 ! D10   D(8,2,3,9)              0.0            -DE/DX =    0.0                 !
 ! D11   D(2,3,4,5)              0.0            -DE/DX =    0.0                 !
 ! D12   D(2,3,4,10)           180.0            -DE/DX =    0.0                 !
 ! D13   D(9,3,4,5)            180.0            -DE/DX =    0.0                 !
 ! D14   D(9,3,4,10)             0.0            -DE/DX =    0.0                 !
 ! D15   D(3,4,5,6)              0.0            -DE/DX =    0.0                 !
 ! D16   D(3,4,5,11)           180.0            -DE/DX =    0.0                 !
 ! D17   D(10,4,5,6)           180.0            -DE/DX =    0.0                 !
 ! D18   D(10,4,5,11)            0.0            -DE/DX =    0.0                 !
 ! D19   D(4,5,6,1)              0.0            -DE/DX =    0.0                 !
 ! D20   D(11,5,6,1)           180.0            -DE/DX =    0.0                 !
 --------------------------------------------------------------------------------
 GradGradGradGradGradGradGradGradGradGradGradGradGradGradGradGradGradGrad

                          Input orientation:                          
 ---------------------------------------------------------------------
 Center     Atomic      Atomic             Coordinates (Angstroms)
 Number     Number       Type             X           Y           Z
 ---------------------------------------------------------------------
      1          6           0       -3.172496    0.245676   -0.000000
      2          6           0       -1.965572    0.970823   -0.000000
      3          6           0       -0.740696    0.287449   -0.000000
      4          6           0       -0.684288   -1.114028    0.000000
      5          6           0       -1.876410   -1.863259    0.000000
      6          6           0       -3.026745   -1.117484   -0.000000
      7          1           0       -4.151321    0.738995   -0.000000
      8          1           0       -1.986341    2.068938   -0.000000
      9          1           0        0.196386    0.863351   -0.000000
     10          1           0        0.286036   -1.628577    0.000000
     11          1           0       -1.878422   -2.959366    0.000000
 ---------------------------------------------------------------------
                    Distance matrix (angstroms):
                    1          2          3          4          5
     1  C    0.000000
     2  C    1.408014   0.000000
     3  C    2.432158   1.402612   0.000000
     4  C    2.835484   2.447099   1.402612   0.000000
     5  C    2.475367   2.835484   2.432158   1.408014   0.000000
     6  C    1.370930   2.342460   2.683255   2.342460   1.370930
     7  H    1.096113   2.198009   3.440386   3.931159   3.456435
     8  H    2.175143   1.098311   2.173783   3.438985   3.933733
     9  H    3.425038   2.164627   1.099902   2.164627   3.425038
    10  H    3.933734   3.438985   2.173784   1.098312   2.175143
    11  H    3.456432   3.931156   3.440382   2.198006   1.096109
                    6          7          8          9         10
     6  C    0.000000
     7  H    2.170527   0.000000
     8  H    3.351974   2.540844   0.000000
     9  H    3.783158   4.349485   2.493539   0.000000
    10  H    3.351974   5.029467   4.339967   2.493540   0.000000
    11  H    2.170524   4.340961   5.029462   4.349482   2.540842
                   11
    11  H    0.000000
 Stoichiometry    C6H5(2)
 Framework group  CS[SG(C6H5)]
 Deg. of freedom    19
 Full point group                 CS      NOp   2
 Largest Abelian subgroup         CS      NOp   2
 Largest concise Abelian subgroup C1      NOp   1
                         Standard orientation:                         
 ---------------------------------------------------------------------
 Center     Atomic      Atomic             Coordinates (Angstroms)
 Number     Number       Type             X           Y           Z
 ---------------------------------------------------------------------
      1          6           0       -0.777873    1.237684    0.000000
      2          6           0        0.630070    1.223549    0.000000
      3          6           0        1.315815   -0.000000    0.000000
      4          6           0        0.630070   -1.223549   -0.000000
      5          6           0       -0.777873   -1.237684   -0.000000
      6          6           0       -1.367440   -0.000000   -0.000000
      7          1           0       -1.353504    2.170482    0.000000
      8          1           0        1.187340    2.169983    0.000000
      9          1           0        2.415718   -0.000000    0.000000
     10          1           0        1.187340   -2.169984   -0.000000
     11          1           0       -1.353502   -2.170479   -0.000000
 ---------------------------------------------------------------------
 Rotational constants (GHZ):           6.3469845           5.5123360           2.9501447

 **********************************************************************

            Population analysis using the SCF Density.

 **********************************************************************

 Orbital symmetries:
 Alpha Orbitals:
       Occupied  (A') (A') (A') (A') (A') (A') (A') (A') (A') (A")
                 (A') (A') (A') (A") (A")
       Virtual   (A") (A") (A") (A') (A') (A') (A') (A') (A') (A')
                 (A') (A') (A') (A')
 Beta  Orbitals:
       Occupied  (A') (A') (A') (A') (A') (A') (A') (A') (A') (A")
                 (A') (A') (A") (A")
       Virtual   (A") (A') (A") (A") (A') (A') (A') (A') (A') (A')
                 (A') (A') (A') (A') (A')
 The electronic state is 2-A'.
 Alpha  occ. eigenvalues --   -1.44371  -1.16624  -1.13720  -0.86070  -0.83249
 Alpha  occ. eigenvalues --   -0.65054  -0.58731  -0.57383  -0.53373  -0.50198
 Alpha  occ. eigenvalues --   -0.49387  -0.45321  -0.37646  -0.37330  -0.36718
 Alpha virt. eigenvalues --    0.01735   0.02136   0.10227   0.13775   0.14320
 Alpha virt. eigenvalues --    0.14816   0.15137   0.15904   0.17453   0.18019
 Alpha virt. eigenvalues --    0.19232   0.20032   0.20298   0.21287
  Beta  occ. eigenvalues --   -1.43539  -1.16469  -1.12280  -0.85659  -0.80934
  Beta  occ. eigenvalues --   -0.64812  -0.57058  -0.56798  -0.53094  -0.49655
  Beta  occ. eigenvalues --   -0.47971  -0.44927  -0.36938  -0.36493
  Beta virt. eigenvalues --    0.01656   0.01816   0.03606   0.10960   0.13891
  Beta virt. eigenvalues --    0.14548   0.14566   0.15798   0.16456   0.17879
  Beta virt. eigenvalues --    0.18086   0.19557   0.20079   0.21498   0.22230
          Condensed to atoms (all electrons):
               1          2          3          4          5          6
     1  C    4.123784   0.000000   0.000000   0.000000   0.000000   0.000000
     2  C    0.000000   4.123124   0.000000   0.000000   0.000000   0.000000
     3  C    0.000000   0.000000   4.145694   0.000000   0.000000   0.000000
     4  C    0.000000   0.000000   0.000000   4.123124   0.000000   0.000000
     5  C    0.000000   0.000000   0.000000   0.000000   4.123784   0.000000
     6  C    0.000000   0.000000   0.000000   0.000000   0.000000   4.076920
     7  H    0.000000   0.000000   0.000000   0.000000   0.000000   0.000000
     8  H    0.000000   0.000000   0.000000   0.000000   0.000000   0.000000
     9  H    0.000000   0.000000   0.000000   0.000000   0.000000   0.000000
    10  H    0.000000   0.000000   0.000000   0.000000   0.000000   0.000000
    11  H    0.000000   0.000000   0.000000   0.000000   0.000000   0.000000
               7          8          9         10         11
     1  C    0.000000   0.000000   0.000000   0.000000   0.000000
     2  C    0.000000   0.000000   0.000000   0.000000   0.000000
     3  C    0.000000   0.000000   0.000000   0.000000   0.000000
     4  C    0.000000   0.000000   0.000000   0.000000   0.000000
     5  C    0.000000   0.000000   0.000000   0.000000   0.000000
     6  C    0.000000   0.000000   0.000000   0.000000   0.000000
     7  H    0.845832   0.000000   0.000000   0.000000   0.000000
     8  H    0.000000   0.863053   0.000000   0.000000   0.000000
     9  H    0.000000   0.000000   0.865799   0.000000   0.000000
    10  H    0.000000   0.000000   0.000000   0.863053   0.000000
    11  H    0.000000   0.000000   0.000000   0.000000   0.845833
          Atomic-Atomic Spin Densities.
               1          2          3          4          5          6
     1  C   -0.448153   0.000000   0.000000   0.000000   0.000000   0.000000
     2  C    0.000000   0.460194   0.000000   0.000000   0.000000   0.000000
     3  C    0.000000   0.000000  -0.423557   0.000000   0.000000   0.000000
     4  C    0.000000   0.000000   0.000000   0.460194   0.000000   0.000000
     5  C    0.000000   0.000000   0.000000   0.000000  -0.448153   0.000000
     6  C    0.000000   0.000000   0.000000   0.000000   0.000000   1.348434
     7  H    0.000000   0.000000   0.000000   0.000000   0.000000   0.000000
     8  H    0.000000   0.000000   0.000000   0.000000   0.000000   0.000000
     9  H    0.000000   0.000000   0.000000   0.000000   0.000000   0.000000
    10  H    0.000000   0.000000   0.000000   0.000000   0.000000   0.000000
    11  H    0.000000   0.000000   0.000000   0.000000   0.000000   0.000000
               7          8          9         10         11
     1  C    0.000000   0.000000   0.000000   0.000000   0.000000
     2  C    0.000000   0.000000   0.000000   0.000000   0.000000
     3  C    0.000000   0.000000   0.000000   0.000000   0.000000
     4  C    0.000000   0.000000   0.000000   0.000000   0.000000
     5  C    0.000000   0.000000   0.000000   0.000000   0.000000
     6  C    0.000000   0.000000   0.000000   0.000000   0.000000
     7  H    0.030397   0.000000   0.000000   0.000000   0.000000
     8  H    0.000000  -0.017774   0.000000   0.000000   0.000000
     9  H    0.000000   0.000000   0.025796   0.000000   0.000000
    10  H    0.000000   0.000000   0.000000  -0.017774   0.000000
    11  H    0.000000   0.000000   0.000000   0.000000   0.030396
 Mulliken charges and spin densities:
               1          2
     1  C   -0.123784  -0.448153
     2  C   -0.123124   0.460194
     3  C   -0.145694  -0.423557
     4  C   -0.123124   0.460194
     5  C   -0.123784  -0.448153
     6  C   -0.076920   1.348434
     7  H    0.154168   0.030397
     8  H    0.136947  -0.017774
     9  H    0.134201   0.025796
    10  H    0.136947  -0.017774
    11  H    0.154167   0.030396
 Sum of Mulliken charges =   0.00000   1.00000
 Mulliken charges and spin densities with hydrogens summed into heavy atoms:
               1          2
     1  C    0.030384  -0.417756
     2  C    0.013823   0.442420
     3  C   -0.011494  -0.397762
     4  C    0.013823   0.442420
     5  C    0.030384  -0.417756
     6  C   -0.076920   1.348434
 Charge=              0.0000 electrons
 Dipole moment (field-independent basis, Debye):
    X=              1.0028    Y=              0.0000    Z=              0.0000  Tot=              1.0028
 N-N= 1.134789687086D+02 E-N=-1.594885092970D+02  KE=-4.701854611146D+01
 Symmetry A'   KE=-3.780486862290D+01
 Symmetry A"   KE=-9.213677488560D+00
 Symmetry A'   SP= 1.000000000000D+00
 Symmetry A"   SP= 1.609823385706D-15
 1\1\GINC-SH02-01N14\FOpt\UAM1\ZDO\C6H5(2)\JLAPIER\10-Dec-2025\0\\# opt
  am1 SCF=XQC\\Neutral Radical (removed 1) _\\0,2\C,-3.1724955178,0.245
 6761914,0.\C,-1.9655718257,0.9708234349,0.\C,-0.7406962278,0.287449477
 5,0.\C,-0.6842879365,-1.114027557,0.\C,-1.876410471,-1.8632586982,0.\C
 ,-3.0267452043,-1.1174842839,0.\H,-4.1513212947,0.7389949794,0.\H,-1.9
 863409165,2.0689384396,0.\H,0.1963860204,0.8633507915,0.\H,0.286035727
 1,-1.6285767806,0.\H,-1.878422348,-2.959366003,0.\\Version=ES64L-G16Re
 vB.01\State=2-A'\HF=0.1164363\S2=1.153166\S2-1=0.\S2A=0.885534\RMSD=9.
 879e-09\RMSF=1.275e-04\Dipole=0.3361246,0.2065731,0.\PG=CS [SG(C6H5)]\
 \@


 EVERYTHING'S GOT A MORAL, IF ONLY YOU CAN FIND IT.

                                    -- LEWIS CARROL, ALICE IN WONDERLAND
 Job cpu time:       0 days  0 hours  0 minutes  7.9 seconds.
 Elapsed time:       0 days  0 hours  0 minutes 14.2 seconds.
 File lengths (MBytes):  RWF=     10 Int=      0 D2E=      0 Chk=      2 Scr=      1
 Normal termination of Gaussian 16 at Wed Dec 10 10:41:57 2025.
