 Entering Gaussian System, Link 0=g16
 Initial command:
 /share/software/user/restricted/gaussian/g16.B01/l1.exe "/home/users/jlapier/Chloroaromatics/Gau-19307.inp" -scrdir="/home/users/jlapier/Chloroaromatics/"
 Entering Link 1 = /share/software/user/restricted/gaussian/g16.B01/l1.exe PID=     19310.
  
 Copyright (c) 1988-2017, Gaussian, Inc.  All Rights Reserved.
  
 This is part of the Gaussian(R) 16 program.  It is based on
 the Gaussian(R) 09 system (copyright 2009, Gaussian, Inc.),
 the Gaussian(R) 03 system (copyright 2003, Gaussian, Inc.),
 the Gaussian(R) 98 system (copyright 1998, Gaussian, Inc.),
 the Gaussian(R) 94 system (copyright 1995, Gaussian, Inc.),
 the Gaussian 92(TM) system (copyright 1992, Gaussian, Inc.),
 the Gaussian 90(TM) system (copyright 1990, Gaussian, Inc.),
 the Gaussian 88(TM) system (copyright 1988, Gaussian, Inc.),
 the Gaussian 86(TM) system (copyright 1986, Carnegie Mellon
 University), and the Gaussian 82(TM) system (copyright 1983,
 Carnegie Mellon University). Gaussian is a federally registered
 trademark of Gaussian, Inc.
  
 This software contains proprietary and confidential information,
 including trade secrets, belonging to Gaussian, Inc.
  
 This software is provided under written license and may be
 used, copied, transmitted, or stored only in accord with that
 written license.
  
 The following legend is applicable only to US Government
 contracts under FAR:
  
                    RESTRICTED RIGHTS LEGEND
  
 Use, reproduction and disclosure by the US Government is
 subject to restrictions as set forth in subparagraphs (a)
 and (c) of the Commercial Computer Software - Restricted
 Rights clause in FAR 52.227-19.
  
 Gaussian, Inc.
 340 Quinnipiac St., Bldg. 40, Wallingford CT 06492
  
  
 ---------------------------------------------------------------
 Warning -- This program may not be used in any manner that
 competes with the business of Gaussian, Inc. or will provide
 assistance to any competitor of Gaussian, Inc.  The licensee
 of this program is prohibited from giving any competitor of
 Gaussian, Inc. access to this program.  By using this program,
 the user acknowledges that Gaussian, Inc. is engaged in the
 business of creating and licensing software in the field of
 computational chemistry and represents and warrants to the
 licensee that it is not a competitor of Gaussian, Inc. and that
 it will not use this program in any manner prohibited above.
 ---------------------------------------------------------------
  

 Cite this work as:
 Gaussian 16, Revision B.01,
 M. J. Frisch, G. W. Trucks, H. B. Schlegel, G. E. Scuseria, 
 M. A. Robb, J. R. Cheeseman, G. Scalmani, V. Barone, 
 G. A. Petersson, H. Nakatsuji, X. Li, M. Caricato, A. V. Marenich, 
 J. Bloino, B. G. Janesko, R. Gomperts, B. Mennucci, H. P. Hratchian, 
 J. V. Ortiz, A. F. Izmaylov, J. L. Sonnenberg, D. Williams-Young, 
 F. Ding, F. Lipparini, F. Egidi, J. Goings, B. Peng, A. Petrone, 
 T. Henderson, D. Ranasinghe, V. G. Zakrzewski, J. Gao, N. Rega, 
 G. Zheng, W. Liang, M. Hada, M. Ehara, K. Toyota, R. Fukuda, 
 J. Hasegawa, M. Ishida, T. Nakajima, Y. Honda, O. Kitao, H. Nakai, 
 T. Vreven, K. Throssell, J. A. Montgomery, Jr., J. E. Peralta, 
 F. Ogliaro, M. J. Bearpark, J. J. Heyd, E. N. Brothers, K. N. Kudin, 
 V. N. Staroverov, T. A. Keith, R. Kobayashi, J. Normand, 
 K. Raghavachari, A. P. Rendell, J. C. Burant, S. S. Iyengar, 
 J. Tomasi, M. Cossi, J. M. Millam, M. Klene, C. Adamo, R. Cammi, 
 J. W. Ochterski, R. L. Martin, K. Morokuma, O. Farkas, 
 J. B. Foresman, and D. J. Fox, Gaussian, Inc., Wallingford CT, 2016.
 
 ******************************************
 Gaussian 16:  ES64L-G16RevB.01 20-Dec-2017
                10-Dec-2025 
 ******************************************
 %mem=2GB
 %nprocshare=1
 Will use up to    1 processors via shared memory.
 %chk=geometry_chks/12-1_-ClBzNeutralRadical.chk
 -----------------
 # opt am1 SCF=XQC
 -----------------
 1/18=20,19=15,26=1,38=1/1,3;
 2/9=110,12=2,17=6,18=5,40=1/2;
 3/5=2,25=1,41=700000,71=1/1,2,3;
 4/35=1/1;
 5/5=2,8=3,13=1,35=1,38=5/2,8;
 6/7=2,8=2,9=2,10=2,28=1/1;
 7//1,2,3,16;
 1/18=20,19=15,26=1/3(2);
 2/9=110/2;
 99//99;
 2/9=110/2;
 3/5=2,25=1,41=700000,71=1,135=20/1,2,3;
 4/5=5,16=3,35=1/1;
 5/5=2,8=3,13=1,35=1,38=5/2,8;
 7//1,2,3,16;
 1/18=20,19=15,26=1/3(-5);
 2/9=110/2;
 6/7=2,8=2,9=2,10=2,19=2,28=1/1;
 99/9=1/99;
 ------------------------------
 Neutral Radical (removed 2) 1_
 ------------------------------
 Symbolic Z-matrix:
 Charge =  0 Multiplicity = 2
 C                    -3.20928   0.19943   0. 
 C                    -2.0115    0.93555   0. 
 C                    -0.77511   0.2663    0. 
 C                    -0.7365   -1.13907   0. 
 C                    -1.93429  -1.87519   0. 
 C                    -3.17067  -1.20594   0. 
 Cl                   -4.67483  -2.13035   0. 
 H                    -2.05998   2.7004    0. 
 H                     0.72905   1.19071   0. 
 H                     0.81614  -1.97951   0. 
 H                    -1.8858   -3.64003   0. 
 
 Add virtual bond connecting atoms H11        and C5         Dist= 3.34D+00.
 Add virtual bond connecting atoms H10        and C4         Dist= 3.34D+00.
 Add virtual bond connecting atoms H9         and C3         Dist= 3.34D+00.
 Add virtual bond connecting atoms H8         and C2         Dist= 3.34D+00.

 GradGradGradGradGradGradGradGradGradGradGradGradGradGradGradGradGradGrad
 Berny optimization.
 Initialization pass.
                           ----------------------------
                           !    Initial Parameters    !
                           ! (Angstroms and Degrees)  !
 --------------------------                            --------------------------
 ! Name  Definition              Value          Derivative Info.                !
 --------------------------------------------------------------------------------
 ! R1    R(1,2)                  1.4059         estimate D2E/DX2                !
 ! R2    R(1,6)                  1.4059         estimate D2E/DX2                !
 ! R3    R(2,3)                  1.4059         estimate D2E/DX2                !
 ! R4    R(2,8)                  1.7655         estimate D2E/DX2                !
 ! R5    R(3,4)                  1.4059         estimate D2E/DX2                !
 ! R6    R(3,9)                  1.7655         estimate D2E/DX2                !
 ! R7    R(4,5)                  1.4059         estimate D2E/DX2                !
 ! R8    R(4,10)                 1.7655         estimate D2E/DX2                !
 ! R9    R(5,6)                  1.4059         estimate D2E/DX2                !
 ! R10   R(5,11)                 1.7655         estimate D2E/DX2                !
 ! R11   R(6,7)                  1.7655         estimate D2E/DX2                !
 ! A1    A(2,1,6)              119.9999         estimate D2E/DX2                !
 ! A2    A(1,2,3)              120.0            estimate D2E/DX2                !
 ! A3    A(1,2,8)              120.0001         estimate D2E/DX2                !
 ! A4    A(3,2,8)              119.9999         estimate D2E/DX2                !
 ! A5    A(2,3,4)              120.0001         estimate D2E/DX2                !
 ! A6    A(2,3,9)              120.0            estimate D2E/DX2                !
 ! A7    A(4,3,9)              119.9999         estimate D2E/DX2                !
 ! A8    A(3,4,5)              119.9997         estimate D2E/DX2                !
 ! A9    A(3,4,10)             120.0003         estimate D2E/DX2                !
 ! A10   A(5,4,10)             120.0            estimate D2E/DX2                !
 ! A11   A(4,5,6)              120.0            estimate D2E/DX2                !
 ! A12   A(4,5,11)             119.9996         estimate D2E/DX2                !
 ! A13   A(6,5,11)             120.0004         estimate D2E/DX2                !
 ! A14   A(1,6,5)              120.0003         estimate D2E/DX2                !
 ! A15   A(1,6,7)              119.9999         estimate D2E/DX2                !
 ! A16   A(5,6,7)              119.9998         estimate D2E/DX2                !
 ! D1    D(6,1,2,3)              0.0            estimate D2E/DX2                !
 ! D2    D(6,1,2,8)            180.0            estimate D2E/DX2                !
 ! D3    D(2,1,6,5)              0.0            estimate D2E/DX2                !
 ! D4    D(2,1,6,7)            180.0            estimate D2E/DX2                !
 ! D5    D(1,2,3,4)              0.0            estimate D2E/DX2                !
 ! D6    D(1,2,3,9)            180.0            estimate D2E/DX2                !
 ! D7    D(8,2,3,4)            180.0            estimate D2E/DX2                !
 ! D8    D(8,2,3,9)              0.0            estimate D2E/DX2                !
 ! D9    D(2,3,4,5)              0.0            estimate D2E/DX2                !
 ! D10   D(2,3,4,10)           180.0            estimate D2E/DX2                !
 ! D11   D(9,3,4,5)            180.0            estimate D2E/DX2                !
 ! D12   D(9,3,4,10)             0.0            estimate D2E/DX2                !
 ! D13   D(3,4,5,6)              0.0            estimate D2E/DX2                !
 ! D14   D(3,4,5,11)           180.0            estimate D2E/DX2                !
 ! D15   D(10,4,5,6)           180.0            estimate D2E/DX2                !
 ! D16   D(10,4,5,11)            0.0            estimate D2E/DX2                !
 ! D17   D(4,5,6,1)              0.0            estimate D2E/DX2                !
 ! D18   D(4,5,6,7)            180.0            estimate D2E/DX2                !
 ! D19   D(11,5,6,1)           180.0            estimate D2E/DX2                !
 ! D20   D(11,5,6,7)             0.0            estimate D2E/DX2                !
 --------------------------------------------------------------------------------
 Trust Radius=3.00D-01 FncErr=1.00D-07 GrdErr=1.00D-07 EigMax=2.50D+02 EigMin=1.00D-04
 Number of steps in this run=     57 maximum allowed number of steps=    100.
 GradGradGradGradGradGradGradGradGradGradGradGradGradGradGradGradGradGrad

                          Input orientation:                          
 ---------------------------------------------------------------------
 Center     Atomic      Atomic             Coordinates (Angstroms)
 Number     Number       Type             X           Y           Z
 ---------------------------------------------------------------------
      1          6           0       -3.209280    0.199430    0.000000
      2          6           0       -2.011500    0.935550    0.000000
      3          6           0       -0.775110    0.266300    0.000000
      4          6           0       -0.736500   -1.139070    0.000000
      5          6           0       -1.934290   -1.875190    0.000000
      6          6           0       -3.170670   -1.205940    0.000000
      7         17           0       -4.674830   -2.130350    0.000000
      8          1           0       -2.059980    2.700400    0.000000
      9          1           0        0.729050    1.190710    0.000000
     10          1           0        0.816140   -1.979510    0.000000
     11          1           0       -1.885800   -3.640030    0.000000
 ---------------------------------------------------------------------
                    Distance matrix (angstroms):
                    1          2          3          4          5
     1  C    0.000000
     2  C    1.405898   0.000000
     3  C    2.435088   1.405900   0.000000
     4  C    2.811801   2.435092   1.405900   0.000000
     5  C    2.435087   2.811800   2.435093   1.405907   0.000000
     6  C    1.405900   2.435088   2.811796   2.435088   1.405892
     7  Cl   2.752401   4.061166   4.577308   4.061167   2.752393
     8  H    2.752406   1.765516   2.752405   4.061173   4.577316
     9  H    4.061167   2.752403   1.765512   2.752401   4.061173
    10  H    4.577312   4.061173   2.752406   1.765511   2.752408
    11  H    4.061164   4.577306   4.061163   2.752397   1.765506
                    6          7          8          9         10
     6  C    0.000000
     7  Cl   1.765512   0.000000
     8  H    4.061173   5.493049   0.000000
     9  H    4.577308   6.342819   3.171412   0.000000
    10  H    4.061165   5.493041   5.493052   3.171416   0.000000
    11  H    2.752396   3.171407   6.342822   5.493040   3.171404
                   11
    11  H    0.000000
 Stoichiometry    C6H4Cl(2)
 Framework group  CS[SG(C6H4Cl)]
 Deg. of freedom    19
 Full point group                 CS      NOp   2
 Largest Abelian subgroup         CS      NOp   2
 Largest concise Abelian subgroup C1      NOp   1
                         Standard orientation:                         
 ---------------------------------------------------------------------
 Center     Atomic      Atomic             Coordinates (Angstroms)
 Number     Number       Type             X           Y           Z
 ---------------------------------------------------------------------
      1          6           0       -0.494774   -1.175881    0.000000
      2          6           0        0.722771   -1.878829   -0.000000
      3          6           0        1.940315   -1.175876   -0.000000
      4          6           0        1.940315    0.230024   -0.000000
      5          6           0        0.722761    0.932972   -0.000000
      6          6           0       -0.494774    0.230020    0.000000
      7         17           0       -2.023753    1.112772    0.000000
      8          1           0        0.722777   -3.644344   -0.000000
      9          1           0        3.469294   -2.058629   -0.000000
     10          1           0        3.469288    1.112787   -0.000000
     11          1           0        0.722765    2.698478    0.000000
 ---------------------------------------------------------------------
 Rotational constants (GHZ):           5.3831435           1.4899579           1.1669633
 Standard basis: VSTO-6G (5D, 7F)
 There are    25 symmetry adapted cartesian basis functions of A'  symmetry.
 There are     7 symmetry adapted cartesian basis functions of A"  symmetry.
 There are    25 symmetry adapted basis functions of A'  symmetry.
 There are     7 symmetry adapted basis functions of A"  symmetry.
    32 basis functions,   192 primitive gaussians,    32 cartesian basis functions
    18 alpha electrons       17 beta electrons
       nuclear repulsion energy       147.2898974327 Hartrees.
 Integral buffers will be    131072 words long.
 Regular integral format.
 Two-electron integral symmetry is turned off.
 Do NDO integrals.
 One-electron integrals computed using PRISM.
 NBasis=    32 RedAO= T EigKep=  1.00D+00  NBF=    25     7
 NBsUse=    32 1.00D-06 EigRej= -1.00D+00 NBFU=    25     7
 Simple Huckel Guess.
 Initial guess orbital symmetries:
 Alpha Orbitals:
       Occupied  (A') (A') (A') (A') (A') (A') (A') (A') (A") (A')
                 (A') (A') (A") (A') (A") (A') (A") (A')
       Virtual   (A') (A") (A') (A") (A') (A') (A") (A') (A') (A')
                 (A') (A') (A') (A')
 Beta  Orbitals:
       Occupied  (A') (A') (A') (A') (A') (A') (A') (A') (A") (A')
                 (A') (A') (A") (A') (A") (A') (A")
       Virtual   (A') (A') (A") (A') (A") (A') (A') (A") (A') (A')
                 (A') (A') (A') (A') (A')
 The electronic state of the initial guess is 2-A'.
 Initial guess <Sx>= 0.0000 <Sy>= 0.0000 <Sz>= 0.5000 <S**2>= 0.7500 S= 0.5000
 Keep J ints in memory in canonical form, NReq=862079.
 Overlap will be assumed to be unity.
 Requested convergence on RMS density matrix=1.00D-08 within  32 cycles.
 Requested convergence on MAX density matrix=1.00D-06.
 Requested convergence on             energy=1.00D-06.
 No special actions if energy rises.
 Fock symm off for IB=2 I1=    1 I=   26 J=   23 Cut=1.00D-07 Err=4.72D-03
 Fock matrix is not symmetric: symmetry in diagonalization turned off.
 Rare condition: small coef for last iteration:  0.000D+00
 Rare condition: small coef for last iteration:  0.000D+00
 Rare condition: small coef for last iteration:  0.000D+00
 Rare condition: small coef for last iteration:  0.000D+00
 Rare condition: small coef for last iteration:  0.000D+00
 Rare condition: small coef for last iteration:  0.000D+00
 Rare condition: small coef for last iteration:  0.000D+00
 Rare condition: small coef for last iteration:  0.000D+00
 Rare condition: small coef for last iteration:  0.000D+00
 Rare condition: small coef for last iteration:  0.000D+00
 Rare condition: small coef for last iteration:  0.000D+00
 Rare condition: small coef for last iteration:  0.000D+00
 Rare condition: small coef for last iteration:  0.000D+00
 Rare condition: small coef for last iteration:  0.000D+00
 Rare condition: small coef for last iteration:  0.000D+00
 Rare condition: small coef for last iteration:  0.000D+00
 >>>>>>>>>> Convergence criterion not met.
 SCF Done:  E(UAM1) =  0.607538445553     A.U. after   33 cycles
            NFock= 32  Conv=0.33D-03     -V/T= 1.0089
 <Sx>= 0.0000 <Sy>= 0.0000 <Sz>= 0.5000 <S**2>= 1.0676 S= 0.6478
 <L.S>=  0.00000000000    
 Annihilation of the first spin contaminant:
 S**2 before annihilation     1.0676,   after     0.8390
 Keep J ints in memory in canonical form, NReq=862479.
 LinEq1:  Iter=  0 NonCon=     1 RMS=8.89D-05 Max=5.77D-04 NDo=     1
 AX will form     1 AO Fock derivatives at one time.
 LinEq1:  Iter=  1 NonCon=     1 RMS=7.33D-06 Max=6.54D-05 NDo=     1
 LinEq1:  Iter=  2 NonCon=     1 RMS=1.44D-06 Max=1.23D-05 NDo=     1
 LinEq1:  Iter=  3 NonCon=     1 RMS=3.28D-07 Max=1.97D-06 NDo=     1
 LinEq1:  Iter=  4 NonCon=     1 RMS=1.12D-07 Max=1.11D-06 NDo=     1
 LinEq1:  Iter=  5 NonCon=     1 RMS=4.12D-08 Max=4.22D-07 NDo=     1
 LinEq1:  Iter=  6 NonCon=     1 RMS=8.83D-09 Max=5.06D-08 NDo=     1
 LinEq1:  Iter=  7 NonCon=     0 RMS=1.99D-09 Max=1.35D-08 NDo=     1
 Linear equations converged to 2.252D-09 2.252D-08 after     7 iterations.
 LinEq1:  Iter=  0 NonCon=     1 RMS=8.33D-05 Max=5.11D-04 NDo=     1
 LinEq1:  Iter=  1 NonCon=     1 RMS=3.13D-05 Max=2.42D-04 NDo=     1
 LinEq1:  Iter=  2 NonCon=     1 RMS=7.53D-06 Max=6.38D-05 NDo=     1
 LinEq1:  Iter=  3 NonCon=     1 RMS=2.10D-06 Max=1.84D-05 NDo=     1
 LinEq1:  Iter=  4 NonCon=     1 RMS=6.82D-07 Max=5.40D-06 NDo=     1
 LinEq1:  Iter=  5 NonCon=     1 RMS=2.52D-07 Max=1.66D-06 NDo=     1
 LinEq1:  Iter=  6 NonCon=     1 RMS=6.14D-08 Max=4.09D-07 NDo=     1
 LinEq1:  Iter=  7 NonCon=     1 RMS=1.51D-08 Max=9.88D-08 NDo=     1
 LinEq1:  Iter=  8 NonCon=     1 RMS=4.13D-09 Max=2.88D-08 NDo=     1
 LinEq1:  Iter=  9 NonCon=     0 RMS=1.14D-09 Max=9.70D-09 NDo=     1
 Linear equations converged to 2.252D-09 2.252D-08 after     9 iterations.
     Accept linear search using points  2 and  3.
 LinEq1:  Iter=  0 NonCon=     1 RMS=1.50D-04 Max=1.36D-03 NDo=     1
 LinEq1:  Iter=  1 NonCon=     1 RMS=6.90D-05 Max=5.77D-04 NDo=     1
 LinEq1:  Iter=  2 NonCon=     1 RMS=2.09D-05 Max=1.49D-04 NDo=     1
 LinEq1:  Iter=  3 NonCon=     1 RMS=5.46D-06 Max=2.75D-05 NDo=     1
 LinEq1:  Iter=  4 NonCon=     1 RMS=1.21D-06 Max=6.47D-06 NDo=     1
 LinEq1:  Iter=  5 NonCon=     1 RMS=3.55D-07 Max=1.98D-06 NDo=     1
 LinEq1:  Iter=  6 NonCon=     1 RMS=1.04D-07 Max=6.40D-07 NDo=     1
 LinEq1:  Iter=  7 NonCon=     1 RMS=3.37D-08 Max=2.64D-07 NDo=     1
 LinEq1:  Iter=  8 NonCon=     1 RMS=1.06D-08 Max=6.61D-08 NDo=     1
 LinEq1:  Iter=  9 NonCon=     1 RMS=3.40D-09 Max=2.05D-08 NDo=     1
 LinEq1:  Iter= 10 NonCon=     0 RMS=8.75D-10 Max=4.41D-09 NDo=     1
 Linear equations converged to 2.252D-09 2.252D-08 after    10 iterations.
 LinEq1:  Iter=  0 NonCon=     1 RMS=2.60D-04 Max=1.68D-03 NDo=     1
 LinEq1:  Iter=  1 NonCon=     1 RMS=9.19D-05 Max=7.71D-04 NDo=     1
 LinEq1:  Iter=  2 NonCon=     1 RMS=2.96D-05 Max=1.77D-04 NDo=     1
 LinEq1:  Iter=  3 NonCon=     1 RMS=9.01D-06 Max=7.04D-05 NDo=     1
 LinEq1:  Iter=  4 NonCon=     1 RMS=2.86D-06 Max=3.22D-05 NDo=     1
 LinEq1:  Iter=  5 NonCon=     1 RMS=5.96D-07 Max=3.39D-06 NDo=     1
 LinEq1:  Iter=  6 NonCon=     1 RMS=1.47D-07 Max=1.27D-06 NDo=     1
 LinEq1:  Iter=  7 NonCon=     1 RMS=4.13D-08 Max=2.34D-07 NDo=     1
 LinEq1:  Iter=  8 NonCon=     1 RMS=9.29D-09 Max=5.08D-08 NDo=     1
 LinEq1:  Iter=  9 NonCon=     0 RMS=1.66D-09 Max=9.45D-09 NDo=     1
 Linear equations converged to 2.252D-09 2.252D-08 after     9 iterations.
 Incorrect curvature in search direction -- initial direction reversed.
     Accept linear search using points  2 and  3.
     Minimum is close to point  3 DX= -2.04D-02 DF= -7.84D-08 DXR=  1.15D-02 DFR=  2.56D-04 which will be used.
 Gradient too large for Newton-Raphson -- use scaled steepest descent instead.
 LinEq1:  Iter=  0 NonCon=     1 RMS=3.25D-04 Max=3.21D-03 NDo=     1
 LinEq1:  Iter=  1 NonCon=     1 RMS=1.36D-04 Max=1.31D-03 NDo=     1
 LinEq1:  Iter=  2 NonCon=     1 RMS=3.67D-05 Max=3.21D-04 NDo=     1
 LinEq1:  Iter=  3 NonCon=     1 RMS=1.16D-05 Max=1.24D-04 NDo=     1
 LinEq1:  Iter=  4 NonCon=     1 RMS=3.21D-06 Max=2.23D-05 NDo=     1
 LinEq1:  Iter=  5 NonCon=     1 RMS=7.57D-07 Max=5.58D-06 NDo=     1
 LinEq1:  Iter=  6 NonCon=     1 RMS=2.21D-07 Max=1.15D-06 NDo=     1
 LinEq1:  Iter=  7 NonCon=     1 RMS=5.35D-08 Max=5.34D-07 NDo=     1
 LinEq1:  Iter=  8 NonCon=     1 RMS=1.41D-08 Max=1.21D-07 NDo=     1
 LinEq1:  Iter=  9 NonCon=     1 RMS=4.50D-09 Max=2.38D-08 NDo=     1
 LinEq1:  Iter= 10 NonCon=     0 RMS=1.13D-09 Max=6.49D-09 NDo=     1
 Linear equations converged to 2.252D-09 2.252D-08 after    10 iterations.
     Accept linear search using points  1 and  2.
 LinEq1:  Iter=  0 NonCon=     1 RMS=1.35D-04 Max=1.26D-03 NDo=     1
 LinEq1:  Iter=  1 NonCon=     1 RMS=5.37D-05 Max=4.58D-04 NDo=     1
 LinEq1:  Iter=  2 NonCon=     1 RMS=1.54D-05 Max=9.77D-05 NDo=     1
 LinEq1:  Iter=  3 NonCon=     1 RMS=4.91D-06 Max=5.06D-05 NDo=     1
 LinEq1:  Iter=  4 NonCon=     1 RMS=1.45D-06 Max=9.39D-06 NDo=     1
 LinEq1:  Iter=  5 NonCon=     1 RMS=2.95D-07 Max=2.42D-06 NDo=     1
 LinEq1:  Iter=  6 NonCon=     1 RMS=1.03D-07 Max=5.69D-07 NDo=     1
 LinEq1:  Iter=  7 NonCon=     1 RMS=2.21D-08 Max=1.18D-07 NDo=     1
 LinEq1:  Iter=  8 NonCon=     1 RMS=4.88D-09 Max=3.13D-08 NDo=     1
 LinEq1:  Iter=  9 NonCon=     0 RMS=1.28D-09 Max=8.39D-09 NDo=     1
 Linear equations converged to 2.252D-09 2.252D-08 after     9 iterations.
     Accept linear search using points  1 and  2.
 LinEq1:  Iter=  0 NonCon=     1 RMS=6.32D-05 Max=6.30D-04 NDo=     1
 LinEq1:  Iter=  1 NonCon=     1 RMS=2.56D-05 Max=2.38D-04 NDo=     1
 LinEq1:  Iter=  2 NonCon=     1 RMS=7.85D-06 Max=5.21D-05 NDo=     1
 LinEq1:  Iter=  3 NonCon=     1 RMS=2.03D-06 Max=2.25D-05 NDo=     1
 LinEq1:  Iter=  4 NonCon=     1 RMS=5.79D-07 Max=4.44D-06 NDo=     1
 LinEq1:  Iter=  5 NonCon=     1 RMS=1.18D-07 Max=5.95D-07 NDo=     1
 LinEq1:  Iter=  6 NonCon=     1 RMS=3.79D-08 Max=3.49D-07 NDo=     1
 LinEq1:  Iter=  7 NonCon=     1 RMS=9.52D-09 Max=9.10D-08 NDo=     1
 LinEq1:  Iter=  8 NonCon=     1 RMS=3.00D-09 Max=3.24D-08 NDo=     1
 LinEq1:  Iter=  9 NonCon=     0 RMS=1.03D-09 Max=8.81D-09 NDo=     1
 Linear equations converged to 2.252D-09 2.252D-08 after     9 iterations.
 Incorrect curvature in search direction -- initial direction reversed.
     Minimum is close to point  3 DX= -1.87D-02 DF= -3.25D-09 DXR=  3.88D-02 DFR=  1.51D-03 which will be used.
 LinEq1:  Iter=  0 NonCon=     1 RMS=1.21D-04 Max=8.08D-04 NDo=     1
 LinEq1:  Iter=  1 NonCon=     1 RMS=5.06D-05 Max=4.26D-04 NDo=     1
 LinEq1:  Iter=  2 NonCon=     1 RMS=1.51D-05 Max=9.77D-05 NDo=     1
 LinEq1:  Iter=  3 NonCon=     1 RMS=3.94D-06 Max=2.76D-05 NDo=     1
 LinEq1:  Iter=  4 NonCon=     1 RMS=1.15D-06 Max=8.05D-06 NDo=     1
 LinEq1:  Iter=  5 NonCon=     1 RMS=2.27D-07 Max=1.40D-06 NDo=     1
 LinEq1:  Iter=  6 NonCon=     1 RMS=6.88D-08 Max=7.04D-07 NDo=     1
 LinEq1:  Iter=  7 NonCon=     1 RMS=1.90D-08 Max=2.19D-07 NDo=     1
 LinEq1:  Iter=  8 NonCon=     1 RMS=5.34D-09 Max=3.24D-08 NDo=     1
 LinEq1:  Iter=  9 NonCon=     0 RMS=8.30D-10 Max=5.52D-09 NDo=     1
 Linear equations converged to 2.252D-09 2.252D-08 after     9 iterations.
     Accept linear search using points  1 and  2.
 LinEq1:  Iter=  0 NonCon=     1 RMS=3.16D-05 Max=1.95D-04 NDo=     1
 LinEq1:  Iter=  1 NonCon=     1 RMS=1.31D-05 Max=1.11D-04 NDo=     1
 LinEq1:  Iter=  2 NonCon=     1 RMS=4.18D-06 Max=2.81D-05 NDo=     1
 LinEq1:  Iter=  3 NonCon=     1 RMS=1.12D-06 Max=8.62D-06 NDo=     1
 LinEq1:  Iter=  4 NonCon=     1 RMS=3.24D-07 Max=2.55D-06 NDo=     1
 LinEq1:  Iter=  5 NonCon=     1 RMS=7.73D-08 Max=3.65D-07 NDo=     1
 LinEq1:  Iter=  6 NonCon=     1 RMS=2.07D-08 Max=1.73D-07 NDo=     1
 LinEq1:  Iter=  7 NonCon=     1 RMS=5.56D-09 Max=6.87D-08 NDo=     1
 LinEq1:  Iter=  8 NonCon=     0 RMS=1.66D-09 Max=1.29D-08 NDo=     1
 Linear equations converged to 2.252D-09 2.252D-08 after     8 iterations.
 Incorrect curvature in search direction -- initial direction reversed.
 Gradient too large for Newton-Raphson -- use scaled steepest descent instead.
 LinEq1:  Iter=  0 NonCon=     1 RMS=7.61D-04 Max=6.34D-03 NDo=     1
 LinEq1:  Iter=  1 NonCon=     1 RMS=3.38D-04 Max=2.21D-03 NDo=     1
 LinEq1:  Iter=  2 NonCon=     1 RMS=6.98D-05 Max=5.99D-04 NDo=     1
 LinEq1:  Iter=  3 NonCon=     1 RMS=1.95D-05 Max=1.81D-04 NDo=     1
 LinEq1:  Iter=  4 NonCon=     1 RMS=5.55D-06 Max=3.18D-05 NDo=     1
 LinEq1:  Iter=  5 NonCon=     1 RMS=1.37D-06 Max=8.56D-06 NDo=     1
 LinEq1:  Iter=  6 NonCon=     1 RMS=4.04D-07 Max=2.61D-06 NDo=     1
 LinEq1:  Iter=  7 NonCon=     1 RMS=1.01D-07 Max=1.00D-06 NDo=     1
 LinEq1:  Iter=  8 NonCon=     1 RMS=3.37D-08 Max=3.40D-07 NDo=     1
 LinEq1:  Iter=  9 NonCon=     1 RMS=9.44D-09 Max=1.03D-07 NDo=     1
 LinEq1:  Iter= 10 NonCon=     0 RMS=1.88D-09 Max=1.64D-08 NDo=     1
 Linear equations converged to 2.252D-09 2.252D-08 after    10 iterations.
 LinEq1:  Iter=  0 NonCon=     1 RMS=6.80D-04 Max=5.66D-03 NDo=     1
 LinEq1:  Iter=  1 NonCon=     1 RMS=3.01D-04 Max=1.94D-03 NDo=     1
 LinEq1:  Iter=  2 NonCon=     1 RMS=6.29D-05 Max=6.02D-04 NDo=     1
 LinEq1:  Iter=  3 NonCon=     1 RMS=1.74D-05 Max=1.79D-04 NDo=     1
 LinEq1:  Iter=  4 NonCon=     1 RMS=4.67D-06 Max=2.58D-05 NDo=     1
 LinEq1:  Iter=  5 NonCon=     1 RMS=1.01D-06 Max=7.48D-06 NDo=     1
 LinEq1:  Iter=  6 NonCon=     1 RMS=2.83D-07 Max=1.74D-06 NDo=     1
 LinEq1:  Iter=  7 NonCon=     1 RMS=7.14D-08 Max=5.95D-07 NDo=     1
 LinEq1:  Iter=  8 NonCon=     1 RMS=2.29D-08 Max=1.88D-07 NDo=     1
 LinEq1:  Iter=  9 NonCon=     1 RMS=6.86D-09 Max=6.24D-08 NDo=     1
 LinEq1:  Iter= 10 NonCon=     0 RMS=1.14D-09 Max=1.04D-08 NDo=     1
 Linear equations converged to 2.252D-09 2.252D-08 after    10 iterations.
 Incorrect curvature in search direction -- initial direction reversed.
 LinEq1:  Iter=  0 NonCon=     1 RMS=7.69D-04 Max=6.12D-03 NDo=     1
 LinEq1:  Iter=  1 NonCon=     1 RMS=3.34D-04 Max=2.01D-03 NDo=     1
 LinEq1:  Iter=  2 NonCon=     1 RMS=7.20D-05 Max=5.66D-04 NDo=     1
 LinEq1:  Iter=  3 NonCon=     1 RMS=1.92D-05 Max=1.62D-04 NDo=     1
 LinEq1:  Iter=  4 NonCon=     1 RMS=5.58D-06 Max=3.17D-05 NDo=     1
 LinEq1:  Iter=  5 NonCon=     1 RMS=1.44D-06 Max=8.83D-06 NDo=     1
 LinEq1:  Iter=  6 NonCon=     1 RMS=3.87D-07 Max=2.48D-06 NDo=     1
 LinEq1:  Iter=  7 NonCon=     1 RMS=1.04D-07 Max=9.62D-07 NDo=     1
 LinEq1:  Iter=  8 NonCon=     1 RMS=3.19D-08 Max=3.19D-07 NDo=     1
 LinEq1:  Iter=  9 NonCon=     1 RMS=9.31D-09 Max=9.73D-08 NDo=     1
 LinEq1:  Iter= 10 NonCon=     0 RMS=1.86D-09 Max=1.61D-08 NDo=     1
 Linear equations converged to 2.252D-09 2.252D-08 after    10 iterations.
 LinEq1:  Iter=  0 NonCon=     1 RMS=6.22D-04 Max=4.52D-03 NDo=     1
 LinEq1:  Iter=  1 NonCon=     1 RMS=2.63D-04 Max=1.41D-03 NDo=     1
 LinEq1:  Iter=  2 NonCon=     1 RMS=5.91D-05 Max=5.49D-04 NDo=     1
 LinEq1:  Iter=  3 NonCon=     1 RMS=1.50D-05 Max=1.60D-04 NDo=     1
 LinEq1:  Iter=  4 NonCon=     1 RMS=4.10D-06 Max=2.47D-05 NDo=     1
 LinEq1:  Iter=  5 NonCon=     1 RMS=7.94D-07 Max=5.39D-06 NDo=     1
 LinEq1:  Iter=  6 NonCon=     1 RMS=1.46D-07 Max=6.55D-07 NDo=     1
 LinEq1:  Iter=  7 NonCon=     1 RMS=3.23D-08 Max=1.62D-07 NDo=     1
 LinEq1:  Iter=  8 NonCon=     1 RMS=9.54D-09 Max=7.20D-08 NDo=     1
 LinEq1:  Iter=  9 NonCon=     1 RMS=3.01D-09 Max=2.17D-08 NDo=     1
 LinEq1:  Iter= 10 NonCon=     0 RMS=5.76D-10 Max=3.66D-09 NDo=     1
 Linear equations converged to 2.252D-09 2.252D-08 after    10 iterations.
 Incorrect curvature in search direction -- initial direction reversed.
 Gradient too large for Newton-Raphson -- use scaled steepest descent instead.
 Gradient too large for Newton-Raphson -- use scaled steepest descent instead.
     Accept linear search using points  1 and  2.
 Gradient too large for Newton-Raphson -- use scaled steepest descent instead.
     Accept linear search using points  1 and  2.
 Gradient too large for Newton-Raphson -- use scaled steepest descent instead.
     Accept linear search using points  1 and  2.
 Gradient too large for Newton-Raphson -- use scaled steepest descent instead.
 Gradient too large for Newton-Raphson -- use scaled steepest descent instead.
 Gradient too large for Newton-Raphson -- use scaled steepest descent instead.
 LinEq1:  Iter=  0 NonCon=     1 RMS=7.87D-04 Max=4.68D-03 NDo=     1
 LinEq1:  Iter=  1 NonCon=     1 RMS=3.79D-04 Max=2.65D-03 NDo=     1
 LinEq1:  Iter=  2 NonCon=     1 RMS=2.24D-05 Max=1.35D-04 NDo=     1
 LinEq1:  Iter=  3 NonCon=     1 RMS=6.88D-06 Max=4.03D-05 NDo=     1
 LinEq1:  Iter=  4 NonCon=     1 RMS=9.54D-07 Max=6.73D-06 NDo=     1
 LinEq1:  Iter=  5 NonCon=     1 RMS=2.80D-07 Max=1.60D-06 NDo=     1
 LinEq1:  Iter=  6 NonCon=     1 RMS=6.06D-08 Max=4.74D-07 NDo=     1
 LinEq1:  Iter=  7 NonCon=     1 RMS=1.52D-08 Max=1.03D-07 NDo=     1
 LinEq1:  Iter=  8 NonCon=     1 RMS=4.17D-09 Max=3.03D-08 NDo=     1
 LinEq1:  Iter=  9 NonCon=     0 RMS=8.80D-10 Max=8.12D-09 NDo=     1
 Linear equations converged to 2.252D-09 2.252D-08 after     9 iterations.
 Incorrect curvature in search direction -- initial direction reversed.
 Gradient too large for Newton-Raphson -- use scaled steepest descent instead.
     Minimum is close to point  2 DX=  1.70D-01 DF= -2.97D-06 DXR=  8.23D-02 DFR=  6.82D-03 which will be used.
 LinEq1:  Iter=  0 NonCon=     1 RMS=8.69D-04 Max=5.20D-03 NDo=     1
 LinEq1:  Iter=  1 NonCon=     1 RMS=4.21D-04 Max=2.26D-03 NDo=     1
 LinEq1:  Iter=  2 NonCon=     1 RMS=1.45D-05 Max=8.43D-05 NDo=     1
 LinEq1:  Iter=  3 NonCon=     1 RMS=5.51D-06 Max=3.71D-05 NDo=     1
 LinEq1:  Iter=  4 NonCon=     1 RMS=6.00D-07 Max=3.66D-06 NDo=     1
 LinEq1:  Iter=  5 NonCon=     1 RMS=1.34D-07 Max=1.24D-06 NDo=     1
 LinEq1:  Iter=  6 NonCon=     1 RMS=3.34D-08 Max=1.96D-07 NDo=     1
 LinEq1:  Iter=  7 NonCon=     1 RMS=1.17D-08 Max=1.01D-07 NDo=     1
 LinEq1:  Iter=  8 NonCon=     1 RMS=2.55D-09 Max=1.33D-08 NDo=     1
 LinEq1:  Iter=  9 NonCon=     0 RMS=6.12D-10 Max=4.15D-09 NDo=     1
 Linear equations converged to 2.252D-09 2.252D-08 after     9 iterations.
 LinEq1:  Iter=  0 NonCon=     1 RMS=4.01D-04 Max=2.54D-03 NDo=     1
 LinEq1:  Iter=  1 NonCon=     1 RMS=1.54D-04 Max=8.85D-04 NDo=     1
 LinEq1:  Iter=  2 NonCon=     1 RMS=1.70D-05 Max=1.67D-04 NDo=     1
 LinEq1:  Iter=  3 NonCon=     1 RMS=2.24D-06 Max=1.37D-05 NDo=     1
 LinEq1:  Iter=  4 NonCon=     1 RMS=6.15D-07 Max=3.72D-06 NDo=     1
 LinEq1:  Iter=  5 NonCon=     1 RMS=1.56D-07 Max=9.22D-07 NDo=     1
 LinEq1:  Iter=  6 NonCon=     1 RMS=2.99D-08 Max=2.68D-07 NDo=     1
 LinEq1:  Iter=  7 NonCon=     1 RMS=7.67D-09 Max=6.40D-08 NDo=     1
 LinEq1:  Iter=  8 NonCon=     0 RMS=1.94D-09 Max=1.71D-08 NDo=     1
 Linear equations converged to 2.252D-09 2.252D-08 after     8 iterations.
     Accept linear search using points  1 and  2.
     Minimum is close to point  2 DX= -5.93D-02 DF= -5.03D-07 DXR=  6.30D-02 DFR=  4.15D-03 which will be used.
 LinEq1:  Iter=  0 NonCon=     1 RMS=2.06D-05 Max=1.69D-04 NDo=     1
 LinEq1:  Iter=  1 NonCon=     1 RMS=2.81D-06 Max=1.81D-05 NDo=     1
 LinEq1:  Iter=  2 NonCon=     1 RMS=5.85D-07 Max=3.49D-06 NDo=     1
 LinEq1:  Iter=  3 NonCon=     1 RMS=1.28D-07 Max=1.17D-06 NDo=     1
 LinEq1:  Iter=  4 NonCon=     1 RMS=2.91D-08 Max=1.41D-07 NDo=     1
 LinEq1:  Iter=  5 NonCon=     1 RMS=6.56D-09 Max=3.25D-08 NDo=     1
 LinEq1:  Iter=  6 NonCon=     0 RMS=1.48D-09 Max=9.89D-09 NDo=     1
 Linear equations converged to 2.154D-09 2.154D-08 after     6 iterations.
     Minimum is close to point  2 DX=  9.78D-03 DF= -7.04D-11 DXR=  9.68D-03 DFR=  9.37D-05 which will be used.
 LinEq1:  Iter=  0 NonCon=     1 RMS=4.88D-07 Max=3.21D-06 NDo=     1
 LinEq1:  Iter=  1 NonCon=     1 RMS=1.54D-07 Max=8.42D-07 NDo=     1
 LinEq1:  Iter=  2 NonCon=     1 RMS=2.99D-08 Max=1.78D-07 NDo=     1
 LinEq1:  Iter=  3 NonCon=     1 RMS=7.36D-09 Max=6.14D-08 NDo=     1
 LinEq1:  Iter=  4 NonCon=     1 RMS=1.57D-09 Max=1.32D-08 NDo=     1
 LinEq1:  Iter=  5 NonCon=     1 RMS=3.82D-10 Max=3.13D-09 NDo=     1
 LinEq1:  Iter=  6 NonCon=     0 RMS=7.11D-11 Max=4.99D-10 NDo=     1
 Linear equations converged to 8.393D-11 8.393D-10 after     6 iterations.
 SCF Done:  E(UAM1) =  0.592617386665     a.u. after   29 cycles
            Convg  =    0.2058D-06                   238 Fock formations.
              S**2 =  2.4865                  -V/T =  1.0087
 <Sx>= 0.0000 <Sy>= 0.0000 <Sz>= 0.5000 <S**2>= 2.4865 S= 1.1542
 <L.S>=  0.00000000000    
 Annihilation of the first spin contaminant:
 S**2 before annihilation     2.4865,   after     5.6750

 **********************************************************************

            Population analysis using the SCF Density.

 **********************************************************************

 Orbital symmetries:
 Alpha Orbitals:
       Occupied  (A') (A') (A') (A') (A') (A') (A') (A') (A") (A')
                 (A") (A') (A') (A') (A') (A") (A') (A")
       Virtual   (A') (A") (A') (A') (A") (A') (A') (A") (A') (A')
                 (A') (A') (A') (A')
 Beta  Orbitals:
       Occupied  (A') (A') (A') (A') (A') (A') (A') (A') (A") (A')
                 (A") (A') (A') (A') (A') (A") (A")
       Virtual   (A') (A') (A') (A') (A") (A") (A') (A') (A") (A')
                 (A') (A') (A') (A') (A')
 The electronic state is 2-A'.
 Alpha  occ. eigenvalues --   -1.40374  -1.35395  -1.10181  -1.08914  -0.81007
 Alpha  occ. eigenvalues --   -0.78551  -0.58447  -0.57854  -0.51528  -0.51205
 Alpha  occ. eigenvalues --   -0.44692  -0.44475  -0.44040  -0.43150  -0.38629
 Alpha  occ. eigenvalues --   -0.37760  -0.37548  -0.36787
 Alpha virt. eigenvalues --   -0.00226   0.02018   0.02211   0.03196   0.03624
 Alpha virt. eigenvalues --    0.04026   0.05898   0.10343   0.15452   0.15829
 Alpha virt. eigenvalues --    0.17721   0.18826   0.19028   0.20861
  Beta  occ. eigenvalues --   -1.39867  -1.35184  -1.09438  -1.07936  -0.79073
  Beta  occ. eigenvalues --   -0.77480  -0.59436  -0.57377  -0.51639  -0.47741
  Beta  occ. eigenvalues --   -0.45148  -0.44435  -0.43377  -0.40485  -0.38468
  Beta  occ. eigenvalues --   -0.37283  -0.35994
  Beta virt. eigenvalues --   -0.02580   0.02151   0.02446   0.02869   0.03382
  Beta virt. eigenvalues --    0.04139   0.04841   0.05409   0.10932   0.16086
  Beta virt. eigenvalues --    0.16317   0.18957   0.19230   0.19618   0.21317
          Condensed to atoms (all electrons):
               1          2          3          4          5          6
     1  C    4.027513   0.000000   0.000000   0.000000   0.000000   0.000000
     2  C    0.000000   4.132515   0.000000   0.000000   0.000000   0.000000
     3  C    0.000000   0.000000   4.117698   0.000000   0.000000   0.000000
     4  C    0.000000   0.000000   0.000000   4.119330   0.000000   0.000000
     5  C    0.000000   0.000000   0.000000   0.000000   4.131381   0.000000
     6  C    0.000000   0.000000   0.000000   0.000000   0.000000   4.039917
     7  Cl   0.000000   0.000000   0.000000   0.000000   0.000000   0.000000
     8  H    0.000000   0.000000   0.000000   0.000000   0.000000   0.000000
     9  H    0.000000   0.000000   0.000000   0.000000   0.000000   0.000000
    10  H    0.000000   0.000000   0.000000   0.000000   0.000000   0.000000
    11  H    0.000000   0.000000   0.000000   0.000000   0.000000   0.000000
               7          8          9         10         11
     1  C    0.000000   0.000000   0.000000   0.000000   0.000000
     2  C    0.000000   0.000000   0.000000   0.000000   0.000000
     3  C    0.000000   0.000000   0.000000   0.000000   0.000000
     4  C    0.000000   0.000000   0.000000   0.000000   0.000000
     5  C    0.000000   0.000000   0.000000   0.000000   0.000000
     6  C    0.000000   0.000000   0.000000   0.000000   0.000000
     7  Cl   7.029314   0.000000   0.000000   0.000000   0.000000
     8  H    0.000000   0.851413   0.000000   0.000000   0.000000
     9  H    0.000000   0.000000   0.856552   0.000000   0.000000
    10  H    0.000000   0.000000   0.000000   0.868326   0.000000
    11  H    0.000000   0.000000   0.000000   0.000000   0.826040
          Atomic-Atomic Spin Densities.
               1          2          3          4          5          6
     1  C    1.533831   0.000000   0.000000   0.000000   0.000000   0.000000
     2  C    0.000000  -1.057079   0.000000   0.000000   0.000000   0.000000
     3  C    0.000000   0.000000   1.062286   0.000000   0.000000   0.000000
     4  C    0.000000   0.000000   0.000000  -1.061075   0.000000   0.000000
     5  C    0.000000   0.000000   0.000000   0.000000   1.008820   0.000000
     6  C    0.000000   0.000000   0.000000   0.000000   0.000000  -0.611803
     7  Cl   0.000000   0.000000   0.000000   0.000000   0.000000   0.000000
     8  H    0.000000   0.000000   0.000000   0.000000   0.000000   0.000000
     9  H    0.000000   0.000000   0.000000   0.000000   0.000000   0.000000
    10  H    0.000000   0.000000   0.000000   0.000000   0.000000   0.000000
    11  H    0.000000   0.000000   0.000000   0.000000   0.000000   0.000000
               7          8          9         10         11
     1  C    0.000000   0.000000   0.000000   0.000000   0.000000
     2  C    0.000000   0.000000   0.000000   0.000000   0.000000
     3  C    0.000000   0.000000   0.000000   0.000000   0.000000
     4  C    0.000000   0.000000   0.000000   0.000000   0.000000
     5  C    0.000000   0.000000   0.000000   0.000000   0.000000
     6  C    0.000000   0.000000   0.000000   0.000000   0.000000
     7  Cl   0.008008   0.000000   0.000000   0.000000   0.000000
     8  H    0.000000   0.491681   0.000000   0.000000   0.000000
     9  H    0.000000   0.000000  -0.461948   0.000000   0.000000
    10  H    0.000000   0.000000   0.000000   0.503859   0.000000
    11  H    0.000000   0.000000   0.000000   0.000000  -0.416580
 Mulliken charges and spin densities:
               1          2
     1  C   -0.027513   1.533831
     2  C   -0.132515  -1.057079
     3  C   -0.117698   1.062286
     4  C   -0.119330  -1.061075
     5  C   -0.131381   1.008820
     6  C   -0.039917  -0.611803
     7  Cl  -0.029314   0.008008
     8  H    0.148587   0.491681
     9  H    0.143448  -0.461948
    10  H    0.131674   0.503859
    11  H    0.173960  -0.416580
 Sum of Mulliken charges =  -0.00000   1.00000
 Mulliken charges and spin densities with hydrogens summed into heavy atoms:
               1          2
     1  C   -0.027513   1.533831
     2  C    0.016071  -0.565398
     3  C    0.025750   0.600338
     4  C    0.012344  -0.557215
     5  C    0.042579   0.592240
     6  C   -0.039917  -0.611803
     7  Cl  -0.029314   0.008008
 Charge=              0.0000 electrons
 Dipole moment (field-independent basis, Debye):
    X=              2.7367    Y=             -0.0339    Z=             -0.0000  Tot=              2.7370
 N-N= 1.472898974327D+02 E-N=-2.020197629329D+02  KE=-6.786580183977D+01
 Symmetry A'   KE=-5.309070780090D+01
 Symmetry A"   KE=-1.477509403887D+01
 Symmetry A'   SP= 1.000000000000D+00
 Symmetry A"   SP=-5.551115123126D-17
 Calling FoFJK, ICntrl=      2127 FMM=F ISym2X=1 I1Cent= 0 IOpClX= 1 NMat=1 NMatS=1 NMatT=0.
 ***** Axes restored to original set *****
 -------------------------------------------------------------------
 Center     Atomic                   Forces (Hartrees/Bohr)
 Number     Number              X              Y              Z
 -------------------------------------------------------------------
      1        6           0.065181319   -0.006441856    0.000000000
      2        6          -0.012314734    0.056190587   -0.000000000
      3        6           0.048340366    0.029746820   -0.000000000
      4        6           0.045688809   -0.024703941   -0.000000000
      5        6           0.024120642   -0.062332248   -0.000000000
      6        6          -0.036334378   -0.012376109   -0.000000000
      7       17           0.032825689    0.019618003   -0.000000000
      8        1           0.002058062   -0.094647581    0.000000000
      9        1          -0.083371521   -0.050920282    0.000000000
     10        1          -0.082423521    0.044589780    0.000000000
     11        1          -0.003770734    0.101276826    0.000000000
 -------------------------------------------------------------------
 Cartesian Forces:  Max     0.101276826 RMS     0.042096786

 GradGradGradGradGradGradGradGradGradGradGradGradGradGradGradGradGradGrad
 Berny optimization.
 FormGI is forming the generalized inverse of G from B-inverse, IUseBI=4.
 Internal  Forces:  Max     0.101342184 RMS     0.032111604
 Search for a local minimum.
 Step number   1 out of a maximum of   57
 All quantities printed in internal units (Hartrees-Bohrs-Radians)
 Mixed Optimization -- RFO/linear search
 Second derivative matrix not updated -- first step.
 ITU=  0
     Eigenvalues ---    0.02011   0.02011   0.02011   0.02011   0.02011
     Eigenvalues ---    0.02011   0.02011   0.02011   0.06524   0.06524
     Eigenvalues ---    0.06524   0.06524   0.16000   0.16000   0.16000
     Eigenvalues ---    0.16000   0.22000   0.22408   0.24406   0.25000
     Eigenvalues ---    0.29033   0.40825   0.41341   0.44656   0.44657
     Eigenvalues ---    0.44657   0.44657
 RFO step:  Lambda=-1.75145897D-01 EMin= 2.01065791D-02
 Linear search not attempted -- first point.
 Maximum step size (   0.300) exceeded in Quadratic search.
    -- Step size scaled by   0.363
 Iteration  1 RMS(Cart)=  0.04866079 RMS(Int)=  0.00003607
 Iteration  2 RMS(Cart)=  0.00005349 RMS(Int)=  0.00000528
 Iteration  3 RMS(Cart)=  0.00000000 RMS(Int)=  0.00000528
 ClnCor:  largest displacement from symmetrization is 1.77D-08 for atom     7.
 Variable       Old X    -DE/DX   Delta X   Delta X   Delta X     New X
                                 (Linear)    (Quad)   (Total)
    R1        2.65676  -0.05194   0.00000  -0.03046  -0.03046   2.62631
    R2        2.65677  -0.02785   0.00000  -0.01607  -0.01607   2.64070
    R3        2.65677  -0.04161   0.00000  -0.02461  -0.02461   2.63215
    R4        3.33634  -0.09467   0.00000  -0.14292  -0.14292   3.19343
    R5        2.65677  -0.03875   0.00000  -0.02280  -0.02280   2.63396
    R6        3.33633  -0.09769   0.00000  -0.14748  -0.14748   3.18885
    R7        2.65678  -0.03875   0.00000  -0.02247  -0.02248   2.63430
    R8        3.33633  -0.09371   0.00000  -0.14147  -0.14147   3.19486
    R9        2.65675  -0.02153   0.00000  -0.01224  -0.01224   2.64451
   R10        3.33632  -0.10134   0.00000  -0.15299  -0.15299   3.18333
   R11        3.33633  -0.03824   0.00000  -0.02981  -0.02981   3.30652
    A1        2.09439   0.01568   0.00000   0.01344   0.01346   2.10786
    A2        2.09439  -0.00314   0.00000  -0.00366  -0.00365   2.09074
    A3        2.09440   0.00067   0.00000   0.00085   0.00085   2.09525
    A4        2.09439   0.00247   0.00000   0.00281   0.00280   2.09720
    A5        2.09440   0.00058   0.00000  -0.00030  -0.00031   2.09409
    A6        2.09440  -0.00074   0.00000  -0.00034  -0.00034   2.09406
    A7        2.09439   0.00016   0.00000   0.00064   0.00064   2.09503
    A8        2.09439   0.00339   0.00000   0.00304   0.00303   2.09742
    A9        2.09440  -0.00166   0.00000  -0.00148  -0.00147   2.09293
   A10        2.09440  -0.00173   0.00000  -0.00156  -0.00155   2.09284
   A11        2.09439   0.00142   0.00000   0.00204   0.00203   2.09643
   A12        2.09439   0.00094   0.00000   0.00076   0.00077   2.09515
   A13        2.09440  -0.00236   0.00000  -0.00281  -0.00280   2.09160
   A14        2.09440  -0.01794   0.00000  -0.01457  -0.01457   2.07983
   A15        2.09439   0.00976   0.00000   0.00796   0.00796   2.10235
   A16        2.09439   0.00818   0.00000   0.00661   0.00661   2.10100
    D1       -0.00000  -0.00000   0.00000   0.00000   0.00000   0.00000
    D2        3.14159   0.00000   0.00000   0.00000   0.00000   3.14159
    D3        0.00000   0.00000   0.00000   0.00000   0.00000   0.00000
    D4        3.14159  -0.00000   0.00000  -0.00000   0.00000   3.14159
    D5        0.00000  -0.00000   0.00000  -0.00000  -0.00000   0.00000
    D6        3.14159   0.00000   0.00000   0.00000   0.00000   3.14159
    D7        3.14159  -0.00000   0.00000  -0.00000   0.00000   3.14159
    D8       -0.00000  -0.00000   0.00000  -0.00000   0.00000   0.00000
    D9       -0.00000   0.00000   0.00000   0.00000   0.00000   0.00000
   D10        3.14159   0.00000   0.00000   0.00000   0.00000   3.14159
   D11        3.14159  -0.00000   0.00000  -0.00000   0.00000   3.14159
   D12       -0.00000   0.00000   0.00000   0.00000   0.00000   0.00000
   D13        0.00000   0.00000   0.00000   0.00000  -0.00000   0.00000
   D14        3.14159   0.00000   0.00000   0.00000   0.00000   3.14159
   D15        3.14159  -0.00000   0.00000  -0.00000   0.00000   3.14159
   D16        0.00000   0.00000   0.00000   0.00000  -0.00000   0.00000
   D17       -0.00000  -0.00000   0.00000  -0.00000   0.00000   0.00000
   D18        3.14159   0.00000   0.00000  -0.00000   0.00000   3.14159
   D19        3.14159  -0.00000   0.00000  -0.00000   0.00000   3.14159
   D20       -0.00000  -0.00000   0.00000  -0.00000   0.00000   0.00000
         Item               Value     Threshold  Converged?
 Maximum Force            0.101342     0.000450     NO 
 RMS     Force            0.032112     0.000300     NO 
 Maximum Displacement     0.170597     0.001800     NO 
 RMS     Displacement     0.048672     0.001200     NO 
 Predicted change in Energy=-5.990846D-02
 GradGradGradGradGradGradGradGradGradGradGradGradGradGradGradGradGradGrad

                          Input orientation:                          
 ---------------------------------------------------------------------
 Center     Atomic      Atomic             Coordinates (Angstroms)
 Number     Number       Type             X           Y           Z
 ---------------------------------------------------------------------
      1          6           0       -3.178757    0.192689   -0.000000
      2          6           0       -1.996736    0.923661   -0.000000
      3          6           0       -0.772379    0.259544   -0.000000
      4          6           0       -0.735740   -1.133807   -0.000000
      5          6           0       -1.922043   -1.865893   -0.000000
      6          6           0       -3.155304   -1.204512    0.000000
      7         17           0       -4.648515   -2.116596    0.000000
      8          1           0       -2.046405    2.612819   -0.000000
      9          1           0        0.665764    1.142321   -0.000000
     10          1           0        0.751300   -1.938171   -0.000000
     11          1           0       -1.873954   -3.549754    0.000000
 ---------------------------------------------------------------------
                    Distance matrix (angstroms):
                    1          2          3          4          5
     1  C    0.000000
     2  C    1.389781   0.000000
     3  C    2.407306   1.392875   0.000000
     4  C    2.779915   2.413148   1.393833   0.000000
     5  C    2.411865   2.790554   2.416446   1.394010   0.000000
     6  C    1.397398   2.423097   2.796746   2.420597   1.399413
     7  Cl   2.737332   4.034240   4.546479   4.034313   2.737974
     8  H    2.671937   1.689888   2.676013   3.969263   4.480438
     9  H    3.960069   2.671464   1.687469   2.673008   3.968135
    10  H    4.470561   3.967592   2.674238   1.690648   2.674320
    11  H    3.963382   4.475099   3.965377   2.670642   1.684547
                    6          7          8          9         10
     6  C    0.000000
     7  Cl   1.749736   0.000000
     8  H    3.975131   5.397994   0.000000
     9  H    4.484215   6.233948   3.085162   0.000000
    10  H    3.974898   5.402762   5.342159   3.081679   0.000000
    11  H    2.672455   3.122840   6.164985   5.335329   3.080448
                   11
    11  H    0.000000
 Stoichiometry    C6H4Cl(2)
 Framework group  CS[SG(C6H4Cl)]
 Deg. of freedom    19
 Full point group                 CS      NOp   2
 Largest Abelian subgroup         CS      NOp   2
 Largest concise Abelian subgroup C1      NOp   1
                         Standard orientation:                         
 ---------------------------------------------------------------------
 Center     Atomic      Atomic             Coordinates (Angstroms)
 Number     Number       Type             X           Y           Z
 ---------------------------------------------------------------------
      1          6           0       -1.258561   -0.062039    0.000000
      2          6           0       -1.380037   -1.446501    0.000000
      3          6           0       -0.236350   -2.241536    0.000000
      4          6           0        1.024701   -1.647801    0.000000
      5          6           0        1.145247   -0.259012    0.000000
      6          6           0        0.000000    0.545205    0.000000
      7         17           0        0.143337    2.289061    0.000000
      8          1           0       -2.911168   -2.161596    0.000000
      9          1           0       -0.378267   -3.923027    0.000000
     10          1           0        2.411765   -2.614415    0.000000
     11          1           0        2.670936    0.455111    0.000000
 ---------------------------------------------------------------------
 Rotational constants (GHZ):           5.5332660           1.5133627           1.1883467
 Standard basis: VSTO-6G (5D, 7F)
 There are    25 symmetry adapted cartesian basis functions of A'  symmetry.
 There are     7 symmetry adapted cartesian basis functions of A"  symmetry.
 There are    25 symmetry adapted basis functions of A'  symmetry.
 There are     7 symmetry adapted basis functions of A"  symmetry.
    32 basis functions,   192 primitive gaussians,    32 cartesian basis functions
    18 alpha electrons       17 beta electrons
       nuclear repulsion energy       148.3028705354 Hartrees.
 Integral buffers will be    131072 words long.
 Regular integral format.
 Two-electron integral symmetry is turned off.
 Do NDO integrals.
 One-electron integrals computed using PRISM.
 NBasis=    32 RedAO= T EigKep=  1.00D+00  NBF=    25     7
 NBsUse=    32 1.00D-06 EigRej= -1.00D+00 NBFU=    25     7
 Initial guess from the checkpoint file:  "geometry_chks/12-1_-ClBzNeutralRadical.chk"
 B after Tr=     0.000000    0.000000    0.000000
         Rot=    0.844307    0.000000    0.000000    0.535860 Ang=  64.80 deg.
 Initial guess orbital symmetries:
 Alpha Orbitals:
       Occupied  (A') (A') (A') (A') (A') (A') (A') (A') (A") (A')
                 (A") (A') (A') (A') (A') (A") (A') (A")
       Virtual   (A') (A") (A') (A') (A") (A') (A') (A") (A') (A')
                 (A') (A') (A') (A')
 Beta  Orbitals:
       Occupied  (A') (A') (A') (A') (A') (A') (A') (A') (A") (A')
                 (A") (A') (A') (A') (A') (A") (A")
       Virtual   (A') (A') (A') (A') (A") (A") (A') (A') (A") (A')
                 (A') (A') (A') (A') (A')
 Initial guess <Sx>= 0.0000 <Sy>= 0.0000 <Sz>= 0.5000 <S**2>= 2.4865 S= 1.1542
 Keep J ints in memory in canonical form, NReq=862079.
 Overlap will be assumed to be unity.
 Requested convergence on RMS density matrix=1.00D-08 within  32 cycles.
 Requested convergence on MAX density matrix=1.00D-06.
 Requested convergence on             energy=1.00D-06.
 No special actions if energy rises.
 Fock symm off for IB=2 I1=    1 I=   26 J=    9 Cut=1.00D-07 Err=1.39D-03
 Fock matrix is not symmetric: symmetry in diagonalization turned off.
 SCF Done:  E(UAM1) =  0.524626262567     A.U. after   26 cycles
            NFock= 25  Conv=0.22D-08     -V/T= 1.0077
 <Sx>= 0.0000 <Sy>= 0.0000 <Sz>= 0.5000 <S**2>= 1.6589 S= 0.8816
 <L.S>=  0.00000000000    
 Annihilation of the first spin contaminant:
 S**2 before annihilation     1.6589,   after     1.8977
 QCSCF skips out because SCF is already converged.
 Calling FoFJK, ICntrl=      2127 FMM=F ISym2X=1 I1Cent= 0 IOpClX= 1 NMat=1 NMatS=1 NMatT=0.
 ***** Axes restored to original set *****
 -------------------------------------------------------------------
 Center     Atomic                   Forces (Hartrees/Bohr)
 Number     Number              X              Y              Z
 -------------------------------------------------------------------
      1        6           0.047271744   -0.006205664   -0.000000000
      2        6          -0.013367567    0.093595785   -0.000000000
      3        6           0.080427743    0.048213779   -0.000000000
      4        6           0.076725807   -0.042814376   -0.000000000
      5        6           0.019013682   -0.094302044   -0.000000000
      6        6          -0.036347125   -0.012682532   -0.000000000
      7       17           0.026221398    0.015496292    0.000000000
      8        1           0.002537363   -0.112197045    0.000000000
      9        1          -0.099067987   -0.060471248    0.000000000
     10        1          -0.098904860    0.053355003    0.000000000
     11        1          -0.004510198    0.118012050    0.000000000
 -------------------------------------------------------------------
 Cartesian Forces:  Max     0.118012050 RMS     0.052809297

 GradGradGradGradGradGradGradGradGradGradGradGradGradGradGradGradGradGrad
 Berny optimization.
 Using GEDIIS/GDIIS optimizer.
 FormGI is forming the generalized inverse of G from B-inverse, IUseBI=4.
 Internal  Forces:  Max     0.118092707 RMS     0.034857804
 Search for a local minimum.
 Step number   2 out of a maximum of   57
 All quantities printed in internal units (Hartrees-Bohrs-Radians)
 Mixed Optimization -- RFO/linear search
 Update second derivatives using D2CorX and points    1    2
 DE= -6.80D-02 DEPred=-5.99D-02 R= 1.13D+00
 TightC=F SS=  1.41D+00  RLast= 3.00D-01 DXNew= 5.0454D-01 9.0000D-01
 Trust test= 1.13D+00 RLast= 3.00D-01 DXMaxT set to 5.05D-01
 ITU=  1  0
 Use linear search instead of GDIIS.
     Eigenvalues ---   -0.18483   0.02011   0.02011   0.02011   0.02011
     Eigenvalues ---    0.02011   0.02011   0.02011   0.02011   0.06471
     Eigenvalues ---    0.06524   0.06524   0.15845   0.15998   0.16000
     Eigenvalues ---    0.16000   0.16109   0.22000   0.22402   0.24833
     Eigenvalues ---    0.25003   0.30957   0.40975   0.41278   0.44639
     Eigenvalues ---    0.44656   0.44657
 RFO step:  Lambda=-3.21307069D-01 EMin=-1.84828057D-01
 Skip linear search -- no minimum in search direction.
 Maximum step size (   0.505) exceeded in Quadratic search.
    -- Step size scaled by   0.486
 Iteration  1 RMS(Cart)=  0.05067539 RMS(Int)=  0.01486653
 Iteration  2 RMS(Cart)=  0.01434820 RMS(Int)=  0.00000770
 Iteration  3 RMS(Cart)=  0.00000385 RMS(Int)=  0.00000742
 Iteration  4 RMS(Cart)=  0.00000000 RMS(Int)=  0.00000742
 ClnCor:  largest displacement from symmetrization is 6.51D-09 for atom     5.
 Variable       Old X    -DE/DX   Delta X   Delta X   Delta X     New X
                                 (Linear)    (Quad)   (Total)
    R1        2.62631  -0.03281   0.00000   0.01278   0.01279   2.63910
    R2        2.64070  -0.01677   0.00000   0.00941   0.00941   2.65011
    R3        2.63215  -0.02274   0.00000   0.02279   0.02279   2.65495
    R4        3.19343  -0.11222   0.00000  -0.24586  -0.24586   2.94757
    R5        2.63396  -0.02061   0.00000   0.02325   0.02324   2.65721
    R6        3.18885  -0.11607   0.00000  -0.25520  -0.25520   2.93365
    R7        2.63430  -0.02180   0.00000   0.01889   0.01887   2.65317
    R8        3.19486  -0.11238   0.00000  -0.25082  -0.25082   2.94404
    R9        2.64451  -0.01083   0.00000   0.01463   0.01462   2.65913
   R10        3.18333  -0.11809   0.00000  -0.25140  -0.25140   2.93194
   R11        3.30652  -0.03045   0.00000  -0.01380  -0.01380   3.29273
    A1        2.10786   0.01577   0.00000   0.01968   0.01970   2.12756
    A2        2.09074  -0.00460   0.00000  -0.01046  -0.01044   2.08031
    A3        2.09525   0.00108   0.00000   0.00239   0.00238   2.09762
    A4        2.09720   0.00351   0.00000   0.00807   0.00806   2.10526
    A5        2.09409  -0.00062   0.00000  -0.00386  -0.00385   2.09024
    A6        2.09406  -0.00015   0.00000   0.00124   0.00124   2.09530
    A7        2.09503   0.00077   0.00000   0.00262   0.00261   2.09765
    A8        2.09742   0.00306   0.00000   0.00354   0.00353   2.10094
    A9        2.09293  -0.00133   0.00000  -0.00089  -0.00088   2.09205
   A10        2.09284  -0.00173   0.00000  -0.00265  -0.00265   2.09019
   A11        2.09643   0.00142   0.00000   0.00169   0.00167   2.09810
   A12        2.09515   0.00110   0.00000   0.00230   0.00231   2.09747
   A13        2.09160  -0.00252   0.00000  -0.00400  -0.00399   2.08762
   A14        2.07983  -0.01503   0.00000  -0.01061  -0.01062   2.06922
   A15        2.10235   0.00825   0.00000   0.00606   0.00606   2.10841
   A16        2.10100   0.00678   0.00000   0.00455   0.00455   2.10555
    D1        0.00000   0.00000   0.00000   0.00000   0.00000   0.00000
    D2        3.14159   0.00000   0.00000   0.00000   0.00000   3.14159
    D3        0.00000  -0.00000   0.00000  -0.00000   0.00000   0.00000
    D4        3.14159  -0.00000   0.00000  -0.00000   0.00000   3.14159
    D5        0.00000  -0.00000   0.00000   0.00000   0.00000   0.00000
    D6        3.14159   0.00000   0.00000   0.00000   0.00000   3.14159
    D7        3.14159  -0.00000   0.00000  -0.00000   0.00000   3.14159
    D8        0.00000  -0.00000   0.00000  -0.00000   0.00000   0.00000
    D9        0.00000  -0.00000   0.00000  -0.00000   0.00000   0.00000
   D10        3.14159   0.00000   0.00000   0.00000   0.00000   3.14159
   D11        3.14159  -0.00000   0.00000  -0.00000   0.00000   3.14159
   D12        0.00000  -0.00000   0.00000  -0.00000   0.00000   0.00000
   D13        0.00000   0.00000   0.00000   0.00000   0.00000   0.00000
   D14        3.14159   0.00000   0.00000   0.00000   0.00000   3.14159
   D15        3.14159  -0.00000   0.00000  -0.00000   0.00000   3.14159
   D16        0.00000  -0.00000   0.00000  -0.00000   0.00000   0.00000
   D17        0.00000  -0.00000   0.00000   0.00000   0.00000   0.00000
   D18        3.14159   0.00000   0.00000   0.00000   0.00000   3.14159
   D19        3.14159  -0.00000   0.00000  -0.00000   0.00000   3.14159
   D20        0.00000   0.00000   0.00000   0.00000   0.00000   0.00000
         Item               Value     Threshold  Converged?
 Maximum Force            0.118093     0.000450     NO 
 RMS     Force            0.034858     0.000300     NO 
 Maximum Displacement     0.234072     0.001800     NO 
 RMS     Displacement     0.064812     0.001200     NO 
 Predicted change in Energy=-1.343176D-01
 GradGradGradGradGradGradGradGradGradGradGradGradGradGradGradGradGradGrad

                          Input orientation:                          
 ---------------------------------------------------------------------
 Center     Atomic      Atomic             Coordinates (Angstroms)
 Number     Number       Type             X           Y           Z
 ---------------------------------------------------------------------
      1          6           0       -3.154819    0.190979   -0.000000
      2          6           0       -1.974673    0.937711   -0.000000
      3          6           0       -0.739801    0.267681   -0.000000
      4          6           0       -0.708438   -1.138101   -0.000000
      5          6           0       -1.903576   -1.874890   -0.000000
      6          6           0       -3.144462   -1.211362   -0.000000
      7         17           0       -4.634463   -2.114678   -0.000000
      8          1           0       -2.032876    2.496412   -0.000000
      9          1           0        0.584361    1.077998   -0.000000
     10          1           0        0.659556   -1.883563   -0.000000
     11          1           0       -1.863579   -3.425888   -0.000000
 ---------------------------------------------------------------------
                    Distance matrix (angstroms):
                    1          2          3          4          5
     1  C    0.000000
     2  C    1.396550   0.000000
     3  C    2.416235   1.404937   0.000000
     4  C    2.784103   2.431532   1.406132   0.000000
     5  C    2.415247   2.813499   2.438233   1.403998   0.000000
     6  C    1.402379   2.446819   2.823112   2.437126   1.407149
     7  Cl   2.739598   4.048649   4.565526   4.045661   2.741395
     8  H    2.563938   1.559787   2.576681   3.868310   4.373213
     9  H    3.842950   2.562876   1.552423   2.565624   3.861266
    10  H    4.342024   3.859890   2.566330   1.557921   2.563146
    11  H    3.840446   4.365014   3.860743   2.562873   1.551514
                    6          7          8          9         10
     6  C    0.000000
     7  Cl   1.742436   0.000000
     8  H    3.870815   5.294374   0.000000
     9  H    4.375533   6.117949   2.976882   0.000000
    10  H    3.862953   5.299061   5.141339   2.962515   0.000000
    11  H    2.558279   3.065465   5.924719   5.126149   2.957190
                   11
    11  H    0.000000
 Stoichiometry    C6H4Cl(2)
 Framework group  CS[SG(C6H4Cl)]
 Deg. of freedom    19
 Full point group                 CS      NOp   2
 Largest Abelian subgroup         CS      NOp   2
 Largest concise Abelian subgroup C1      NOp   1
                         Standard orientation:                         
 ---------------------------------------------------------------------
 Center     Atomic      Atomic             Coordinates (Angstroms)
 Number     Number       Type             X           Y           Z
 ---------------------------------------------------------------------
      1          6           0       -1.252285   -0.078237    0.000000
      2          6           0       -1.377631   -1.469151    0.000000
      3          6           0       -0.217598   -2.261724    0.000000
      4          6           0        1.047343   -1.647613    0.000000
      5          6           0        1.156995   -0.247903    0.000000
      6          6           0        0.000000    0.552990    0.000000
      7         17           0        0.123137    2.291069    0.000000
      8          1           0       -2.790870   -2.129221    0.000000
      9          1           0       -0.333739   -3.809797    0.000000
     10          1           0        2.335277   -2.524165    0.000000
     11          1           0        2.555067    0.424846    0.000000
 ---------------------------------------------------------------------
 Rotational constants (GHZ):           5.5943194           1.5115215           1.1899977
 Standard basis: VSTO-6G (5D, 7F)
 There are    25 symmetry adapted cartesian basis functions of A'  symmetry.
 There are     7 symmetry adapted cartesian basis functions of A"  symmetry.
 There are    25 symmetry adapted basis functions of A'  symmetry.
 There are     7 symmetry adapted basis functions of A"  symmetry.
    32 basis functions,   192 primitive gaussians,    32 cartesian basis functions
    18 alpha electrons       17 beta electrons
       nuclear repulsion energy       148.7254158263 Hartrees.
 Integral buffers will be    131072 words long.
 Regular integral format.
 Two-electron integral symmetry is turned off.
 Do NDO integrals.
 One-electron integrals computed using PRISM.
 NBasis=    32 RedAO= T EigKep=  1.00D+00  NBF=    25     7
 NBsUse=    32 1.00D-06 EigRej= -1.00D+00 NBFU=    25     7
 Initial guess from the checkpoint file:  "geometry_chks/12-1_-ClBzNeutralRadical.chk"
 B after Tr=    -0.000000   -0.000000    0.000000
         Rot=    0.999991   -0.000000   -0.000000   -0.004303 Ang=  -0.49 deg.
 Initial guess orbital symmetries:
 Alpha Orbitals:
       Occupied  (A') (A') (A') (A') (A') (A') (A') (A') (A") (A')
                 (A') (A") (A') (A') (A') (A") (A') (A")
       Virtual   (A') (A") (A') (A") (A') (A') (A') (A") (A') (A')
                 (A') (A') (A') (A')
 Beta  Orbitals:
       Occupied  (A') (A') (A') (A') (A') (A') (A') (A') (A") (A')
                 (A") (A') (A') (A') (A') (A") (A")
       Virtual   (A') (A') (A") (A') (A') (A") (A') (A') (A") (A')
                 (A') (A') (A') (A') (A')
 Initial guess <Sx>= 0.0000 <Sy>= 0.0000 <Sz>= 0.5000 <S**2>= 1.6589 S= 0.8816
 Keep J ints in memory in canonical form, NReq=862079.
 Overlap will be assumed to be unity.
 Requested convergence on RMS density matrix=1.00D-08 within  32 cycles.
 Requested convergence on MAX density matrix=1.00D-06.
 Requested convergence on             energy=1.00D-06.
 No special actions if energy rises.
 Fock symm off for IB=2 I1=    1 I=   26 J=   13 Cut=1.00D-07 Err=4.39D-04
 Fock matrix is not symmetric: symmetry in diagonalization turned off.
 SCF Done:  E(UAM1) =  0.405722787825     A.U. after   21 cycles
            NFock= 20  Conv=0.89D-08     -V/T= 1.0059
 <Sx>= 0.0000 <Sy>= 0.0000 <Sz>= 0.5000 <S**2>= 1.3344 S= 0.7587
 <L.S>=  0.00000000000    
 Annihilation of the first spin contaminant:
 S**2 before annihilation     1.3344,   after     1.0805
 QCSCF skips out because SCF is already converged.
 Calling FoFJK, ICntrl=      2127 FMM=F ISym2X=1 I1Cent= 0 IOpClX= 1 NMat=1 NMatS=1 NMatT=0.
 ***** Axes restored to original set *****
 -------------------------------------------------------------------
 Center     Atomic                   Forces (Hartrees/Bohr)
 Number     Number              X              Y              Z
 -------------------------------------------------------------------
      1        6           0.050200986   -0.011077126   -0.000000000
      2        6          -0.010810615    0.094018998   -0.000000000
      3        6           0.075412856    0.044391155   -0.000000000
      4        6           0.076805223   -0.041393085   -0.000000000
      5        6           0.017755470   -0.090759710   -0.000000000
      6        6          -0.022567218   -0.004426816   -0.000000000
      7       17           0.024629308    0.014538735    0.000000000
      8        1           0.003918964   -0.121464011    0.000000000
      9        1          -0.104441057   -0.063602303    0.000000000
     10        1          -0.106957959    0.058083397    0.000000000
     11        1          -0.003945958    0.121690765    0.000000000
 -------------------------------------------------------------------
 Cartesian Forces:  Max     0.121690765 RMS     0.053972151

 GradGradGradGradGradGradGradGradGradGradGradGradGradGradGradGradGradGrad
 Berny optimization.
 Using GEDIIS/GDIIS optimizer.
 FormGI is forming the generalized inverse of G from B-inverse, IUseBI=4.
 Internal  Forces:  Max     0.122282940 RMS     0.037600988
 Search for a local minimum.
 Step number   3 out of a maximum of   57
 All quantities printed in internal units (Hartrees-Bohrs-Radians)
 Mixed Optimization -- RFO/linear search
 Update second derivatives using D2CorX and points    2    3
 DE= -1.19D-01 DEPred=-1.34D-01 R= 8.85D-01
 TightC=F SS=  1.41D+00  RLast= 5.05D-01 DXNew= 8.4853D-01 1.5136D+00
 Trust test= 8.85D-01 RLast= 5.05D-01 DXMaxT set to 8.49D-01
 ITU=  1  1  0
 Use linear search instead of GDIIS.
     Eigenvalues ---   -0.04009   0.02011   0.02011   0.02011   0.02011
     Eigenvalues ---    0.02011   0.02011   0.02011   0.02011   0.06127
     Eigenvalues ---    0.06510   0.06524   0.13113   0.15994   0.16000
     Eigenvalues ---    0.16000   0.16013   0.21985   0.22355   0.23683
     Eigenvalues ---    0.24999   0.29002   0.40643   0.41285   0.44429
     Eigenvalues ---    0.44654   0.44656
 RFO step:  Lambda=-2.76890659D-01 EMin=-4.00873478D-02
 Skip linear search -- no minimum in search direction.
 Maximum step size (   0.849) exceeded in Quadratic search.
    -- Step size scaled by   0.842
 Iteration  1 RMS(Cart)=  0.09135321 RMS(Int)=  0.06048646
 Iteration  2 RMS(Cart)=  0.05538758 RMS(Int)=  0.00403324
 Iteration  3 RMS(Cart)=  0.00392151 RMS(Int)=  0.00004009
 Iteration  4 RMS(Cart)=  0.00000003 RMS(Int)=  0.00004009
 ClnCor:  largest displacement from symmetrization is 8.13D-09 for atom     8.
 Variable       Old X    -DE/DX   Delta X   Delta X   Delta X     New X
                                 (Linear)    (Quad)   (Total)
    R1        2.63910  -0.03996   0.00000  -0.10569  -0.10564   2.53346
    R2        2.65011  -0.02620   0.00000  -0.08100  -0.08100   2.56911
    R3        2.65495  -0.03306   0.00000  -0.09712  -0.09706   2.55789
    R4        2.94757  -0.12153   0.00000  -0.41969  -0.41969   2.52788
    R5        2.65721  -0.03165   0.00000  -0.09561  -0.09560   2.56160
    R6        2.93365  -0.12228   0.00000  -0.40211  -0.40211   2.53154
    R7        2.65317  -0.03192   0.00000  -0.09401  -0.09406   2.55911
    R8        2.94404  -0.12171   0.00000  -0.41927  -0.41927   2.52477
    R9        2.65913  -0.02032   0.00000  -0.06678  -0.06684   2.59229
   R10        2.93194  -0.12175   0.00000  -0.38636  -0.38636   2.54558
   R11        3.29273  -0.02860   0.00000  -0.07160  -0.07160   3.22112
    A1        2.12756   0.01330   0.00000   0.02969   0.02975   2.15731
    A2        2.08031  -0.00492   0.00000  -0.01689  -0.01678   2.06353
    A3        2.09762   0.00155   0.00000   0.00721   0.00716   2.10478
    A4        2.10526   0.00337   0.00000   0.00968   0.00962   2.11488
    A5        2.09024   0.00098   0.00000   0.00761   0.00768   2.09792
    A6        2.09530  -0.00088   0.00000  -0.00464  -0.00468   2.09062
    A7        2.09765  -0.00010   0.00000  -0.00297  -0.00300   2.09464
    A8        2.10094   0.00293   0.00000   0.00755   0.00751   2.10845
    A9        2.09205  -0.00120   0.00000  -0.00276  -0.00274   2.08931
   A10        2.09019  -0.00172   0.00000  -0.00479  -0.00477   2.08543
   A11        2.09810   0.00010   0.00000  -0.00392  -0.00403   2.09407
   A12        2.09747   0.00113   0.00000   0.00257   0.00263   2.10010
   A13        2.08762  -0.00124   0.00000   0.00135   0.00141   2.08902
   A14        2.06922  -0.01238   0.00000  -0.02404  -0.02412   2.04510
   A15        2.10841   0.00674   0.00000   0.01294   0.01298   2.12139
   A16        2.10555   0.00564   0.00000   0.01111   0.01114   2.11670
    D1        0.00000   0.00000   0.00000   0.00000   0.00000   0.00000
    D2        3.14159   0.00000   0.00000   0.00000   0.00000   3.14159
    D3        0.00000  -0.00000   0.00000   0.00000   0.00000   0.00000
    D4        3.14159  -0.00000   0.00000  -0.00000   0.00000   3.14159
    D5        0.00000  -0.00000   0.00000  -0.00000   0.00000   0.00000
    D6        3.14159   0.00000   0.00000  -0.00000   0.00000   3.14159
    D7        3.14159  -0.00000   0.00000  -0.00000   0.00000   3.14159
    D8        0.00000  -0.00000   0.00000  -0.00000   0.00000   0.00000
    D9        0.00000  -0.00000   0.00000   0.00000   0.00000   0.00000
   D10        3.14159   0.00000   0.00000   0.00000   0.00000   3.14159
   D11        3.14159  -0.00000   0.00000   0.00000   0.00000   3.14159
   D12        0.00000  -0.00000   0.00000   0.00000   0.00000   0.00000
   D13        0.00000   0.00000   0.00000   0.00000   0.00000   0.00000
   D14        3.14159   0.00000   0.00000   0.00000   0.00000   3.14159
   D15        3.14159  -0.00000   0.00000   0.00000   0.00000   3.14159
   D16        0.00000   0.00000   0.00000   0.00000   0.00000   0.00000
   D17        0.00000  -0.00000   0.00000  -0.00000   0.00000   0.00000
   D18        3.14159   0.00000   0.00000   0.00000   0.00000   3.14159
   D19        3.14159  -0.00000   0.00000  -0.00000   0.00000   3.14159
   D20        0.00000   0.00000   0.00000   0.00000   0.00000   0.00000
         Item               Value     Threshold  Converged?
 Maximum Force            0.122283     0.000450     NO 
 RMS     Force            0.037601     0.000300     NO 
 Maximum Displacement     0.502405     0.001800     NO 
 RMS     Displacement     0.146365     0.001200     NO 
 Predicted change in Energy=-2.319079D-01
 GradGradGradGradGradGradGradGradGradGradGradGradGradGradGradGradGradGrad

                          Input orientation:                          
 ---------------------------------------------------------------------
 Center     Atomic      Atomic             Coordinates (Angstroms)
 Number     Number       Type             X           Y           Z
 ---------------------------------------------------------------------
      1          6           0       -3.060440    0.166920   -0.000000
      2          6           0       -1.933997    0.893877   -0.000000
      3          6           0       -0.749357    0.239049   -0.000000
      4          6           0       -0.719319   -1.116161   -0.000000
      5          6           0       -1.866827   -1.835294   -0.000000
      6          6           0       -3.078667   -1.192472   -0.000000
      7         17           0       -4.543130   -2.064722   -0.000000
      8          1           0       -1.986314    2.230551   -0.000000
      9          1           0        0.395501    0.934696   -0.000000
     10          1           0        0.455507   -1.752414   -0.000000
     11          1           0       -1.825727   -3.181729   -0.000000
 ---------------------------------------------------------------------
                    Distance matrix (angstroms):
                    1          2          3          4          5
     1  C    0.000000
     2  C    1.340650   0.000000
     3  C    2.312209   1.353577   0.000000
     4  C    2.669671   2.348551   1.355543   0.000000
     5  C    2.331002   2.729997   2.356191   1.354225   0.000000
     6  C    1.359513   2.379731   2.734033   2.360581   1.371779
     7  Cl   2.679290   3.944729   4.438477   3.939707   2.686119
     8  H    2.326439   1.337697   2.344385   3.578513   4.067600
     9  H    3.540199   2.329855   1.339636   2.334275   3.576446
    10  H    4.005712   3.565471   2.327579   1.336052   2.323812
    11  H    3.569029   4.077044   3.586126   2.343226   1.347063
                    6          7          8          9         10
     6  C    0.000000
     7  Cl   1.704544   0.000000
     8  H    3.593093   4.998667   0.000000
     9  H    4.073658   5.778112   2.711510   0.000000
    10  H    3.578257   5.008383   4.671884   2.687780   0.000000
    11  H    2.350958   2.938024   5.414662   4.677479   2.692019
                   11
    11  H    0.000000
 Stoichiometry    C6H4Cl(2)
 Framework group  CS[SG(C6H4Cl)]
 Deg. of freedom    19
 Full point group                 CS      NOp   2
 Largest Abelian subgroup         CS      NOp   2
 Largest concise Abelian subgroup C1      NOp   1
                         Standard orientation:                         
 ---------------------------------------------------------------------
 Center     Atomic      Atomic             Coordinates (Angstroms)
 Number     Number       Type             X           Y           Z
 ---------------------------------------------------------------------
      1          6           0       -1.196128   -0.114825    0.000000
      2          6           0       -1.318226   -1.449903    0.000000
      3          6           0       -0.188933   -2.196139    0.000000
      4          6           0        1.025859   -1.594660    0.000000
      5          6           0        1.131261   -0.244544    0.000000
      6          6           0        0.000000    0.531359    0.000000
      7         17           0        0.094184    2.233299    0.000000
      8          1           0       -2.526920   -2.023048    0.000000
      9          1           0       -0.274752   -3.533023    0.000000
     10          1           0        2.134145   -2.340808    0.000000
     11          1           0        2.343406    0.343065    0.000000
 ---------------------------------------------------------------------
 Rotational constants (GHZ):           6.1442495           1.6048572           1.2724877
 Standard basis: VSTO-6G (5D, 7F)
 There are    25 symmetry adapted cartesian basis functions of A'  symmetry.
 There are     7 symmetry adapted cartesian basis functions of A"  symmetry.
 There are    25 symmetry adapted basis functions of A'  symmetry.
 There are     7 symmetry adapted basis functions of A"  symmetry.
    32 basis functions,   192 primitive gaussians,    32 cartesian basis functions
    18 alpha electrons       17 beta electrons
       nuclear repulsion energy       152.5881945106 Hartrees.
 Integral buffers will be    131072 words long.
 Regular integral format.
 Two-electron integral symmetry is turned off.
 Do NDO integrals.
 One-electron integrals computed using PRISM.
 NBasis=    32 RedAO= T EigKep=  1.00D+00  NBF=    25     7
 NBsUse=    32 1.00D-06 EigRej= -1.00D+00 NBFU=    25     7
 Initial guess from the checkpoint file:  "geometry_chks/12-1_-ClBzNeutralRadical.chk"
 B after Tr=    -0.000000    0.000000    0.000000
         Rot=    0.999987   -0.000000   -0.000000   -0.005089 Ang=  -0.58 deg.
 Initial guess orbital symmetries:
 Alpha Orbitals:
       Occupied  (A') (A') (A') (A') (A') (A') (A') (A') (A') (A")
                 (A') (A') (A") (A') (A') (A') (A") (A")
       Virtual   (A") (A") (A') (A') (A') (A') (A') (A") (A') (A')
                 (A') (A') (A') (A')
 Beta  Orbitals:
       Occupied  (A') (A') (A') (A') (A') (A') (A') (A') (A") (A')
                 (A') (A") (A') (A') (A') (A") (A")
       Virtual   (A') (A") (A') (A") (A') (A') (A') (A') (A") (A')
                 (A') (A') (A') (A') (A')
 Initial guess <Sx>= 0.0000 <Sy>= 0.0000 <Sz>= 0.5000 <S**2>= 1.3344 S= 0.7587
 Keep J ints in memory in canonical form, NReq=862079.
 Overlap will be assumed to be unity.
 Requested convergence on RMS density matrix=1.00D-08 within  32 cycles.
 Requested convergence on MAX density matrix=1.00D-06.
 Requested convergence on             energy=1.00D-06.
 No special actions if energy rises.
 Fock symm off for IB=2 I1=    1 I=   26 J=    5 Cut=1.00D-07 Err=4.97D-03
 Fock matrix is not symmetric: symmetry in diagonalization turned off.
 SCF Done:  E(UAM1) =  0.223208722671     A.U. after   18 cycles
            NFock= 17  Conv=0.40D-08     -V/T= 1.0033
 <Sx>= 0.0000 <Sy>= 0.0000 <Sz>= 0.5000 <S**2>= 0.9978 S= 0.6171
 <L.S>=  0.00000000000    
 Annihilation of the first spin contaminant:
 S**2 before annihilation     0.9978,   after     0.7970
 QCSCF skips out because SCF is already converged.
 Calling FoFJK, ICntrl=      2127 FMM=F ISym2X=1 I1Cent= 0 IOpClX= 1 NMat=1 NMatS=1 NMatT=0.
 ***** Axes restored to original set *****
 -------------------------------------------------------------------
 Center     Atomic                   Forces (Hartrees/Bohr)
 Number     Number              X              Y              Z
 -------------------------------------------------------------------
      1        6          -0.021945611    0.005484075   -0.000000000
      2        6          -0.017812372    0.155125636   -0.000000000
      3        6           0.130098495    0.074520783   -0.000000000
      4        6           0.126524846   -0.070839919   -0.000000000
[...]
    R1        2.58823  -0.00002  -0.00000  -0.00005  -0.00005   2.58818
    R2        2.60028  -0.00001  -0.00001  -0.00003  -0.00003   2.60024
    R3        2.66159   0.00002  -0.00000   0.00005   0.00005   2.66164
    R4        2.07212   0.00001  -0.00001   0.00005   0.00004   2.07216
    R5        2.65072  -0.00000   0.00000  -0.00001  -0.00001   2.65071
    R6        2.07592  -0.00002  -0.00003  -0.00002  -0.00005   2.07587
    R7        2.64779   0.00001  -0.00000   0.00002   0.00002   2.64781
    R8        2.07969  -0.00000   0.00003  -0.00004  -0.00002   2.07967
    R9        2.66976  -0.00002  -0.00000  -0.00004  -0.00005   2.66972
   R10        2.07668  -0.00002  -0.00001  -0.00003  -0.00004   2.07664
   R11        3.18361  -0.00002  -0.00001  -0.00006  -0.00006   3.18355
    A1        2.24392   0.00000   0.00000   0.00001   0.00001   2.24393
    A2        2.00929  -0.00000  -0.00000  -0.00001  -0.00001   2.00928
    A3        2.13878   0.00001  -0.00000   0.00009   0.00008   2.13887
    A4        2.13511  -0.00001   0.00000  -0.00008  -0.00008   2.13503
    A5        2.09156  -0.00000   0.00000  -0.00001  -0.00001   2.09155
    A6        2.09292  -0.00001   0.00000  -0.00004  -0.00004   2.09287
    A7        2.09871   0.00001  -0.00000   0.00005   0.00005   2.09877
    A8        2.12597  -0.00001  -0.00000  -0.00001  -0.00001   2.12596
    A9        2.08155   0.00001  -0.00000   0.00004   0.00004   2.08158
   A10        2.07567  -0.00000   0.00000  -0.00003  -0.00003   2.07564
   A11        2.08245   0.00000  -0.00000  -0.00000  -0.00000   2.08244
   A12        2.10389  -0.00000   0.00000  -0.00001  -0.00001   2.10388
   A13        2.09685   0.00000   0.00000   0.00001   0.00001   2.09686
   A14        2.01319   0.00001   0.00000   0.00002   0.00002   2.01321
   A15        2.14139  -0.00000  -0.00000  -0.00001  -0.00001   2.14138
   A16        2.12860  -0.00000  -0.00000  -0.00001  -0.00001   2.12859
    D1        0.00000   0.00000   0.00000   0.00000   0.00000   0.00000
    D2        3.14159   0.00000   0.00000   0.00000   0.00000   3.14159
    D3        0.00000  -0.00000   0.00000  -0.00000   0.00000   0.00000
    D4        3.14159  -0.00000   0.00000  -0.00000   0.00000   3.14159
    D5        0.00000   0.00000   0.00000   0.00000   0.00000   0.00000
    D6        3.14159   0.00000   0.00000   0.00000   0.00000   3.14159
    D7        3.14159  -0.00000   0.00000  -0.00000   0.00000   3.14159
    D8        0.00000  -0.00000   0.00000  -0.00000   0.00000   0.00000
    D9        0.00000  -0.00000   0.00000  -0.00000   0.00000   0.00000
   D10        3.14159   0.00000   0.00000   0.00000   0.00000   3.14159
   D11        3.14159  -0.00000   0.00000  -0.00000   0.00000   3.14159
   D12        0.00000  -0.00000   0.00000   0.00000   0.00000   0.00000
   D13        0.00000   0.00000   0.00000   0.00000   0.00000   0.00000
   D14        3.14159   0.00000   0.00000   0.00000   0.00000   3.14159
   D15        3.14159  -0.00000   0.00000  -0.00000   0.00000   3.14159
   D16        0.00000  -0.00000   0.00000  -0.00000   0.00000   0.00000
   D17        0.00000  -0.00000   0.00000  -0.00000   0.00000   0.00000
   D18        3.14159   0.00000   0.00000   0.00000   0.00000   3.14159
   D19        3.14159  -0.00000   0.00000  -0.00000   0.00000   3.14159
   D20        0.00000  -0.00000   0.00000  -0.00000   0.00000   0.00000
         Item               Value     Threshold  Converged?
 Maximum Force            0.000023     0.000450     YES
 RMS     Force            0.000008     0.000300     YES
 Maximum Displacement     0.000100     0.001800     YES
 RMS     Displacement     0.000031     0.001200     YES
 Predicted change in Energy=-5.254774D-09
 Optimization completed.
    -- Stationary point found.
                           ----------------------------
                           !   Optimized Parameters   !
                           ! (Angstroms and Degrees)  !
 --------------------------                            --------------------------
 ! Name  Definition              Value          Derivative Info.                !
 --------------------------------------------------------------------------------
 ! R1    R(1,2)                  1.3696         -DE/DX =    0.0                 !
 ! R2    R(1,6)                  1.376          -DE/DX =    0.0                 !
 ! R3    R(2,3)                  1.4085         -DE/DX =    0.0                 !
 ! R4    R(2,8)                  1.0965         -DE/DX =    0.0                 !
 ! R5    R(3,4)                  1.4027         -DE/DX =    0.0                 !
 ! R6    R(3,9)                  1.0985         -DE/DX =    0.0                 !
 ! R7    R(4,5)                  1.4011         -DE/DX =    0.0                 !
 ! R8    R(4,10)                 1.1005         -DE/DX =    0.0                 !
 ! R9    R(5,6)                  1.4128         -DE/DX =    0.0                 !
 ! R10   R(5,11)                 1.0989         -DE/DX =    0.0                 !
 ! R11   R(6,7)                  1.6847         -DE/DX =    0.0                 !
 ! A1    A(2,1,6)              128.567          -DE/DX =    0.0                 !
 ! A2    A(1,2,3)              115.1239         -DE/DX =    0.0                 !
 ! A3    A(1,2,8)              122.5432         -DE/DX =    0.0                 !
 ! A4    A(3,2,8)              122.3329         -DE/DX =    0.0                 !
 ! A5    A(2,3,4)              119.8373         -DE/DX =    0.0                 !
 ! A6    A(2,3,9)              119.9152         -DE/DX =    0.0                 !
 ! A7    A(4,3,9)              120.2474         -DE/DX =    0.0                 !
 ! A8    A(3,4,5)              121.809          -DE/DX =    0.0                 !
 ! A9    A(3,4,10)             119.2638         -DE/DX =    0.0                 !
 ! A10   A(5,4,10)             118.9272         -DE/DX =    0.0                 !
 ! A11   A(4,5,6)              119.3154         -DE/DX =    0.0                 !
 ! A12   A(4,5,11)             120.5441         -DE/DX =    0.0                 !
 ! A13   A(6,5,11)             120.1405         -DE/DX =    0.0                 !
 ! A14   A(1,6,5)              115.3474         -DE/DX =    0.0                 !
 ! A15   A(1,6,7)              122.6927         -DE/DX =    0.0                 !
 ! A16   A(5,6,7)              121.9599         -DE/DX =    0.0                 !
 ! D1    D(6,1,2,3)              0.0            -DE/DX =    0.0                 !
 ! D2    D(6,1,2,8)            180.0            -DE/DX =    0.0                 !
 ! D3    D(2,1,6,5)              0.0            -DE/DX =    0.0                 !
 ! D4    D(2,1,6,7)            180.0            -DE/DX =    0.0                 !
 ! D5    D(1,2,3,4)              0.0            -DE/DX =    0.0                 !
 ! D6    D(1,2,3,9)            180.0            -DE/DX =    0.0                 !
 ! D7    D(8,2,3,4)            180.0            -DE/DX =    0.0                 !
 ! D8    D(8,2,3,9)              0.0            -DE/DX =    0.0                 !
 ! D9    D(2,3,4,5)              0.0            -DE/DX =    0.0                 !
 ! D10   D(2,3,4,10)           180.0            -DE/DX =    0.0                 !
 ! D11   D(9,3,4,5)            180.0            -DE/DX =    0.0                 !
 ! D12   D(9,3,4,10)             0.0            -DE/DX =    0.0                 !
 ! D13   D(3,4,5,6)              0.0            -DE/DX =    0.0                 !
 ! D14   D(3,4,5,11)           180.0            -DE/DX =    0.0                 !
 ! D15   D(10,4,5,6)           180.0            -DE/DX =    0.0                 !
 ! D16   D(10,4,5,11)            0.0            -DE/DX =    0.0                 !
 ! D17   D(4,5,6,1)              0.0            -DE/DX =    0.0                 !
 ! D18   D(4,5,6,7)            180.0            -DE/DX =    0.0                 !
 ! D19   D(11,5,6,1)           180.0            -DE/DX =    0.0                 !
 ! D20   D(11,5,6,7)             0.0            -DE/DX =    0.0                 !
 --------------------------------------------------------------------------------
 GradGradGradGradGradGradGradGradGradGradGradGradGradGradGradGradGradGrad

                          Input orientation:                          
 ---------------------------------------------------------------------
 Center     Atomic      Atomic             Coordinates (Angstroms)
 Number     Number       Type             X           Y           Z
 ---------------------------------------------------------------------
      1          6           0       -3.016428    0.155223   -0.000000
      2          6           0       -1.904621    0.955085   -0.000000
      3          6           0       -0.674478    0.269161   -0.000000
      4          6           0       -0.657503   -1.133437   -0.000000
      5          6           0       -1.839189   -1.886323   -0.000000
      6          6           0       -3.084482   -1.219100   -0.000000
      7         17           0       -4.545555   -2.057826   -0.000000
      8          1           0       -1.965620    2.049906   -0.000000
      9          1           0        0.267729    0.833973   -0.000000
     10          1           0        0.309012   -1.659750   -0.000000
     11          1           0       -1.801637   -2.984612   -0.000000
 ---------------------------------------------------------------------
                    Distance matrix (angstroms):
                    1          2          3          4          5
     1  C    0.000000
     2  C    1.369632   0.000000
     3  C    2.344720   1.408454   0.000000
     4  C    2.687968   2.432535   1.402700   0.000000
     5  C    2.356650   2.842160   2.450032   1.401149   0.000000
     6  C    1.376007   2.473691   2.832496   2.428490   1.412778
     7  Cl   2.689947   4.006514   4.516647   3.996429   2.711795
     8  H    2.166569   1.096519   2.199568   3.441633   3.938258
     9  H    3.353563   2.175723   1.098530   2.174110   3.440801
    10  H    3.788492   3.426008   2.165167   1.100525   2.160116
    11  H    3.366643   3.941043   3.443476   2.176211   1.098932
                    6          7          8          9         10
     6  C    0.000000
     7  Cl   1.684694   0.000000
     8  H    3.455177   4.850724   0.000000
     9  H    3.930957   5.615176   2.542899   0.000000
    10  H    3.421983   4.870860   4.351493   2.494064   0.000000
    11  H    2.182367   2.896208   5.037188   4.343255   2.492007
                   11
    11  H    0.000000
 Stoichiometry    C6H4Cl(2)
 Framework group  CS[SG(C6H4Cl)]
 Deg. of freedom    19
 Full point group                 CS      NOp   2
 Largest Abelian subgroup         CS      NOp   2
 Largest concise Abelian subgroup C1      NOp   1
                         Standard orientation:                         
 ---------------------------------------------------------------------
 Center     Atomic      Atomic             Coordinates (Angstroms)
 Number     Number       Type             X           Y           Z
 ---------------------------------------------------------------------
      1          6           0       -1.170836   -0.156185    0.000000
      2          6           0       -1.334811   -1.515966    0.000000
      3          6           0       -0.140374   -2.262332    0.000000
      4          6           0        1.096262   -1.600290    0.000000
      5          6           0        1.185370   -0.201977    0.000000
      6          6           0        0.000000    0.566684    0.000000
      7         17           0        0.029454    2.251121    0.000000
      8          1           0       -2.323131   -1.990915    0.000000
      9          1           0       -0.180335   -3.360135    0.000000
     10          1           0        2.023676   -2.192791    0.000000
     11          1           0        2.165412    0.295181    0.000000
 ---------------------------------------------------------------------
 Rotational constants (GHZ):           6.0714869           1.5718060           1.2485717

 **********************************************************************

            Population analysis using the SCF Density.

 **********************************************************************

 Orbital symmetries:
 Alpha Orbitals:
       Occupied  (A') (A') (A') (A') (A') (A') (A') (A') (A') (A')
                 (A") (A') (A') (A") (A') (A') (A") (A")
       Virtual   (A") (A") (A') (A") (A') (A') (A') (A') (A') (A')
                 (A') (A') (A') (A')
 Beta  Orbitals:
       Occupied  (A') (A') (A') (A') (A') (A') (A') (A') (A') (A')
                 (A") (A') (A') (A") (A') (A") (A")
       Virtual   (A') (A") (A") (A') (A") (A') (A') (A') (A') (A')
                 (A') (A') (A') (A') (A')
 The electronic state is 2-A'.
 Alpha  occ. eigenvalues --   -1.45866  -1.38499  -1.16904  -1.14493  -0.87357
 Alpha  occ. eigenvalues --   -0.84815  -0.67039  -0.60579  -0.59729  -0.55518
 Alpha  occ. eigenvalues --   -0.53516  -0.50794  -0.47227  -0.46043  -0.44257
 Alpha  occ. eigenvalues --   -0.38885  -0.38425  -0.36533
 Alpha virt. eigenvalues --    0.00445   0.01192   0.05302   0.08976   0.12866
 Alpha virt. eigenvalues --    0.13629   0.13920   0.14686   0.15433   0.16803
 Alpha virt. eigenvalues --    0.17928   0.18673   0.19018   0.19983
  Beta  occ. eigenvalues --   -1.45157  -1.38449  -1.16585  -1.12953  -0.86963
  Beta  occ. eigenvalues --   -0.82622  -0.66946  -0.59559  -0.58479  -0.55279
  Beta  occ. eigenvalues --   -0.53611  -0.49649  -0.46855  -0.46347  -0.43594
  Beta  occ. eigenvalues --   -0.37648  -0.36030
  Beta virt. eigenvalues --    0.00328   0.00558   0.02713   0.04683   0.09772
  Beta virt. eigenvalues --    0.13307   0.13668   0.14593   0.15289   0.16002
  Beta virt. eigenvalues --    0.17021   0.18166   0.19088   0.20168   0.20692
          Condensed to atoms (all electrons):
               1          2          3          4          5          6
     1  C    4.058464   0.000000   0.000000   0.000000   0.000000   0.000000
     2  C    0.000000   4.115362   0.000000   0.000000   0.000000   0.000000
     3  C    0.000000   0.000000   4.122651   0.000000   0.000000   0.000000
     4  C    0.000000   0.000000   0.000000   4.137274   0.000000   0.000000
     5  C    0.000000   0.000000   0.000000   0.000000   4.118559   0.000000
     6  C    0.000000   0.000000   0.000000   0.000000   0.000000   4.062982
     7  Cl   0.000000   0.000000   0.000000   0.000000   0.000000   0.000000
     8  H    0.000000   0.000000   0.000000   0.000000   0.000000   0.000000
     9  H    0.000000   0.000000   0.000000   0.000000   0.000000   0.000000
    10  H    0.000000   0.000000   0.000000   0.000000   0.000000   0.000000
    11  H    0.000000   0.000000   0.000000   0.000000   0.000000   0.000000
               7          8          9         10         11
     1  C    0.000000   0.000000   0.000000   0.000000   0.000000
     2  C    0.000000   0.000000   0.000000   0.000000   0.000000
     3  C    0.000000   0.000000   0.000000   0.000000   0.000000
     4  C    0.000000   0.000000   0.000000   0.000000   0.000000
     5  C    0.000000   0.000000   0.000000   0.000000   0.000000
     6  C    0.000000   0.000000   0.000000   0.000000   0.000000
     7  Cl   6.977499   0.000000   0.000000   0.000000   0.000000
     8  H    0.000000   0.839660   0.000000   0.000000   0.000000
     9  H    0.000000   0.000000   0.858395   0.000000   0.000000
    10  H    0.000000   0.000000   0.000000   0.860136   0.000000
    11  H    0.000000   0.000000   0.000000   0.000000   0.849018
          Atomic-Atomic Spin Densities.
               1          2          3          4          5          6
     1  C    1.376512   0.000000   0.000000   0.000000   0.000000   0.000000
     2  C    0.000000  -0.465583   0.000000   0.000000   0.000000   0.000000
     3  C    0.000000   0.000000   0.484720   0.000000   0.000000   0.000000
     4  C    0.000000   0.000000   0.000000  -0.436572   0.000000   0.000000
     5  C    0.000000   0.000000   0.000000   0.000000   0.476189   0.000000
     6  C    0.000000   0.000000   0.000000   0.000000   0.000000  -0.457303
     7  Cl   0.000000   0.000000   0.000000   0.000000   0.000000   0.000000
     8  H    0.000000   0.000000   0.000000   0.000000   0.000000   0.000000
     9  H    0.000000   0.000000   0.000000   0.000000   0.000000   0.000000
    10  H    0.000000   0.000000   0.000000   0.000000   0.000000   0.000000
    11  H    0.000000   0.000000   0.000000   0.000000   0.000000   0.000000
               7          8          9         10         11
     1  C    0.000000   0.000000   0.000000   0.000000   0.000000
     2  C    0.000000   0.000000   0.000000   0.000000   0.000000
     3  C    0.000000   0.000000   0.000000   0.000000   0.000000
     4  C    0.000000   0.000000   0.000000   0.000000   0.000000
     5  C    0.000000   0.000000   0.000000   0.000000   0.000000
     6  C    0.000000   0.000000   0.000000   0.000000   0.000000
     7  Cl   0.002087   0.000000   0.000000   0.000000   0.000000
     8  H    0.000000   0.031830   0.000000   0.000000   0.000000
     9  H    0.000000   0.000000  -0.019464   0.000000   0.000000
    10  H    0.000000   0.000000   0.000000   0.026165   0.000000
    11  H    0.000000   0.000000   0.000000   0.000000  -0.018581
 Mulliken charges and spin densities:
               1          2
     1  C   -0.058464   1.376512
     2  C   -0.115362  -0.465583
     3  C   -0.122651   0.484720
     4  C   -0.137274  -0.436572
     5  C   -0.118559   0.476189
     6  C   -0.062982  -0.457303
     7  Cl   0.022501   0.002087
     8  H    0.160340   0.031830
     9  H    0.141605  -0.019464
    10  H    0.139864   0.026165
    11  H    0.150982  -0.018581
 Sum of Mulliken charges =  -0.00000   1.00000
 Mulliken charges and spin densities with hydrogens summed into heavy atoms:
               1          2
     1  C   -0.058464   1.376512
     2  C    0.044977  -0.433753
     3  C    0.018955   0.465256
     4  C    0.002590  -0.410407
     5  C    0.032423   0.457609
     6  C   -0.062982  -0.457303
     7  Cl   0.022501   0.002087
 Charge=              0.0000 electrons
 Dipole moment (field-independent basis, Debye):
    X=              0.8474    Y=             -1.6381    Z=              0.0000  Tot=              1.8443
 N-N= 1.527801286843D+02 E-N=-2.113669685571D+02  KE=-6.874752638214D+01
 Symmetry A'   KE=-5.394550271267D+01
 Symmetry A"   KE=-1.480202366947D+01
 Symmetry A'   SP= 1.000000000000D+00
 Symmetry A"   SP= 2.275957200482D-15
 1\1\GINC-SH02-01N01\FOpt\UAM1\ZDO\C6H4Cl1(2)\JLAPIER\10-Dec-2025\0\\# 
 opt am1 SCF=XQC\\Neutral Radical (removed 2) 1_\\0,2\C,-3.0164278769,0
 .1552230847,0.\C,-1.9046210758,0.9550845484,0.\C,-0.6744782725,0.26916
 06535,0.\C,-0.6575025822,-1.1334366429,0.\C,-1.8391885751,-1.886322547
 9,0.\C,-3.0844815315,-1.2190999925,0.\Cl,-4.545554569,-2.0578256833,0.
 \H,-1.9656195646,2.0499055032,0.\H,0.2677288804,0.8339729866,0.\H,0.30
 90117902,-1.659749593,0.\H,-1.801636623,-2.9846123167,0.\\Version=ES64
 L-G16RevB.01\State=2-A'\HF=0.106844\S2=1.201063\S2-1=0.\S2A=0.922463\R
 MSD=6.454e-09\RMSF=1.439e-05\Dipole=0.7253733,0.0190314,0.\PG=CS [SG(C
 6H4Cl1)]\\@


            THE IRISH PIG
 'TWAS AN EVENING IN NOVEMBER,
 AS I VERY WELL REMEMBER
 I WAS STROLLING DOWN THE STREET IN DRUNKEN PRIDE,
 BUT MY KNEES WERE ALL A'FLUTTER
 SO I LANDED IN THE GUTTER,
 AND A PIG CAME UP AND LAY DOWN BY MY SIDE.

 YES, I LAY THERE IN THE GUTTER
 THINKING THOUGHTS I COULD NOT UTTER
 WHEN A COLLEEN PASSING BY DID SOFTLY SAY,
 'YE CAN TELL A MAN THAT BOOZES
 BY THE COMPANY THAT HE CHOOSES.' -
 AT THAT, THE PIG GOT UP AND WALKED AWAY!
     -- THE ECONOMIST, AUGUST 23, 1986
 Job cpu time:       0 days  0 hours  0 minutes 10.0 seconds.
 Elapsed time:       0 days  0 hours  0 minutes 21.3 seconds.
 File lengths (MBytes):  RWF=     10 Int=      0 D2E=      0 Chk=      2 Scr=      1
 Normal termination of Gaussian 16 at Wed Dec 10 10:38:17 2025.
