 Entering Gaussian System, Link 0=g16
 Initial command:
 /share/software/user/restricted/gaussian/g16.B01/l1.exe "/home/users/jlapier/Chloroaromatics/Gau-30964.inp" -scrdir="/home/users/jlapier/Chloroaromatics/"
 Entering Link 1 = /share/software/user/restricted/gaussian/g16.B01/l1.exe PID=     30965.
  
 Copyright (c) 1988-2017, Gaussian, Inc.  All Rights Reserved.
  
 This is part of the Gaussian(R) 16 program.  It is based on
 the Gaussian(R) 09 system (copyright 2009, Gaussian, Inc.),
 the Gaussian(R) 03 system (copyright 2003, Gaussian, Inc.),
 the Gaussian(R) 98 system (copyright 1998, Gaussian, Inc.),
 the Gaussian(R) 94 system (copyright 1995, Gaussian, Inc.),
 the Gaussian 92(TM) system (copyright 1992, Gaussian, Inc.),
 the Gaussian 90(TM) system (copyright 1990, Gaussian, Inc.),
 the Gaussian 88(TM) system (copyright 1988, Gaussian, Inc.),
 the Gaussian 86(TM) system (copyright 1986, Carnegie Mellon
 University), and the Gaussian 82(TM) system (copyright 1983,
 Carnegie Mellon University). Gaussian is a federally registered
 trademark of Gaussian, Inc.
  
 This software contains proprietary and confidential information,
 including trade secrets, belonging to Gaussian, Inc.
  
 This software is provided under written license and may be
 used, copied, transmitted, or stored only in accord with that
 written license.
  
 The following legend is applicable only to US Government
 contracts under FAR:
  
                    RESTRICTED RIGHTS LEGEND
  
 Use, reproduction and disclosure by the US Government is
 subject to restrictions as set forth in subparagraphs (a)
 and (c) of the Commercial Computer Software - Restricted
 Rights clause in FAR 52.227-19.
  
 Gaussian, Inc.
 340 Quinnipiac St., Bldg. 40, Wallingford CT 06492
  
  
 ---------------------------------------------------------------
 Warning -- This program may not be used in any manner that
 competes with the business of Gaussian, Inc. or will provide
 assistance to any competitor of Gaussian, Inc.  The licensee
 of this program is prohibited from giving any competitor of
 Gaussian, Inc. access to this program.  By using this program,
 the user acknowledges that Gaussian, Inc. is engaged in the
 business of creating and licensing software in the field of
 computational chemistry and represents and warrants to the
 licensee that it is not a competitor of Gaussian, Inc. and that
 it will not use this program in any manner prohibited above.
 ---------------------------------------------------------------
  

 Cite this work as:
 Gaussian 16, Revision B.01,
 M. J. Frisch, G. W. Trucks, H. B. Schlegel, G. E. Scuseria, 
 M. A. Robb, J. R. Cheeseman, G. Scalmani, V. Barone, 
 G. A. Petersson, H. Nakatsuji, X. Li, M. Caricato, A. V. Marenich, 
 J. Bloino, B. G. Janesko, R. Gomperts, B. Mennucci, H. P. Hratchian, 
 J. V. Ortiz, A. F. Izmaylov, J. L. Sonnenberg, D. Williams-Young, 
 F. Ding, F. Lipparini, F. Egidi, J. Goings, B. Peng, A. Petrone, 
 T. Henderson, D. Ranasinghe, V. G. Zakrzewski, J. Gao, N. Rega, 
 G. Zheng, W. Liang, M. Hada, M. Ehara, K. Toyota, R. Fukuda, 
 J. Hasegawa, M. Ishida, T. Nakajima, Y. Honda, O. Kitao, H. Nakai, 
 T. Vreven, K. Throssell, J. A. Montgomery, Jr., J. E. Peralta, 
 F. Ogliaro, M. J. Bearpark, J. J. Heyd, E. N. Brothers, K. N. Kudin, 
 V. N. Staroverov, T. A. Keith, R. Kobayashi, J. Normand, 
 K. Raghavachari, A. P. Rendell, J. C. Burant, S. S. Iyengar, 
 J. Tomasi, M. Cossi, J. M. Millam, M. Klene, C. Adamo, R. Cammi, 
 J. W. Ochterski, R. L. Martin, K. Morokuma, O. Farkas, 
 J. B. Foresman, and D. J. Fox, Gaussian, Inc., Wallingford CT, 2016.
 
 ******************************************
 Gaussian 16:  ES64L-G16RevB.01 20-Dec-2017
                10-Dec-2025 
 ******************************************
 %mem=2GB
 %nprocshare=1
 Will use up to    1 processors via shared memory.
 %chk=geometry_chks/123-1_3-ClBzNeutralRadical.chk
 -----------------
 # opt am1 SCF=XQC
 -----------------
 1/18=20,19=15,26=1,38=1/1,3;
 2/9=110,12=2,17=6,18=5,40=1/2;
 3/5=2,25=1,41=700000,71=1/1,2,3;
 4/35=1/1;
 5/5=2,8=3,13=1,35=1,38=5/2,8;
 6/7=2,8=2,9=2,10=2,28=1/1;
 7//1,2,3,16;
 1/18=20,19=15,26=1/3(2);
 2/9=110/2;
 99//99;
 2/9=110/2;
 3/5=2,25=1,41=700000,71=1,135=20/1,2,3;
 4/5=5,16=3,35=1/1;
 5/5=2,8=3,13=1,35=1,38=5/2,8;
 7//1,2,3,16;
 1/18=20,19=15,26=1/3(-5);
 2/9=110/2;
 6/7=2,8=2,9=2,10=2,19=2,28=1/1;
 99/9=1/99;
 -------------------------------
 Neutral Radical (removed 2) 1_3
 -------------------------------
 Symbolic Z-matrix:
 Charge =  0 Multiplicity = 2
 C                    -3.20928   0.19943   0. 
 C                    -2.0115    0.93555   0. 
 C                    -0.77511   0.2663    0. 
 C                    -0.7365   -1.13907   0. 
 C                    -1.93429  -1.87519   0. 
 C                    -3.17067  -1.20594   0. 
 Cl                   -4.67483  -2.13035   0. 
 Cl                   -2.05998   2.7004    0. 
 H                     0.72905   1.19071   0. 
 H                     0.81614  -1.97951   0. 
 H                    -1.8858   -3.64003   0. 
 
 Add virtual bond connecting atoms H11        and C5         Dist= 3.34D+00.
 Add virtual bond connecting atoms H10        and C4         Dist= 3.34D+00.
 Add virtual bond connecting atoms H9         and C3         Dist= 3.34D+00.

 GradGradGradGradGradGradGradGradGradGradGradGradGradGradGradGradGradGrad
 Berny optimization.
 Initialization pass.
                           ----------------------------
                           !    Initial Parameters    !
                           ! (Angstroms and Degrees)  !
 --------------------------                            --------------------------
 ! Name  Definition              Value          Derivative Info.                !
 --------------------------------------------------------------------------------
 ! R1    R(1,2)                  1.4059         estimate D2E/DX2                !
 ! R2    R(1,6)                  1.4059         estimate D2E/DX2                !
 ! R3    R(2,3)                  1.4059         estimate D2E/DX2                !
 ! R4    R(2,8)                  1.7655         estimate D2E/DX2                !
 ! R5    R(3,4)                  1.4059         estimate D2E/DX2                !
 ! R6    R(3,9)                  1.7655         estimate D2E/DX2                !
 ! R7    R(4,5)                  1.4059         estimate D2E/DX2                !
 ! R8    R(4,10)                 1.7655         estimate D2E/DX2                !
 ! R9    R(5,6)                  1.4059         estimate D2E/DX2                !
 ! R10   R(5,11)                 1.7655         estimate D2E/DX2                !
 ! R11   R(6,7)                  1.7655         estimate D2E/DX2                !
 ! A1    A(2,1,6)              119.9999         estimate D2E/DX2                !
 ! A2    A(1,2,3)              120.0            estimate D2E/DX2                !
 ! A3    A(1,2,8)              120.0001         estimate D2E/DX2                !
 ! A4    A(3,2,8)              119.9999         estimate D2E/DX2                !
 ! A5    A(2,3,4)              120.0001         estimate D2E/DX2                !
 ! A6    A(2,3,9)              120.0            estimate D2E/DX2                !
 ! A7    A(4,3,9)              119.9999         estimate D2E/DX2                !
 ! A8    A(3,4,5)              119.9997         estimate D2E/DX2                !
 ! A9    A(3,4,10)             120.0003         estimate D2E/DX2                !
 ! A10   A(5,4,10)             120.0            estimate D2E/DX2                !
 ! A11   A(4,5,6)              120.0            estimate D2E/DX2                !
 ! A12   A(4,5,11)             119.9996         estimate D2E/DX2                !
 ! A13   A(6,5,11)             120.0004         estimate D2E/DX2                !
 ! A14   A(1,6,5)              120.0003         estimate D2E/DX2                !
 ! A15   A(1,6,7)              119.9999         estimate D2E/DX2                !
 ! A16   A(5,6,7)              119.9998         estimate D2E/DX2                !
 ! D1    D(6,1,2,3)              0.0            estimate D2E/DX2                !
 ! D2    D(6,1,2,8)            180.0            estimate D2E/DX2                !
 ! D3    D(2,1,6,5)              0.0            estimate D2E/DX2                !
 ! D4    D(2,1,6,7)            180.0            estimate D2E/DX2                !
 ! D5    D(1,2,3,4)              0.0            estimate D2E/DX2                !
 ! D6    D(1,2,3,9)            180.0            estimate D2E/DX2                !
 ! D7    D(8,2,3,4)            180.0            estimate D2E/DX2                !
 ! D8    D(8,2,3,9)              0.0            estimate D2E/DX2                !
 ! D9    D(2,3,4,5)              0.0            estimate D2E/DX2                !
 ! D10   D(2,3,4,10)           180.0            estimate D2E/DX2                !
 ! D11   D(9,3,4,5)            180.0            estimate D2E/DX2                !
 ! D12   D(9,3,4,10)             0.0            estimate D2E/DX2                !
 ! D13   D(3,4,5,6)              0.0            estimate D2E/DX2                !
 ! D14   D(3,4,5,11)           180.0            estimate D2E/DX2                !
 ! D15   D(10,4,5,6)           180.0            estimate D2E/DX2                !
 ! D16   D(10,4,5,11)            0.0            estimate D2E/DX2                !
 ! D17   D(4,5,6,1)              0.0            estimate D2E/DX2                !
 ! D18   D(4,5,6,7)            180.0            estimate D2E/DX2                !
 ! D19   D(11,5,6,1)           180.0            estimate D2E/DX2                !
 ! D20   D(11,5,6,7)             0.0            estimate D2E/DX2                !
 --------------------------------------------------------------------------------
 Trust Radius=3.00D-01 FncErr=1.00D-07 GrdErr=1.00D-07 EigMax=2.50D+02 EigMin=1.00D-04
 Number of steps in this run=     57 maximum allowed number of steps=    100.
 GradGradGradGradGradGradGradGradGradGradGradGradGradGradGradGradGradGrad

                          Input orientation:                          
 ---------------------------------------------------------------------
 Center     Atomic      Atomic             Coordinates (Angstroms)
 Number     Number       Type             X           Y           Z
 ---------------------------------------------------------------------
      1          6           0       -3.209280    0.199430    0.000000
      2          6           0       -2.011500    0.935550    0.000000
      3          6           0       -0.775110    0.266300    0.000000
      4          6           0       -0.736500   -1.139070    0.000000
      5          6           0       -1.934290   -1.875190    0.000000
      6          6           0       -3.170670   -1.205940    0.000000
      7         17           0       -4.674830   -2.130350    0.000000
      8         17           0       -2.059980    2.700400    0.000000
      9          1           0        0.729050    1.190710    0.000000
     10          1           0        0.816140   -1.979510    0.000000
     11          1           0       -1.885800   -3.640030    0.000000
 ---------------------------------------------------------------------
                    Distance matrix (angstroms):
                    1          2          3          4          5
     1  C    0.000000
     2  C    1.405898   0.000000
     3  C    2.435088   1.405900   0.000000
     4  C    2.811801   2.435092   1.405900   0.000000
     5  C    2.435087   2.811800   2.435093   1.405907   0.000000
     6  C    1.405900   2.435088   2.811796   2.435088   1.405892
     7  Cl   2.752401   4.061166   4.577308   4.061167   2.752393
     8  Cl   2.752406   1.765516   2.752405   4.061173   4.577316
     9  H    4.061167   2.752403   1.765512   2.752401   4.061173
    10  H    4.577312   4.061173   2.752406   1.765511   2.752408
    11  H    4.061164   4.577306   4.061163   2.752397   1.765506
                    6          7          8          9         10
     6  C    0.000000
     7  Cl   1.765512   0.000000
     8  Cl   4.061173   5.493049   0.000000
     9  H    4.577308   6.342819   3.171412   0.000000
    10  H    4.061165   5.493041   5.493052   3.171416   0.000000
    11  H    2.752396   3.171407   6.342822   5.493040   3.171404
                   11
    11  H    0.000000
 Stoichiometry    C6H3Cl2(2)
 Framework group  CS[SG(C6H3Cl2)]
 Deg. of freedom    19
 Full point group                 CS      NOp   2
 Largest Abelian subgroup         CS      NOp   2
 Largest concise Abelian subgroup C1      NOp   1
                         Standard orientation:                         
 ---------------------------------------------------------------------
 Center     Atomic      Atomic             Coordinates (Angstroms)
 Number     Number       Type             X           Y           Z
 ---------------------------------------------------------------------
      1          6           0       -0.000001    0.754240    0.000000
      2          6           0        1.217543    0.051292    0.000000
      3          6           0        1.217543   -1.354609    0.000000
      4          6           0       -0.000001   -2.057561    0.000000
      5          6           0       -1.217550   -1.354604    0.000000
      6          6           0       -1.217545    0.051287    0.000000
      7         17           0       -2.746523    0.934043    0.000000
      8         17           0        2.746526    0.934047    0.000000
      9          1           0        2.746521   -2.237365    0.000000
     10          1           0       -0.000006   -3.823072    0.000000
     11          1           0       -2.746519   -2.237364    0.000000
 ---------------------------------------------------------------------
 Rotational constants (GHZ):           2.7044087           0.8231885           0.6310920
 Standard basis: VSTO-6G (5D, 7F)
 There are    27 symmetry adapted cartesian basis functions of A'  symmetry.
 There are     8 symmetry adapted cartesian basis functions of A"  symmetry.
 There are    27 symmetry adapted basis functions of A'  symmetry.
 There are     8 symmetry adapted basis functions of A"  symmetry.
    35 basis functions,   210 primitive gaussians,    35 cartesian basis functions
    21 alpha electrons       20 beta electrons
       nuclear repulsion energy       190.2251443527 Hartrees.
 Integral buffers will be    131072 words long.
 Regular integral format.
 Two-electron integral symmetry is turned off.
 Do NDO integrals.
 One-electron integrals computed using PRISM.
 NBasis=    35 RedAO= T EigKep=  1.00D+00  NBF=    27     8
 NBsUse=    35 1.00D-06 EigRej= -1.00D+00 NBFU=    27     8
 Simple Huckel Guess.
 Initial guess orbital symmetries:
 Alpha Orbitals:
       Occupied  (A') (A') (A') (A') (A') (A') (A') (A') (A') (A")
                 (A') (A') (A') (A") (A') (A") (A') (A') (A") (A")
                 (A')
       Virtual   (A') (A") (A") (A') (A') (A") (A') (A') (A') (A')
                 (A') (A') (A') (A')
 Beta  Orbitals:
       Occupied  (A') (A') (A') (A') (A') (A') (A') (A') (A') (A")
                 (A') (A') (A') (A") (A') (A") (A') (A') (A") (A")
       Virtual   (A') (A') (A") (A") (A') (A') (A") (A') (A') (A')
                 (A') (A') (A') (A') (A')
 The electronic state of the initial guess is 2-A'.
 Initial guess <Sx>= 0.0000 <Sy>= 0.0000 <Sz>= 0.5000 <S**2>= 0.7500 S= 0.5000
 Keep J ints in memory in canonical form, NReq=862793.
 Overlap will be assumed to be unity.
 Requested convergence on RMS density matrix=1.00D-08 within  32 cycles.
 Requested convergence on MAX density matrix=1.00D-06.
 Requested convergence on             energy=1.00D-06.
 No special actions if energy rises.
 Fock symm off for IB=2 I1=    1 I=   28 J=    6 Cut=1.00D-07 Err=2.79D-03
 Fock matrix is not symmetric: symmetry in diagonalization turned off.
 Rare condition: small coef for last iteration:  0.000D+00
 Rare condition: small coef for last iteration:  0.000D+00
 >>>>>>>>>> Convergence criterion not met.
 SCF Done:  E(UAM1) =  0.478390584581     A.U. after   33 cycles
            NFock= 32  Conv=0.56D-07     -V/T= 1.0053
 <Sx>= 0.0000 <Sy>= 0.0000 <Sz>= 0.5000 <S**2>= 1.0950 S= 0.6597
 <L.S>=  0.00000000000    
 Annihilation of the first spin contaminant:
 S**2 before annihilation     1.0950,   after     0.8596
 Keep J ints in memory in canonical form, NReq=863193.
 SCF Done:  E(UAM1) =  0.478390584580     a.u. after    1 cycles
            Convg  =    0.1312D-06                     1 Fock formations.
              S**2 =  1.0950                  -V/T =  1.0053
 <Sx>= 0.0000 <Sy>= 0.0000 <Sz>= 0.5000 <S**2>= 1.0950 S= 0.6597
 <L.S>=  0.00000000000    
 Annihilation of the first spin contaminant:
 S**2 before annihilation     1.0950,   after     0.8596

 **********************************************************************

            Population analysis using the SCF Density.

 **********************************************************************

 Orbital symmetries:
 Alpha Orbitals:
       Occupied  (A') (A') (A') (A') (A') (A') (A') (A') (A') (A')
                 (A") (A') (A") (A') (A') (A") (A') (A') (A') (A")
                 (A")
       Virtual   (A') (A") (A") (A') (A') (A') (A') (A") (A') (A')
                 (A') (A') (A') (A')
 Beta  Orbitals:
       Occupied  (A') (A') (A') (A') (A') (A') (A') (A') (A') (A')
                 (A") (A') (A") (A') (A") (A') (A') (A') (A") (A")
       Virtual   (A') (A") (A') (A") (A') (A') (A') (A') (A") (A')
                 (A') (A') (A') (A') (A')
 The electronic state is 2-A'.
 Alpha  occ. eigenvalues --   -1.42402  -1.37355  -1.35218  -1.11122  -1.11095
 Alpha  occ. eigenvalues --   -0.82098  -0.81908  -0.63391  -0.60063  -0.53891
 Alpha  occ. eigenvalues --   -0.53527  -0.49312  -0.47947  -0.45323  -0.44087
 Alpha  occ. eigenvalues --   -0.43663  -0.43407  -0.40651  -0.37968  -0.37046
 Alpha  occ. eigenvalues --   -0.34728
 Alpha virt. eigenvalues --   -0.01370  -0.00765   0.00649   0.00691   0.01238
 Alpha virt. eigenvalues --    0.03568   0.05250   0.08913   0.14281   0.14307
 Alpha virt. eigenvalues --    0.16544   0.17107   0.17980   0.19641
  Beta  occ. eigenvalues --   -1.41890  -1.37321  -1.35109  -1.11875  -1.08847
  Beta  occ. eigenvalues --   -0.82764  -0.79953  -0.62456  -0.59702  -0.53928
  Beta  occ. eigenvalues --   -0.53202  -0.48761  -0.48048  -0.45060  -0.43765
  Beta  occ. eigenvalues --   -0.43368  -0.41196  -0.39487  -0.35955  -0.34970
  Beta virt. eigenvalues --   -0.02674  -0.00979  -0.00685   0.01693   0.02015
  Beta virt. eigenvalues --    0.02219   0.04500   0.05096   0.09183   0.14695
  Beta virt. eigenvalues --    0.14799   0.17024   0.17944   0.18245   0.19675
          Condensed to atoms (all electrons):
               1          2          3          4          5          6
     1  C    3.977868   0.000000   0.000000   0.000000   0.000000   0.000000
     2  C    0.000000   4.069735   0.000000   0.000000   0.000000   0.000000
     3  C    0.000000   0.000000   4.112484   0.000000   0.000000   0.000000
     4  C    0.000000   0.000000   0.000000   4.153793   0.000000   0.000000
     5  C    0.000000   0.000000   0.000000   0.000000   4.112485   0.000000
     6  C    0.000000   0.000000   0.000000   0.000000   0.000000   4.069736
     7  Cl   0.000000   0.000000   0.000000   0.000000   0.000000   0.000000
     8  Cl   0.000000   0.000000   0.000000   0.000000   0.000000   0.000000
     9  H    0.000000   0.000000   0.000000   0.000000   0.000000   0.000000
    10  H    0.000000   0.000000   0.000000   0.000000   0.000000   0.000000
    11  H    0.000000   0.000000   0.000000   0.000000   0.000000   0.000000
               7          8          9         10         11
     1  C    0.000000   0.000000   0.000000   0.000000   0.000000
     2  C    0.000000   0.000000   0.000000   0.000000   0.000000
     3  C    0.000000   0.000000   0.000000   0.000000   0.000000
     4  C    0.000000   0.000000   0.000000   0.000000   0.000000
     5  C    0.000000   0.000000   0.000000   0.000000   0.000000
     6  C    0.000000   0.000000   0.000000   0.000000   0.000000
     7  Cl   7.022473   0.000000   0.000000   0.000000   0.000000
     8  Cl   0.000000   7.022473   0.000000   0.000000   0.000000
     9  H    0.000000   0.000000   0.816407   0.000000   0.000000
    10  H    0.000000   0.000000   0.000000   0.826141   0.000000
    11  H    0.000000   0.000000   0.000000   0.000000   0.816404
          Atomic-Atomic Spin Densities.
               1          2          3          4          5          6
     1  C    0.993423   0.000000   0.000000   0.000000   0.000000   0.000000
     2  C    0.000000  -0.004885   0.000000   0.000000   0.000000   0.000000
     3  C    0.000000   0.000000  -0.367537   0.000000   0.000000   0.000000
     4  C    0.000000   0.000000   0.000000   0.329263   0.000000   0.000000
     5  C    0.000000   0.000000   0.000000   0.000000  -0.367520   0.000000
     6  C    0.000000   0.000000   0.000000   0.000000   0.000000  -0.004875
     7  Cl   0.000000   0.000000   0.000000   0.000000   0.000000   0.000000
     8  Cl   0.000000   0.000000   0.000000   0.000000   0.000000   0.000000
     9  H    0.000000   0.000000   0.000000   0.000000   0.000000   0.000000
    10  H    0.000000   0.000000   0.000000   0.000000   0.000000   0.000000
    11  H    0.000000   0.000000   0.000000   0.000000   0.000000   0.000000
               7          8          9         10         11
     1  C    0.000000   0.000000   0.000000   0.000000   0.000000
     2  C    0.000000   0.000000   0.000000   0.000000   0.000000
     3  C    0.000000   0.000000   0.000000   0.000000   0.000000
     4  C    0.000000   0.000000   0.000000   0.000000   0.000000
     5  C    0.000000   0.000000   0.000000   0.000000   0.000000
     6  C    0.000000   0.000000   0.000000   0.000000   0.000000
     7  Cl   0.004889   0.000000   0.000000   0.000000   0.000000
     8  Cl   0.000000   0.004889   0.000000   0.000000   0.000000
     9  H    0.000000   0.000000   0.347305   0.000000   0.000000
    10  H    0.000000   0.000000   0.000000  -0.282243   0.000000
    11  H    0.000000   0.000000   0.000000   0.000000   0.347288
 Mulliken charges and spin densities:
               1          2
     1  C    0.022132   0.993423
     2  C   -0.069735  -0.004885
     3  C   -0.112484  -0.367537
     4  C   -0.153793   0.329263
     5  C   -0.112485  -0.367520
     6  C   -0.069736  -0.004875
     7  Cl  -0.022473   0.004889
     8  Cl  -0.022473   0.004889
     9  H    0.183593   0.347305
    10  H    0.173859  -0.282243
    11  H    0.183596   0.347288
 Sum of Mulliken charges =  -0.00000   1.00000
 Mulliken charges and spin densities with hydrogens summed into heavy atoms:
               1          2
     1  C    0.022132   0.993423
     2  C   -0.069735  -0.004885
     3  C    0.071109  -0.020231
     4  C    0.020066   0.047020
     5  C    0.071110  -0.020232
     6  C   -0.069736  -0.004875
     7  Cl  -0.022473   0.004889
     8  Cl  -0.022473   0.004889
 Charge=             -0.0000 electrons
 Dipole moment (field-independent basis, Debye):
    X=             -0.0000    Y=             -3.9384    Z=              0.0000  Tot=              3.9384
 N-N= 1.902251443527D+02 E-N=-2.608461152614D+02  KE=-9.000882830540D+01
 Symmetry A'   KE=-6.956752046193D+01
 Symmetry A"   KE=-2.044130784347D+01
 Symmetry A'   SP= 1.000000000000D+00
 Symmetry A"   SP= 2.775557561563D-16
 Calling FoFJK, ICntrl=      2127 FMM=F ISym2X=1 I1Cent= 0 IOpClX= 1 NMat=1 NMatS=1 NMatT=0.
 ***** Axes restored to original set *****
 -------------------------------------------------------------------
 Center     Atomic                   Forces (Hartrees/Bohr)
 Number     Number              X              Y              Z
 -------------------------------------------------------------------
      1        6           0.061591866   -0.033337434   -0.000000000
      2        6          -0.009802915    0.026549649    0.000000000
      3        6           0.059459560    0.011808944    0.000000000
      4        6           0.051872728   -0.028080810    0.000000000
      5        6           0.022632906   -0.056242934    0.000000000
      6        6          -0.027593357   -0.006307821    0.000000000
      7       17           0.032491926    0.019709689    0.000000000
      8       17           0.001264270   -0.037984282    0.000000000
      9        1          -0.090593207   -0.054431792   -0.000000000
     10        1          -0.097361615    0.052701649   -0.000000000
     11        1          -0.003962161    0.105615142   -0.000000000
 -------------------------------------------------------------------
 Cartesian Forces:  Max     0.105615142 RMS     0.040758854

 GradGradGradGradGradGradGradGradGradGradGradGradGradGradGradGradGradGrad
 Berny optimization.
 FormGI is forming the generalized inverse of G from B-inverse, IUseBI=4.
 Internal  Forces:  Max     0.110710198 RMS     0.032229336
 Search for a local minimum.
 Step number   1 out of a maximum of   57
 All quantities printed in internal units (Hartrees-Bohrs-Radians)
 Mixed Optimization -- RFO/linear search
 Second derivative matrix not updated -- first step.
 ITU=  0
     Eigenvalues ---    0.02011   0.02011   0.02011   0.02011   0.02011
     Eigenvalues ---    0.02011   0.02011   0.02011   0.06524   0.06524
     Eigenvalues ---    0.06524   0.16000   0.16000   0.16000   0.22068
     Eigenvalues ---    0.23477   0.24896   0.25000   0.25000   0.29033
     Eigenvalues ---    0.29033   0.40971   0.41355   0.44656   0.44657
     Eigenvalues ---    0.44657   0.44657
 RFO step:  Lambda=-1.71664824D-01 EMin= 2.01065791D-02
 Linear search not attempted -- first point.
 Maximum step size (   0.300) exceeded in Quadratic search.
    -- Step size scaled by   0.368
 Iteration  1 RMS(Cart)=  0.04834511 RMS(Int)=  0.00005098
 Iteration  2 RMS(Cart)=  0.00008690 RMS(Int)=  0.00000452
 Iteration  3 RMS(Cart)=  0.00000000 RMS(Int)=  0.00000452
 ClnCor:  largest displacement from symmetrization is 2.98D-10 for atom    10.
 Variable       Old X    -DE/DX   Delta X   Delta X   Delta X     New X
                                 (Linear)    (Quad)   (Total)
    R1        2.65676  -0.03997   0.00000  -0.02363  -0.02363   2.63314
    R2        2.65677  -0.03997   0.00000  -0.02363  -0.02363   2.63314
    R3        2.65677  -0.03295   0.00000  -0.01963  -0.01963   2.63714
    R4        3.33634  -0.03800   0.00000  -0.03029  -0.03029   3.30605
    R5        2.65677  -0.04799   0.00000  -0.02876  -0.02877   2.62800
    R6        3.33633  -0.10568   0.00000  -0.16426  -0.16426   3.17207
    R7        2.65678  -0.04799   0.00000  -0.02876  -0.02877   2.62801
    R8        3.33633  -0.11071   0.00000  -0.17208  -0.17208   3.16426
    R9        2.65675  -0.03295   0.00000  -0.01962  -0.01962   2.63713
   R10        3.33632  -0.10568   0.00000  -0.16426  -0.16426   3.17206
   R11        3.33633  -0.03800   0.00000  -0.03029  -0.03029   3.30605
    A1        2.09439   0.02073   0.00000   0.01866   0.01868   2.11308
    A2        2.09439  -0.01667   0.00000  -0.01445  -0.01444   2.07995
    A3        2.09440   0.00870   0.00000   0.00755   0.00754   2.10194
    A4        2.09439   0.00797   0.00000   0.00690   0.00690   2.10129
    A5        2.09440   0.00333   0.00000   0.00268   0.00267   2.09707
    A6        2.09440  -0.00343   0.00000  -0.00330  -0.00330   2.09110
    A7        2.09439   0.00010   0.00000   0.00062   0.00063   2.09502
    A8        2.09439   0.00596   0.00000   0.00488   0.00486   2.09925
    A9        2.09440  -0.00298   0.00000  -0.00244  -0.00243   2.09197
   A10        2.09440  -0.00298   0.00000  -0.00244  -0.00243   2.09196
   A11        2.09439   0.00333   0.00000   0.00268   0.00267   2.09707
   A12        2.09439   0.00011   0.00000   0.00062   0.00063   2.09501
   A13        2.09440  -0.00343   0.00000  -0.00330  -0.00330   2.09110
   A14        2.09440  -0.01668   0.00000  -0.01445  -0.01445   2.07995
   A15        2.09439   0.00871   0.00000   0.00755   0.00754   2.10194
   A16        2.09439   0.00797   0.00000   0.00690   0.00690   2.10129
    D1        0.00000   0.00000   0.00000   0.00000   0.00000   0.00000
    D2        3.14159   0.00000   0.00000  -0.00000   0.00000   3.14159
    D3        0.00000  -0.00000   0.00000  -0.00000   0.00000   0.00000
    D4        3.14159  -0.00000   0.00000  -0.00000   0.00000   3.14159
    D5        0.00000  -0.00000   0.00000  -0.00000   0.00000   0.00000
    D6        3.14159  -0.00000   0.00000  -0.00000   0.00000   3.14159
    D7        3.14159   0.00000   0.00000   0.00000   0.00000   3.14159
    D8        0.00000  -0.00000   0.00000  -0.00000   0.00000   0.00000
    D9        0.00000   0.00000   0.00000   0.00000   0.00000   0.00000
   D10        3.14159  -0.00000   0.00000  -0.00000   0.00000   3.14159
   D11        3.14159   0.00000   0.00000   0.00000   0.00000   3.14159
   D12        0.00000  -0.00000   0.00000  -0.00000   0.00000   0.00000
   D13        0.00000  -0.00000   0.00000   0.00000   0.00000   0.00000
   D14        3.14159  -0.00000   0.00000  -0.00000   0.00000   3.14159
   D15        3.14159   0.00000   0.00000   0.00000   0.00000   3.14159
   D16        0.00000  -0.00000   0.00000   0.00000   0.00000   0.00000
   D17        0.00000   0.00000   0.00000   0.00000   0.00000   0.00000
   D18        3.14159  -0.00000   0.00000  -0.00000   0.00000   3.14159
   D19        3.14159   0.00000   0.00000   0.00000   0.00000   3.14159
   D20        0.00000   0.00000   0.00000   0.00000   0.00000   0.00000
         Item               Value     Threshold  Converged?
 Maximum Force            0.110710     0.000450     NO 
 RMS     Force            0.032229     0.000300     NO 
 Maximum Displacement     0.174174     0.001800     NO 
 RMS     Displacement     0.048349     0.001200     NO 
 Predicted change in Energy=-5.929767D-02
 GradGradGradGradGradGradGradGradGradGradGradGradGradGradGradGradGradGrad

                          Input orientation:                          
 ---------------------------------------------------------------------
 Center     Atomic      Atomic             Coordinates (Angstroms)
 Number     Number       Type             X           Y           Z
 ---------------------------------------------------------------------
      1          6           0       -3.175607    0.181203    0.000000
      2          6           0       -1.995345    0.921833    0.000000
      3          6           0       -0.771495    0.251271    0.000000
      4          6           0       -0.736683   -1.138971    0.000000
      5          6           0       -1.919730   -1.869999    0.000000
      6          6           0       -3.150353   -1.211966    0.000000
      7         17           0       -4.642502   -2.125304    0.000000
      8         17           0       -2.046526    2.670571    0.000000
      9          1           0        0.660192    1.127586    0.000000
     10          1           0        0.735877   -1.936063    0.000000
     11          1           0       -1.870598   -3.547861    0.000000
 ---------------------------------------------------------------------
                    Distance matrix (angstroms):
                    1          2          3          4          5
     1  C    0.000000
     2  C    1.393395   0.000000
     3  C    2.405132   1.395515   0.000000
     4  C    2.773303   2.414776   1.390678   0.000000
     5  C    2.405132   2.792856   2.412101   1.390684   0.000000
     6  C    1.393398   2.426343   2.792853   2.414773   1.395508
     7  Cl   2.733451   4.036395   4.542334   4.028433   2.734715
     8  Cl   2.733455   1.749487   2.734724   4.028436   4.542341
     9  H    3.950822   2.663496   1.678587   2.662431   3.954935
    10  H    4.447755   3.953118   2.656427   1.674452   2.656428
    11  H    3.950819   4.471435   3.954925   2.662426   1.678581
                    6          7          8          9         10
     6  C    0.000000
     7  Cl   1.749484   0.000000
     8  Cl   4.036400   5.453394   0.000000
     9  H    4.471438   6.220920   3.115626   0.000000
    10  H    3.953113   5.381707   5.381714   3.064584   0.000000
    11  H    2.663490   3.115625   6.220920   5.316456   3.064572
                   11
    11  H    0.000000
 Stoichiometry    C6H3Cl2(2)
 Framework group  CS[SG(C6H3Cl2)]
 Deg. of freedom    19
 Full point group                 CS      NOp   2
 Largest Abelian subgroup         CS      NOp   2
 Largest concise Abelian subgroup C1      NOp   1
                         Standard orientation:                         
 ---------------------------------------------------------------------
 Center     Atomic      Atomic             Coordinates (Angstroms)
 Number     Number       Type             X           Y           Z
 ---------------------------------------------------------------------
      1          6           0        0.000000    0.734225    0.000000
      2          6           0        1.213171    0.048829    0.000000
      3          6           0        1.206047   -1.346667    0.000000
      4          6           0       -0.000002   -2.039078    0.000000
      5          6           0       -1.206054   -1.346663    0.000000
      6          6           0       -1.213172    0.048827    0.000000
      7         17           0       -2.726695    0.926291    0.000000
      8         17           0        2.726699    0.926290    0.000000
      9          1           0        2.658229   -2.188584    0.000000
     10          1           0       -0.000006   -3.713530    0.000000
     11          1           0       -2.658227   -2.188582    0.000000
 ---------------------------------------------------------------------
 Rotational constants (GHZ):           2.7640595           0.8360927           0.6419201
 Standard basis: VSTO-6G (5D, 7F)
 There are    27 symmetry adapted cartesian basis functions of A'  symmetry.
 There are     8 symmetry adapted cartesian basis functions of A"  symmetry.
 There are    27 symmetry adapted basis functions of A'  symmetry.
 There are     8 symmetry adapted basis functions of A"  symmetry.
    35 basis functions,   210 primitive gaussians,    35 cartesian basis functions
    21 alpha electrons       20 beta electrons
       nuclear repulsion energy       191.4917132725 Hartrees.
 Integral buffers will be    131072 words long.
 Regular integral format.
 Two-electron integral symmetry is turned off.
 Do NDO integrals.
 One-electron integrals computed using PRISM.
 NBasis=    35 RedAO= T EigKep=  1.00D+00  NBF=    27     8
 NBsUse=    35 1.00D-06 EigRej= -1.00D+00 NBFU=    27     8
 Initial guess from the checkpoint file:  "geometry_chks/123-1_3-ClBzNeutralRadical.chk"
 B after Tr=     0.000000   -0.000000    0.000000
         Rot=    1.000000    0.000000    0.000000    0.000000 Ang=   0.00 deg.
 Initial guess orbital symmetries:
 Alpha Orbitals:
       Occupied  (A') (A') (A') (A') (A') (A') (A') (A') (A') (A')
                 (A") (A') (A") (A') (A') (A") (A') (A') (A') (A")
                 (A")
       Virtual   (A') (A") (A") (A') (A') (A') (A') (A") (A') (A')
                 (A') (A') (A') (A')
 Beta  Orbitals:
       Occupied  (A') (A') (A') (A') (A') (A') (A') (A') (A') (A')
                 (A") (A') (A") (A') (A") (A') (A') (A') (A") (A")
       Virtual   (A') (A") (A') (A") (A') (A') (A') (A') (A") (A')
                 (A') (A') (A') (A') (A')
 Initial guess <Sx>= 0.0000 <Sy>= 0.0000 <Sz>= 0.5000 <S**2>= 1.0950 S= 0.6597
 Keep J ints in memory in canonical form, NReq=862793.
 Overlap will be assumed to be unity.
 Requested convergence on RMS density matrix=1.00D-08 within  32 cycles.
 Requested convergence on MAX density matrix=1.00D-06.
 Requested convergence on             energy=1.00D-06.
 No special actions if energy rises.
 Fock symm off for IB=2 I1=    1 I=   28 J=   18 Cut=1.00D-07 Err=2.92D-03
 Fock matrix is not symmetric: symmetry in diagonalization turned off.
 Rare condition: small coef for last iteration:  0.000D+00
 Rare condition: small coef for last iteration:  0.000D+00
 Rare condition: small coef for last iteration:  0.000D+00
 Rare condition: small coef for last iteration:  0.000D+00
 Rare condition: small coef for last iteration:  0.000D+00
 Rare condition: small coef for last iteration:  0.000D+00
 Rare condition: small coef for last iteration:  0.000D+00
 Rare condition: small coef for last iteration:  0.000D+00
 Rare condition: small coef for last iteration:  0.000D+00
 Rare condition: small coef for last iteration:  0.000D+00
 Rare condition: small coef for last iteration:  0.000D+00
 Rare condition: small coef for last iteration:  0.000D+00
 >>>>>>>>>> Convergence criterion not met.
 SCF Done:  E(UAM1) =  0.413597626327     A.U. after   33 cycles
            NFock= 32  Conv=0.16D-02     -V/T= 1.0046
 <Sx>= 0.0000 <Sy>= 0.0000 <Sz>= 0.5000 <S**2>= 0.9278 S= 0.5853
 <L.S>=  0.00000000000    
 Annihilation of the first spin contaminant:
 S**2 before annihilation     0.9278,   after     0.7809
 Keep J ints in memory in canonical form, NReq=863193.
 LinEq1:  Iter=  0 NonCon=     1 RMS=3.76D-04 Max=4.55D-03 NDo=     1
 AX will form     1 AO Fock derivatives at one time.
 LinEq1:  Iter=  1 NonCon=     1 RMS=3.82D-05 Max=2.55D-04 NDo=     1
 LinEq1:  Iter=  2 NonCon=     1 RMS=9.61D-06 Max=7.33D-05 NDo=     1
 LinEq1:  Iter=  3 NonCon=     1 RMS=2.16D-06 Max=1.50D-05 NDo=     1
 LinEq1:  Iter=  4 NonCon=     1 RMS=3.07D-07 Max=2.90D-06 NDo=     1
 LinEq1:  Iter=  5 NonCon=     1 RMS=7.44D-08 Max=7.02D-07 NDo=     1
 LinEq1:  Iter=  6 NonCon=     1 RMS=2.23D-08 Max=2.30D-07 NDo=     1
 LinEq1:  Iter=  7 NonCon=     1 RMS=7.27D-09 Max=7.89D-08 NDo=     1
 LinEq1:  Iter=  8 NonCon=     0 RMS=1.34D-09 Max=1.32D-08 NDo=     1
 Linear equations converged to 2.437D-09 2.437D-08 after     8 iterations.
 Incorrect curvature in search direction -- initial direction reversed.
 LinEq1:  Iter=  0 NonCon=     1 RMS=6.49D-04 Max=1.00D-02 NDo=     1
 LinEq1:  Iter=  1 NonCon=     1 RMS=9.01D-05 Max=9.34D-04 NDo=     1
 LinEq1:  Iter=  2 NonCon=     1 RMS=1.96D-05 Max=2.49D-04 NDo=     1
 LinEq1:  Iter=  3 NonCon=     1 RMS=4.52D-06 Max=3.76D-05 NDo=     1
 LinEq1:  Iter=  4 NonCon=     1 RMS=1.15D-06 Max=1.52D-05 NDo=     1
 LinEq1:  Iter=  5 NonCon=     1 RMS=3.51D-07 Max=3.96D-06 NDo=     1
 LinEq1:  Iter=  6 NonCon=     1 RMS=8.37D-08 Max=9.70D-07 NDo=     1
 LinEq1:  Iter=  7 NonCon=     1 RMS=1.95D-08 Max=1.34D-07 NDo=     1
 LinEq1:  Iter=  8 NonCon=     1 RMS=3.74D-09 Max=2.95D-08 NDo=     1
 LinEq1:  Iter=  9 NonCon=     0 RMS=7.48D-10 Max=7.06D-09 NDo=     1
 Linear equations converged to 2.437D-09 2.437D-08 after     9 iterations.
 Incorrect curvature in search direction -- initial direction reversed.
 LinEq1:  Iter=  0 NonCon=     1 RMS=5.60D-04 Max=7.66D-03 NDo=     1
 LinEq1:  Iter=  1 NonCon=     1 RMS=1.05D-04 Max=7.76D-04 NDo=     1
 LinEq1:  Iter=  2 NonCon=     1 RMS=2.29D-05 Max=1.86D-04 NDo=     1
 LinEq1:  Iter=  3 NonCon=     1 RMS=4.93D-06 Max=3.07D-05 NDo=     1
 LinEq1:  Iter=  4 NonCon=     1 RMS=1.47D-06 Max=2.14D-05 NDo=     1
 LinEq1:  Iter=  5 NonCon=     1 RMS=3.29D-07 Max=3.97D-06 NDo=     1
 LinEq1:  Iter=  6 NonCon=     1 RMS=7.70D-08 Max=8.27D-07 NDo=     1
 LinEq1:  Iter=  7 NonCon=     1 RMS=1.31D-08 Max=1.12D-07 NDo=     1
 LinEq1:  Iter=  8 NonCon=     0 RMS=2.32D-09 Max=2.15D-08 NDo=     1
 Linear equations converged to 2.437D-09 2.437D-08 after     8 iterations.
     Accept linear search using points  1 and  2.
     Minimum is close to point  2 DX= -2.34D-02 DF= -2.28D-07 DXR=  2.39D-02 DFR=  5.83D-04 which will be used.
 LinEq1:  Iter=  0 NonCon=     1 RMS=2.19D-05 Max=2.06D-04 NDo=     1
 LinEq1:  Iter=  1 NonCon=     1 RMS=6.08D-06 Max=5.12D-05 NDo=     1
 LinEq1:  Iter=  2 NonCon=     1 RMS=1.25D-06 Max=1.08D-05 NDo=     1
 LinEq1:  Iter=  3 NonCon=     1 RMS=2.90D-07 Max=2.88D-06 NDo=     1
 LinEq1:  Iter=  4 NonCon=     1 RMS=5.57D-08 Max=4.12D-07 NDo=     1
 LinEq1:  Iter=  5 NonCon=     1 RMS=8.22D-09 Max=6.60D-08 NDo=     1
 LinEq1:  Iter=  6 NonCon=     0 RMS=1.64D-09 Max=1.21D-08 NDo=     1
 Linear equations converged to 2.437D-09 2.437D-08 after     6 iterations.
     Minimum is close to point  2 DX=  1.17D-02 DF= -1.69D-10 DXR=  1.16D-02 DFR=  1.34D-04 which will be used.
 LinEq1:  Iter=  0 NonCon=     1 RMS=3.35D-07 Max=2.59D-06 NDo=     1
 LinEq1:  Iter=  1 NonCon=     1 RMS=1.14D-07 Max=9.81D-07 NDo=     1
 LinEq1:  Iter=  2 NonCon=     1 RMS=2.38D-08 Max=1.66D-07 NDo=     1
 LinEq1:  Iter=  3 NonCon=     1 RMS=5.36D-09 Max=6.55D-08 NDo=     1
 LinEq1:  Iter=  4 NonCon=     1 RMS=1.37D-09 Max=1.65D-08 NDo=     1
 LinEq1:  Iter=  5 NonCon=     1 RMS=3.77D-10 Max=4.09D-09 NDo=     1
 LinEq1:  Iter=  6 NonCon=     1 RMS=6.87D-11 Max=5.81D-10 NDo=     1
 LinEq1:  Iter=  7 NonCon=     0 RMS=1.78D-11 Max=1.67D-10 NDo=     1
 Linear equations converged to 5.280D-11 5.280D-10 after     7 iterations.
 LinEq1:  Iter=  0 NonCon=     1 RMS=1.67D-08 Max=1.57D-07 NDo=     1
 LinEq1:  Iter=  1 NonCon=     1 RMS=6.60D-09 Max=5.53D-08 NDo=     1
 LinEq1:  Iter=  2 NonCon=     1 RMS=1.25D-09 Max=1.11D-08 NDo=     1
 LinEq1:  Iter=  3 NonCon=     1 RMS=2.89D-10 Max=3.64D-09 NDo=     1
 LinEq1:  Iter=  4 NonCon=     1 RMS=7.49D-11 Max=9.43D-10 NDo=     1
 LinEq1:  Iter=  5 NonCon=     1 RMS=1.92D-11 Max=1.92D-10 NDo=     1
 LinEq1:  Iter=  6 NonCon=     1 RMS=4.29D-12 Max=2.57D-11 NDo=     1
 LinEq1:  Iter=  7 NonCon=     0 RMS=1.05D-12 Max=7.39D-12 NDo=     1
 Linear equations converged to 2.584D-12 2.584D-11 after     7 iterations.
 SCF Done:  E(UAM1) =  0.406073453161     a.u. after    7 cycles
            Convg  =    0.1209D-07                    59 Fock formations.
              S**2 =  1.4489                  -V/T =  1.0045
 <Sx>= 0.0000 <Sy>= 0.0000 <Sz>= 0.5000 <S**2>= 1.4489 S= 0.8034
 <L.S>=  0.00000000000    
 Annihilation of the first spin contaminant:
 S**2 before annihilation     1.4489,   after     1.3172
 Calling FoFJK, ICntrl=      2127 FMM=F ISym2X=1 I1Cent= 0 IOpClX= 1 NMat=1 NMatS=1 NMatT=0.
 ***** Axes restored to original set *****
 -------------------------------------------------------------------
 Center     Atomic                   Forces (Hartrees/Bohr)
 Number     Number              X              Y              Z
 -------------------------------------------------------------------
      1        6           0.034009267   -0.018409261   -0.000000000
      2        6          -0.009808271    0.040500336    0.000000000
      3        6           0.093917982    0.038308693    0.000000000
      4        6           0.082298818   -0.044551001    0.000000000
      5        6           0.019286893   -0.099582144    0.000000000
      6        6          -0.039276495   -0.013929953    0.000000000
      7       17           0.026611304    0.016174411    0.000000000
      8       17           0.001008666   -0.031126877    0.000000000
      9        1          -0.101834830   -0.060945017   -0.000000000
     10        1          -0.101557580    0.054972863   -0.000000000
     11        1          -0.004655755    0.118587949   -0.000000000
 -------------------------------------------------------------------
 Cartesian Forces:  Max     0.118587949 RMS     0.048538754

 GradGradGradGradGradGradGradGradGradGradGradGradGradGradGradGradGradGrad
 Berny optimization.
 Using GEDIIS/GDIIS optimizer.
 FormGI is forming the generalized inverse of G from B-inverse, IUseBI=4.
 Internal  Forces:  Max     0.118673413 RMS     0.031105879
 Search for a local minimum.
 Step number   2 out of a maximum of   57
 All quantities printed in internal units (Hartrees-Bohrs-Radians)
 Mixed Optimization -- RFO/linear search
 Update second derivatives using D2CorX and points    1    2
 DE= -7.23D-02 DEPred=-5.93D-02 R= 1.22D+00
 TightC=F SS=  1.41D+00  RLast= 3.00D-01 DXNew= 5.0454D-01 9.0000D-01
 Trust test= 1.22D+00 RLast= 3.00D-01 DXMaxT set to 5.05D-01
 ITU=  1  0
 Use linear search instead of GDIIS.
     Eigenvalues ---  -10.12019   0.00017   0.02011   0.02011   0.02011
     Eigenvalues ---    0.02011   0.02011   0.02011   0.02011   0.02011
     Eigenvalues ---    0.06524   0.06802   0.15996   0.16000   0.16000
     Eigenvalues ---    0.22067   0.23468   0.24977   0.25000   0.25011
     Eigenvalues ---    0.28850   0.29033   0.40954   0.41282   0.44600
     Eigenvalues ---    0.44656   0.44657
 RFO step:  Lambda=-1.01202065D+01 EMin=-1.01201928D+01
 I=     1 Eig=   -1.01D+01 Dot1=  7.06D-03
 I=     1 Stepn=  6.00D-01 RXN=   6.00D-01 EDone=F
 Mixed    1 eigenvectors in step.  Raw Step.Grad=  7.06D-03.
 RFO eigenvector is Hessian eigenvector with negative curvature.
 Taking step of  6.00D-01 in eigenvector direction(s).  Step.Grad=  4.43D-02.
 Skip linear search -- no minimum in search direction.
 Maximum step size (   0.505) exceeded in Quadratic search.
    -- Step size not scaled.
 Iteration  1 RMS(Cart)=  0.09235892 RMS(Int)=  0.01246319
 Iteration  2 RMS(Cart)=  0.01756427 RMS(Int)=  0.00015445
 Iteration  3 RMS(Cart)=  0.00003469 RMS(Int)=  0.00015200
 Iteration  4 RMS(Cart)=  0.00000000 RMS(Int)=  0.00015200
 ClnCor:  largest displacement from symmetrization is 1.96D-12 for atom     9.
 Variable       Old X    -DE/DX   Delta X   Delta X   Delta X     New X
                                 (Linear)    (Quad)   (Total)
    R1        2.63314  -0.01405   0.00000   0.21963   0.21944   2.85257
    R2        2.63314  -0.01405   0.00000   0.21961   0.21942   2.85256
    R3        2.63714  -0.00709   0.00000   0.21895   0.21895   2.85609
    R4        3.30605  -0.03114   0.00000   0.06005   0.06005   3.36610
    R5        2.62800  -0.01795   0.00000   0.25491   0.25510   2.88311
    R6        3.17207  -0.11867   0.00000  -0.11148  -0.11148   3.06059
    R7        2.62801  -0.01795   0.00000   0.25491   0.25510   2.88311
    R8        3.16426  -0.11548   0.00000  -0.03969  -0.03969   3.12457
    R9        2.63713  -0.00708   0.00000   0.21895   0.21894   2.85607
   R10        3.17206  -0.11867   0.00000  -0.11147  -0.11147   3.06059
   R11        3.30605  -0.03114   0.00000   0.06004   0.06004   3.36609
    A1        2.11308   0.01760   0.00000  -0.02798  -0.02857   2.08451
    A2        2.07995  -0.01321   0.00000   0.03018   0.03000   2.10995
    A3        2.10194   0.00677   0.00000  -0.01688  -0.01679   2.08515
    A4        2.10129   0.00644   0.00000  -0.01331  -0.01322   2.08808
    A5        2.09707   0.00200   0.00000  -0.01133  -0.01108   2.08599
    A6        2.09110  -0.00288   0.00000   0.00479   0.00466   2.09576
    A7        2.09502   0.00088   0.00000   0.00654   0.00642   2.10144
    A8        2.09925   0.00481   0.00000  -0.00975  -0.00929   2.08997
    A9        2.09197  -0.00241   0.00000   0.00487   0.00464   2.09661
   A10        2.09196  -0.00241   0.00000   0.00487   0.00464   2.09661
   A11        2.09707   0.00200   0.00000  -0.01132  -0.01108   2.08599
   A12        2.09501   0.00088   0.00000   0.00654   0.00642   2.10143
   A13        2.09110  -0.00288   0.00000   0.00478   0.00466   2.09577
   A14        2.07995  -0.01321   0.00000   0.03019   0.03001   2.10996
   A15        2.10194   0.00677   0.00000  -0.01688  -0.01679   2.08515
   A16        2.10129   0.00644   0.00000  -0.01331  -0.01322   2.08807
    D1        0.00000   0.00000   0.00000  -0.00000   0.00000   0.00000
    D2        3.14159  -0.00000   0.00000  -0.00000   0.00000   3.14159
    D3        0.00000  -0.00000   0.00000   0.00000   0.00000   0.00000
    D4        3.14159   0.00000   0.00000   0.00000   0.00000   3.14159
    D5        0.00000  -0.00000   0.00000  -0.00000   0.00000   0.00000
    D6        3.14159  -0.00000   0.00000   0.00000   0.00000   3.14159
    D7        3.14159   0.00000   0.00000   0.00000   0.00000   3.14159
    D8        0.00000  -0.00000   0.00000   0.00000   0.00000   0.00000
    D9        0.00000   0.00000   0.00000   0.00000   0.00000   0.00000
   D10        3.14159  -0.00000   0.00000   0.00000   0.00000   3.14159
   D11        3.14159   0.00000   0.00000  -0.00000   0.00000   3.14159
   D12        0.00000  -0.00000   0.00000  -0.00000   0.00000   0.00000
   D13        0.00000  -0.00000   0.00000  -0.00000   0.00000   0.00000
   D14        3.14159  -0.00000   0.00000   0.00000   0.00000   3.14159
   D15        3.14159   0.00000   0.00000  -0.00000   0.00000   3.14159
   D16        0.00000   0.00000   0.00000   0.00000   0.00000   0.00000
   D17        0.00000   0.00000   0.00000  -0.00000   0.00000   0.00000
   D18        3.14159  -0.00000   0.00000  -0.00000   0.00000   3.14159
   D19        3.14159   0.00000   0.00000  -0.00000   0.00000   3.14159
   D20        0.00000   0.00000   0.00000  -0.00000   0.00000   0.00000
         Item               Value     Threshold  Converged?
 Maximum Force            0.118673     0.000450     NO 
 RMS     Force            0.031106     0.000300     NO 
 Maximum Displacement     0.260210     0.001800     NO 
 RMS     Displacement     0.107484     0.001200     NO 
 Predicted change in Energy=-1.828662D+00
 GradGradGradGradGradGradGradGradGradGradGradGradGradGradGradGradGradGrad

                          Input orientation:                          
 ---------------------------------------------------------------------
 Center     Atomic      Atomic             Coordinates (Angstroms)
 Number     Number       Type             X           Y           Z
 ---------------------------------------------------------------------
      1          6           0       -3.291431    0.243894    0.000000
      2          6           0       -2.001483    1.027904    0.000000
      3          6           0       -0.664768    0.322598    0.000000
      4          6           0       -0.619497   -1.202404    0.000000
      5          6           0       -1.921092   -1.998356    0.000000
      6          6           0       -3.242516   -1.264823    0.000000
      7         17           0       -4.764089   -2.190941    0.000000
      8         17           0       -2.058059    2.808268    0.000000
      9          1           0        0.707169    1.183341    0.000000
     10          1           0        0.834591   -1.989500    0.000000
     11          1           0       -1.891596   -3.617680    0.000000
 ---------------------------------------------------------------------
                    Distance matrix (angstroms):
                    1          2          3          4          5
     1  C    0.000000
     2  C    1.509516   0.000000
     3  C    2.627842   1.511378   0.000000
     4  C    3.038257   2.623768   1.525674   0.000000
     5  C    2.627834   3.027327   2.639162   1.525676   0.000000
     6  C    1.509509   2.607059   3.027325   2.623762   1.511368
     7  Cl   2.845547   4.241810   4.808567   4.260851   2.849513
     8  Cl   2.845562   1.781263   2.849529   4.260863   4.808575
     9  H    4.107477   2.713108   1.619595   2.729802   4.126857
    10  H    4.691707   4.141020   2.755699   1.653449   2.755698
    11  H    4.107467   4.646883   4.126851   2.729797   1.619593
                    6          7          8          9         10
     6  C    0.000000
     7  Cl   1.781257   0.000000
     8  Cl   4.241817   5.684601   0.000000
     9  H    4.646883   6.428098   3.207316   0.000000
    10  H    4.141010   5.602303   5.602322   3.175399   0.000000
    11  H    2.713102   3.207304   6.428104   5.459247   3.175385
                   11
    11  H    0.000000
 Stoichiometry    C6H3Cl2(2)
 Framework group  CS[SG(C6H3Cl2)]
 Deg. of freedom    19
 Full point group                 CS      NOp   2
 Largest Abelian subgroup         CS      NOp   2
 Largest concise Abelian subgroup C1      NOp   1
                         Standard orientation:                         
 ---------------------------------------------------------------------
 Center     Atomic      Atomic             Coordinates (Angstroms)
 Number     Number       Type             X           Y           Z
 ---------------------------------------------------------------------
      1          6           0       -0.833405   -0.000004    0.000000
      2          6           0       -0.072197    1.303530   -0.000000
      3          6           0        1.439096    1.319577   -0.000000
      4          6           0        2.204852   -0.000006   -0.000000
      5          6           0        1.439086   -1.319585    0.000000
      6          6           0       -0.072197   -1.303530    0.000000
      7         17           0       -0.969455   -2.842297    0.000000
      8         17           0       -0.969455    2.842304   -0.000000
      9          1           0        2.235881    2.729620   -0.000000
     10          1           0        3.858301   -0.000015   -0.000000
     11          1           0        2.235869   -2.729627    0.000000
 ---------------------------------------------------------------------
 Rotational constants (GHZ):           2.4461697           0.7627284           0.5814342
 Standard basis: VSTO-6G (5D, 7F)
 There are    27 symmetry adapted cartesian basis functions of A'  symmetry.
 There are     8 symmetry adapted cartesian basis functions of A"  symmetry.
 There are    27 symmetry adapted basis functions of A'  symmetry.
 There are     8 symmetry adapted basis functions of A"  symmetry.
    35 basis functions,   210 primitive gaussians,    35 cartesian basis functions
    21 alpha electrons       20 beta electrons
       nuclear repulsion energy       185.3306372045 Hartrees.
 Integral buffers will be    131072 words long.
 Regular integral format.
 Two-electron integral symmetry is turned off.
 Do NDO integrals.
 One-electron integrals computed using PRISM.
 NBasis=    35 RedAO= T EigKep=  1.00D+00  NBF=    27     8
 NBsUse=    35 1.00D-06 EigRej= -1.00D+00 NBFU=    27     8
 Initial guess from the checkpoint file:  "geometry_chks/123-1_3-ClBzNeutralRadical.chk"
 B after Tr=    -0.000000   -0.000000    0.000000
         Rot=    0.707107    0.000000   -0.000000   -0.707107 Ang= -90.00 deg.
 Initial guess orbital symmetries:
 Alpha Orbitals:
       Occupied  (A') (A') (A') (A') (A') (A') (A') (A') (A') (A')
                 (A") (A') (A") (A') (A') (A") (A') (A') (A') (A")
                 (A")
       Virtual   (A") (A') (A") (A') (A') (A') (A') (A") (A') (A')
                 (A') (A') (A') (A')
 Beta  Orbitals:
       Occupied  (A') (A') (A') (A') (A') (A') (A') (A') (A') (A')
                 (A") (A") (A') (A') (A") (A') (A') (A') (A") (A")
       Virtual   (A') (A") (A') (A') (A') (A") (A') (A') (A") (A')
                 (A') (A') (A') (A') (A')
 Initial guess <Sx>= 0.0000 <Sy>= 0.0000 <Sz>= 0.5000 <S**2>= 1.4489 S= 0.8034
 Keep J ints in memory in canonical form, NReq=862793.
 Overlap will be assumed to be unity.
 Requested convergence on RMS density matrix=1.00D-08 within  32 cycles.
 Requested convergence on MAX density matrix=1.00D-06.
 Requested convergence on             energy=1.00D-06.
 No special actions if energy rises.
 Fock symm off for IB=2 I1=    1 I=   28 J=    6 Cut=1.00D-07 Err=4.81D-03
 Fock matrix is not symmetric: symmetry in diagonalization turned off.
 Rare condition: small coef for last iteration:  0.000D+00
 SCF Done:  E(UAM1) =  0.488435194263     A.U. after   21 cycles
            NFock= 20  Conv=0.90D-08     -V/T= 1.0054
 <Sx>= 0.0000 <Sy>= 0.0000 <Sz>= 0.5000 <S**2>= 2.1546 S= 1.0507
 <L.S>=  0.00000000000    
 Annihilation of the first spin contaminant:
 S**2 before annihilation     2.1546,   after     3.2321
 QCSCF skips out because SCF is already converged.
 Calling FoFJK, ICntrl=      2127 FMM=F ISym2X=1 I1Cent= 0 IOpClX= 1 NMat=1 NMatS=1 NMatT=0.
 ***** Axes restored to original set *****
 -------------------------------------------------------------------
 Center     Atomic                   Forces (Hartrees/Bohr)
 Number     Number              X              Y              Z
 -------------------------------------------------------------------
      1        6           0.125272736   -0.067805064    0.000000000
      2        6          -0.004327136   -0.046844766   -0.000000000
      3        6           0.003771472   -0.017715335    0.000000000
      4        6          -0.016412583    0.008883714    0.000000000
      5        6           0.016899753    0.006527203   -0.000000000
      6        6           0.036852934    0.029236579    0.000000000
      7       17           0.048202242    0.028807004    0.000000000
      8       17           0.002237634   -0.056113149   -0.000000000
      9        1          -0.104824826   -0.064474001   -0.000000000
     10        1          -0.104336461    0.056477305   -0.000000000
     11        1          -0.003335765    0.123020510   -0.000000000
 -------------------------------------------------------------------
 Cartesian Forces:  Max     0.125272736 RMS     0.048114291

 GradGradGradGradGradGradGradGradGradGradGradGradGradGradGradGradGradGrad
 Berny optimization.
 Using GEDIIS/GDIIS optimizer.
 FormGI is forming the generalized inverse of G from B-inverse, IUseBI=4.
 Internal  Forces:  Max     0.131432255 RMS     0.055307745
 Search for a local minimum.
 Step number   3 out of a maximum of   57
 All quantities printed in internal units (Hartrees-Bohrs-Radians)
 Mixed Optimization -- RFO/linear search
 Update second derivatives using D2CorX and points    1    3    2
 ITU=  0  1  0
 Use linear search instead of GDIIS.
     Eigenvalues ---    0.00016   0.02011   0.02011   0.02011   0.02011
     Eigenvalues ---    0.02011   0.02011   0.02011   0.02011   0.06524
     Eigenvalues ---    0.06717   0.15996   0.16000   0.16000   0.22055
     Eigenvalues ---    0.23499   0.23855   0.25000   0.25000   0.28710
     Eigenvalues ---    0.29033   0.41218   0.41388   0.44098   0.44656
     Eigenvalues ---    0.44657   0.50751
 RFO could not converge Lambda in  999 iterations.
 Quartic linear search produced a step of -0.96900.
 Iteration  1 RMS(Cart)=  0.09192348 RMS(Int)=  0.01028955
 Iteration  2 RMS(Cart)=  0.01509357 RMS(Int)=  0.00002788
 Iteration  3 RMS(Cart)=  0.00003293 RMS(Int)=  0.00000455
 Iteration  4 RMS(Cart)=  0.00000000 RMS(Int)=  0.00000455
 ClnCor:  largest displacement from symmetrization is 8.22D-09 for atom    10.
 Variable       Old X    -DE/DX   Delta X   Delta X   Delta X     New X
                                 (Linear)    (Quad)   (Total)
    R1        2.85257  -0.12210  -0.21263   0.00000  -0.21263   2.63994
    R2        2.85256  -0.12210  -0.21262   0.00000  -0.21261   2.63995
    R3        2.85609  -0.11848  -0.21216   0.00000  -0.21216   2.64393
    R4        3.36610  -0.05616  -0.05819   0.00000  -0.05819   3.30791
    R5        2.88311  -0.13143  -0.24720   0.00000  -0.24720   2.63590
    R6        3.06059  -0.12306   0.10802   0.00000   0.10802   3.16862
    R7        2.88311  -0.13143  -0.24719   0.00000  -0.24720   2.63591
    R8        3.12457  -0.11864   0.03846   0.00000   0.03846   3.16303
    R9        2.85607  -0.11847  -0.21216   0.00000  -0.21216   2.64391
   R10        3.06059  -0.12306   0.10802   0.00000   0.10802   3.16860
   R11        3.36609  -0.05615  -0.05818   0.00000  -0.05818   3.30791
    A1        2.08451   0.01400   0.02768   0.00000   0.02770   2.11221
    A2        2.10995  -0.01141  -0.02907   0.00000  -0.02907   2.08088
    A3        2.08515   0.00647   0.01627   0.00000   0.01627   2.10142
    A4        2.08808   0.00494   0.01281   0.00000   0.01280   2.10088
    A5        2.08599   0.00132   0.01074   0.00000   0.01073   2.09672
    A6        2.09576  -0.00234  -0.00452   0.00000  -0.00452   2.09124
    A7        2.10144   0.00101  -0.00622   0.00000  -0.00622   2.09522
    A8        2.08997   0.00617   0.00900   0.00000   0.00899   2.09895
    A9        2.09661  -0.00309  -0.00450   0.00000  -0.00449   2.09212
   A10        2.09661  -0.00309  -0.00450   0.00000  -0.00449   2.09211
   A11        2.08599   0.00132   0.01074   0.00000   0.01073   2.09672
   A12        2.10143   0.00101  -0.00622   0.00000  -0.00621   2.09522
   A13        2.09577  -0.00234  -0.00452   0.00000  -0.00451   2.09125
   A14        2.10996  -0.01141  -0.02908   0.00000  -0.02907   2.08089
   A15        2.08515   0.00647   0.01627   0.00000   0.01627   2.10141
   A16        2.08807   0.00494   0.01281   0.00000   0.01281   2.10088
    D1        0.00000  -0.00000   0.00000   0.00000   0.00000   0.00000
    D2        3.14159  -0.00000   0.00000   0.00000   0.00000   3.14159
    D3       -0.00000   0.00000   0.00000   0.00000   0.00000   0.00000
    D4        3.14159   0.00000   0.00000   0.00000   0.00000   3.14159
    D5       -0.00000   0.00000   0.00000   0.00000   0.00000   0.00000
    D6        3.14159  -0.00000   0.00000   0.00000   0.00000   3.14159
    D7        3.14159   0.00000   0.00000   0.00000   0.00000   3.14159
    D8        0.00000   0.00000   0.00000   0.00000  -0.00000   0.00000
    D9        0.00000   0.00000   0.00000   0.00000  -0.00000   0.00000
   D10        3.14159  -0.00000   0.00000   0.00000   0.00000   3.14159
   D11        3.14159   0.00000   0.00000   0.00000   0.00000   3.14159
   D12       -0.00000   0.00000   0.00000   0.00000   0.00000   0.00000
   D13       -0.00000  -0.00000   0.00000   0.00000   0.00000   0.00000
   D14        3.14159  -0.00000   0.00000   0.00000   0.00000   3.14159
   D15        3.14159   0.00000   0.00000   0.00000   0.00000   3.14159
   D16        0.00000   0.00000   0.00000   0.00000  -0.00000   0.00000
   D17        0.00000   0.00000   0.00000   0.00000   0.00000   0.00000
   D18        3.14159  -0.00000   0.00000   0.00000   0.00000   3.14159
   D19        3.14159   0.00000   0.00000   0.00000   0.00000   3.14159
   D20       -0.00000  -0.00000   0.00000   0.00000   0.00000   0.00000
         Item               Value     Threshold  Converged?
 Maximum Force            0.131432     0.000450     NO 
 RMS     Force            0.055308     0.000300     NO 
 Maximum Displacement     0.252085     0.001800     NO 
 RMS     Displacement     0.104144     0.001200     NO 
 Predicted change in Energy=-1.140823D-02
 GradGradGradGradGradGradGradGradGradGradGradGradGradGradGradGradGradGrad

                          Input orientation:                          
 ---------------------------------------------------------------------
 Center     Atomic      Atomic             Coordinates (Angstroms)
 Number     Number       Type             X           Y           Z
 ---------------------------------------------------------------------
      1          6           0       -3.179151    0.183121   -0.000000
      2          6           0       -1.995515    0.925153   -0.000000
      3          6           0       -0.768179    0.253480   -0.000000
      4          6           0       -0.733053   -1.140936    0.000000
      5          6           0       -1.919766   -1.873984    0.000000
      6          6           0       -3.153225   -1.213638    0.000000
      7         17           0       -4.646295   -2.127358    0.000000
      8         17           0       -2.046881    2.674870   -0.000000
      9          1           0        0.661639    1.129345   -0.000000
     10          1           0        0.738935   -1.937719    0.000000
     11          1           0       -1.871280   -3.550035    0.000000
 ---------------------------------------------------------------------
                    Distance matrix (angstroms):
                    1          2          3          4          5
     1  C    0.000000
     2  C    1.396998   0.000000
     3  C    2.411998   1.399106   0.000000
     4  C    2.781461   2.421267   1.394859   0.000000
     5  C    2.411997   2.800161   2.419143   1.394864   0.000000
     6  C    1.397000   2.432019   2.800157   2.421264   1.399099
     7  Cl   2.736937   4.042827   4.550623   4.035653   2.738277
     8  Cl   2.736941   1.750472   2.738286   4.035657   4.550630
     9  H    3.955630   2.664989   1.676759   2.664459   3.960257
    10  H    4.455262   3.958946   2.659464   1.673801   2.659465
    11  H    3.955627   4.476912   3.960247   2.664454   1.676753
                    6          7          8          9         10
     6  C    0.000000
     7  Cl   1.750469   0.000000
     8  Cl   4.042833   5.460618   0.000000
     9  H    4.476914   6.227381   3.118450   0.000000
    10  H    3.958940   5.388568   5.388576   3.068038   0.000000
    11  H    2.664983   3.118448   6.227382   5.320928   3.068026
                   11
    11  H    0.000000
 Stoichiometry    C6H3Cl2(2)
 Framework group  CS[SG(C6H3Cl2)]
 Deg. of freedom    19
 Full point group                 CS      NOp   2
 Largest Abelian subgroup         CS      NOp   2
 Largest concise Abelian subgroup C1      NOp   1
                         Standard orientation:                         
 ---------------------------------------------------------------------
 Center     Atomic      Atomic             Coordinates (Angstroms)
 Number     Number       Type             X           Y           Z
 ---------------------------------------------------------------------
      1          6           0        0.000000    0.737246    0.000000
      2          6           0        1.216009    0.049550    0.000000
      3          6           0        1.209568   -1.349541    0.000000
      4          6           0       -0.000002   -2.044215    0.000000
      5          6           0       -1.209575   -1.349536    0.000000
      6          6           0       -1.216010    0.049548    0.000000
      7         17           0       -2.730307    0.927641    0.000000
      8         17           0        2.730311    0.927639    0.000000
      9          1           0        2.660465   -2.190029    0.000000
     10          1           0       -0.000007   -3.718016    0.000000
     11          1           0       -2.660464   -2.190025    0.000000
 ---------------------------------------------------------------------
 Rotational constants (GHZ):           2.7533268           0.8336487           0.6399005
 Standard basis: VSTO-6G (5D, 7F)
 There are    27 symmetry adapted cartesian basis functions of A'  symmetry.
 There are     8 symmetry adapted cartesian basis functions of A"  symmetry.
 There are    27 symmetry adapted basis functions of A'  symmetry.
 There are     8 symmetry adapted basis functions of A"  symmetry.
    35 basis functions,   210 primitive gaussians,    35 cartesian basis functions
    21 alpha electrons       20 beta electrons
       nuclear repulsion energy       191.2891765625 Hartrees.
 Integral buffers will be    131072 words long.
 Regular integral format.
 Two-electron integral symmetry is turned off.
 Do NDO integrals.
 One-electron integrals computed using PRISM.
 NBasis=    35 RedAO= T EigKep=  1.00D+00  NBF=    27     8
 NBsUse=    35 1.00D-06 EigRej= -1.00D+00 NBFU=    27     8
 Lowest energy guess from the checkpoint file:  "geometry_chks/123-1_3-ClBzNeutralRadical.chk"
 B after Tr=    -0.000000    0.000000    0.000000
         Rot=    1.000000    0.000000    0.000000    0.000000 Ang=   0.00 deg.
 B after Tr=     0.000000    0.000000   -0.000000
         Rot=    0.707107   -0.000000    0.000000    0.707107 Ang=  90.00 deg.
 Initial guess orbital symmetries:
 Alpha Orbitals:
       Occupied  (A") (A") (A") (A') (A') (A') (A') (A') (A') (A')
                 (A') (A') (A') (A') (A") (A") (A") (A") (A") (A")
                 (A")
       Virtual   (A") (A") (A") (A') (A') (A') (A') (A') (A') (A')
                 (A') (A') (A') (A')
 Beta  Orbitals:
       Occupied  (A") (A") (A") (A') (A') (A') (A') (A') (A') (A')
                 (A') (A') (A') (A') (A') (A") (A") (A") (A") (A")
       Virtual   (A") (A") (A") (A') (A') (A') (A') (A') (A') (A')
                 (A') (A') (A') (A') (A')
 Initial guess <Sx>= 0.0000 <Sy>= 0.0000 <Sz>= 0.5000 <S**2>= 1.4678 S= 0.8107
 Keep J ints in memory in canonical form, NReq=862793.
 Overlap will be assumed to be unity.
 Requested convergence on RMS density matrix=1.00D-08 within  32 cycles.
 Requested convergence on MAX density matrix=1.00D-06.
 Requested convergence on             energy=1.00D-06.
 No special actions if energy rises.
 An orbital has undefined symmetry, so N**3 symmetry is turned off.
 SCF Done:  E(UAM1) =  0.405964861723     A.U. after   17 cycles
            NFock= 16  Conv=0.98D-08     -V/T= 1.0045
 <Sx>= 0.0000 <Sy>= 0.0000 <Sz>= 0.5000 <S**2>= 1.4699 S= 0.8115
 <L.S>=  0.00000000000    
 Annihilation of the first spin contaminant:
 S**2 before annihilation     1.4699,   after     1.3539
 QCSCF skips out because SCF is already converged.
 Calling FoFJK, ICntrl=      2127 FMM=F ISym2X=1 I1Cent= 0 IOpClX= 1 NMat=1 NMatS=1 NMatT=0.
 ***** Axes restored to original set *****
 -------------------------------------------------------------------
 Center     Atomic                   Forces (Hartrees/Bohr)
 Number     Number              X              Y              Z
 -------------------------------------------------------------------
      1        6           0.038050275   -0.020596352   -0.000000000
      2        6          -0.009532833    0.036338351    0.000000000
      3        6           0.089864896    0.035570834    0.000000000
      4        6           0.077709530   -0.042066711    0.000000000
      5        6           0.019362941   -0.094691659    0.000000000
      6        6          -0.035641194   -0.011885052    0.000000000
      7       17           0.027396598    0.016635131    0.000000000
      8       17           0.001052312   -0.032036361   -0.000000000
      9        1          -0.101967634   -0.061084374   -0.000000000
     10        1          -0.101683210    0.055040876   -0.000000000
     11        1          -0.004611682    0.118775317   -0.000000000
 -------------------------------------------------------------------
 Cartesian Forces:  Max     0.118775317 RMS     0.047630835

 GradGradGradGradGradGradGradGradGradGradGradGradGradGradGradGradGradGrad
 Berny optimization.
 Using GEDIIS/GDIIS optimizer.
 FormGI is forming the generalized inverse of G from B-inverse, IUseBI=4.
 Internal  Forces:  Max     0.118859003 RMS     0.031506329
 Search for a local minimum.
 Step number   4 out of a maximum of   57
 All quantities printed in internal units (Hartrees-Bohrs-Radians)
 Mixed Optimization -- RFO/linear search
 Update second derivatives using D2CorX and points    1    3    2    4
 DE= -1.09D-04 DEPred=-1.14D-02 R= 9.52D-03
 Trust test= 9.52D-03 RLast= 1.86D-02 DXMaxT set to 2.52D-01
 ITU= -1  0  1  0
 Use linear search instead of GDIIS.
     Eigenvalues ---    0.00009   0.02011   0.02011   0.02011   0.02011
     Eigenvalues ---    0.02011   0.02011   0.02011   0.02011   0.06524
     Eigenvalues ---    0.06652   0.15996   0.16000   0.16000   0.22060
     Eigenvalues ---    0.23469   0.24061   0.25000   0.25000   0.28580
     Eigenvalues ---    0.29033   0.40969   0.41227   0.44476   0.44656
     Eigenvalues ---    0.44657   0.71843
 RFO could not converge Lambda in  999 iterations.
 Quartic linear search produced a step of -0.00303.
 Iteration  1 RMS(Cart)=  0.00001012 RMS(Int)=  0.00000000
 Iteration  2 RMS(Cart)=  0.00000000 RMS(Int)=  0.00000000
 ClnCor:  largest displacement from symmetrization is 5.37D-15 for atom     9.
 Variable       Old X    -DE/DX   Delta X   Delta X   Delta X     New X
                                 (Linear)    (Quad)   (Total)
    R1        2.63994  -0.01889  -0.00002   0.00000  -0.00002   2.63992
    R2        2.63995  -0.01889  -0.00002   0.00000  -0.00002   2.63993
    R3        2.64393  -0.01208  -0.00002   0.00000  -0.00002   2.64391
    R4        3.30791  -0.03205  -0.00001   0.00000  -0.00001   3.30791
    R5        2.63590  -0.02325  -0.00002   0.00000  -0.00002   2.63588
    R6        3.16862  -0.11886   0.00001   0.00000   0.00001   3.16863
    R7        2.63591  -0.02325  -0.00002   0.00000  -0.00002   2.63589
    R8        3.16303  -0.11562   0.00000   0.00000   0.00000   3.16303
    R9        2.64391  -0.01208  -0.00002   0.00000  -0.00002   2.64389
   R10        3.16860  -0.11886   0.00001   0.00000   0.00001   3.16861
   R11        3.30791  -0.03205  -0.00001   0.00000  -0.00001   3.30790
    A1        2.11221   0.01743   0.00000   0.00000   0.00000   2.11221
    A2        2.08088  -0.01320  -0.00000   0.00000  -0.00000   2.08088
    A3        2.10142   0.00678   0.00000   0.00000   0.00000   2.10142
    A4        2.10088   0.00641   0.00000   0.00000   0.00000   2.10088
    A5        2.09672   0.00202   0.00000   0.00000   0.00000   2.09672
    A6        2.09124  -0.00287  -0.00000   0.00000  -0.00000   2.09124
    A7        2.09522   0.00085  -0.00000   0.00000  -0.00000   2.09522
    A8        2.09895   0.00493   0.00000   0.00000   0.00000   2.09895
    A9        2.09212  -0.00247  -0.00000   0.00000  -0.00000   2.09212
   A10        2.09211  -0.00247  -0.00000   0.00000  -0.00000   2.09211
   A11        2.09672   0.00202   0.00000   0.00000   0.00000   2.09672
   A12        2.09522   0.00085  -0.00000   0.00000  -0.00000   2.09522
   A13        2.09125  -0.00287  -0.00000   0.00000  -0.00000   2.09125
   A14        2.08089  -0.01320  -0.00000   0.00000  -0.00000   2.08089
   A15        2.10141   0.00678   0.00000   0.00000   0.00000   2.10142
   A16        2.10088   0.00642   0.00000   0.00000   0.00000   2.10088
    D1        0.00000   0.00000   0.00000   0.00000   0.00000   0.00000
    D2        3.14159  -0.00000   0.00000   0.00000   0.00000   3.14159
    D3        0.00000  -0.00000   0.00000   0.00000   0.00000   0.00000
    D4        3.14159   0.00000   0.00000   0.00000   0.00000   3.14159
    D5        0.00000  -0.00000   0.00000   0.00000   0.00000   0.00000
    D6        3.14159  -0.00000   0.00000   0.00000   0.00000   3.14159
    D7        3.14159   0.00000   0.00000   0.00000   0.00000   3.14159
    D8        0.00000   0.00000   0.00000   0.00000   0.00000   0.00000
    D9        0.00000  -0.00000   0.00000   0.00000   0.00000   0.00000
   D10        3.14159  -0.00000   0.00000   0.00000   0.00000   3.14159
   D11        3.14159   0.00000   0.00000   0.00000   0.00000   3.14159
   D12        0.00000   0.00000   0.00000   0.00000   0.00000   0.00000
   D13        0.00000   0.00000   0.00000   0.00000   0.00000   0.00000
   D14        3.14159  -0.00000   0.00000   0.00000   0.00000   3.14159
   D15        3.14159   0.00000   0.00000   0.00000   0.00000   3.14159
   D16        0.00000  -0.00000   0.00000   0.00000   0.00000   0.00000
   D17        0.00000   0.00000   0.00000   0.00000   0.00000   0.00000
   D18        3.14159  -0.00000   0.00000   0.00000   0.00000   3.14159
   D19        3.14159   0.00000   0.00000   0.00000   0.00000   3.14159
   D20        0.00000   0.00000   0.00000   0.00000   0.00000   0.00000
         Item               Value     Threshold  Converged?
 Maximum Force            0.118859     0.000450     NO 
 RMS     Force            0.031506     0.000300     NO 
 Maximum Displacement     0.000025     0.001800     YES
 RMS     Displacement     0.000010     0.001200     YES
 Predicted change in Energy=-9.833302D-10
 GradGradGradGradGradGradGradGradGradGradGradGradGradGradGradGradGradGrad

                          Input orientation:                          
 ---------------------------------------------------------------------
 Center     Atomic      Atomic             Coordinates (Angstroms)
 Number     Number       Type             X           Y           Z
 ---------------------------------------------------------------------
      1          6           0       -3.179140    0.183116    0.000000
      2          6           0       -1.995515    0.925142    0.000000
      3          6           0       -0.768189    0.253474    0.000000
      4          6           0       -0.733064   -1.140930    0.000000
      5          6           0       -1.919766   -1.873971    0.000000
      6          6           0       -3.153216   -1.213633    0.000000
      7         17           0       -4.646283   -2.127351    0.000000
      8         17           0       -2.046880    2.674857    0.000000
      9          1           0        0.661635    1.129340    0.000000
     10          1           0        0.738926   -1.937714    0.000000
     11          1           0       -1.871278   -3.550028    0.000000
 ---------------------------------------------------------------------
                    Distance matrix (angstroms):
                    1          2          3          4          5
     1  C    0.000000
     2  C    1.396987   0.000000
     3  C    2.411977   1.399095   0.000000
     4  C    2.781436   2.421248   1.394846   0.000000
     5  C    2.411976   2.800139   2.419122   1.394852   0.000000
     6  C    1.396989   2.432002   2.800135   2.421245   1.399088
     7  Cl   2.736927   4.042808   4.550598   4.035631   2.738266
     8  Cl   2.736931   1.750469   2.738275   4.035635   4.550604
     9  H    3.955615   2.664984   1.676765   2.664453   3.960241
    10  H    4.455239   3.958928   2.659455   1.673803   2.659456
    11  H    3.955612   4.476895   3.960231   2.664448   1.676758
                    6          7          8          9         10
     6  C    0.000000
     7  Cl   1.750466   0.000000
     8  Cl   4.042813   5.460596   0.000000
     9  H    4.476898   6.227362   3.118442   0.000000
    10  H    3.958922   5.388547   5.388555   3.068027   0.000000
    11  H    2.664978   3.118440   6.227362   5.320915   3.068016
                   11
    11  H    0.000000
 Stoichiometry    C6H3Cl2(2)
 Framework group  CS[SG(C6H3Cl2)]
 Deg. of freedom    19
 Full point group                 CS      NOp   2
 Largest Abelian subgroup         CS      NOp   2
 Largest concise Abelian subgroup C1      NOp   1
                         Standard orientation:                         
 ---------------------------------------------------------------------
 Center     Atomic      Atomic             Coordinates (Angstroms)
 Number     Number       Type             X           Y           Z
 ---------------------------------------------------------------------
      1          6           0        0.000000    0.737237    0.000000
      2          6           0        1.216000    0.049548    0.000000
      3          6           0        1.209557   -1.349532    0.000000
      4          6           0       -0.000002   -2.044200    0.000000
      5          6           0       -1.209565   -1.349527    0.000000
      6          6           0       -1.216002    0.049546    0.000000
      7         17           0       -2.730296    0.927637    0.000000
      8         17           0        2.730300    0.927635    0.000000
      9          1           0        2.660458   -2.190024    0.000000
     10          1           0       -0.000007   -3.718003    0.000000
     11          1           0       -2.660457   -2.190021    0.000000
 ---------------------------------------------------------------------
 Rotational constants (GHZ):           2.7533592           0.8336561           0.6399066
 Standard basis: VSTO-6G (5D, 7F)
 There are    27 symmetry adapted cartesian basis functions of A'  symmetry.
 There are     8 symmetry adapted cartesian basis functions of A"  symmetry.
 There are    27 symmetry adapted basis functions of A'  symmetry.
 There are     8 symmetry adapted basis functions of A"  symmetry.
    35 basis functions,   210 primitive gaussians,    35 cartesian basis functions
    21 alpha electrons       20 beta electrons
       nuclear repulsion energy       191.2897890323 Hartrees.
 Integral buffers will be    131072 words long.
 Regular integral format.
 Two-electron integral symmetry is turned off.
 Do NDO integrals.
 One-electron integrals computed using PRISM.
 NBasis=    35 RedAO= T EigKep=  1.00D+00  NBF=    27     8
 NBsUse=    35 1.00D-06 EigRej= -1.00D+00 NBFU=    27     8
 Initial guess from the checkpoint file:  "geometry_chks/123-1_3-ClBzNeutralRadical.chk"
 B after Tr=     0.000000   -0.000000    0.000000
[...]
                                 (Linear)    (Quad)   (Total)
    R1        2.59881  -0.00025  -0.00004  -0.00044  -0.00048   2.59833
    R2        2.59881  -0.00025  -0.00004  -0.00044  -0.00048   2.59833
    R3        2.67031   0.00027   0.00005   0.00041   0.00046   2.67077
    R4        3.18108  -0.00018  -0.00034  -0.00001  -0.00035   3.18073
    R5        2.64805   0.00016   0.00021   0.00008   0.00029   2.64833
    R6        2.07721  -0.00011  -0.00028  -0.00066  -0.00094   2.07627
    R7        2.64804   0.00017   0.00021   0.00010   0.00031   2.64835
    R8        2.08099  -0.00009  -0.00032   0.00002  -0.00030   2.08069
    R9        2.67030   0.00029   0.00005   0.00043   0.00049   2.67079
   R10        2.07683   0.00003  -0.00019   0.00090   0.00070   2.07753
   R11        3.18108  -0.00018  -0.00034  -0.00001  -0.00035   3.18073
    A1        2.23781  -0.00009  -0.00041   0.00001  -0.00040   2.23741
    A2        2.01530   0.00015   0.00029   0.00011   0.00040   2.01570
    A3        2.13713  -0.00007  -0.00043   0.00026  -0.00017   2.13695
    A4        2.13075  -0.00008   0.00015  -0.00037  -0.00023   2.13053
    A5        2.08261  -0.00000   0.00010   0.00001   0.00010   2.08271
    A6        2.09673  -0.00001   0.00002  -0.00011  -0.00009   2.09663
    A7        2.10385   0.00001  -0.00012   0.00010  -0.00001   2.10384
    A8        2.13274  -0.00021  -0.00036  -0.00023  -0.00059   2.13214
    A9        2.07523   0.00010   0.00018   0.00012   0.00029   2.07552
   A10        2.07522   0.00010   0.00018   0.00012   0.00030   2.07552
   A11        2.08261  -0.00001   0.00010  -0.00002   0.00008   2.08269
   A12        2.10385   0.00001  -0.00012   0.00011  -0.00000   2.10385
   A13        2.09672  -0.00000   0.00002  -0.00010  -0.00008   2.09665
   A14        2.01530   0.00015   0.00029   0.00012   0.00041   2.01571
   A15        2.13713  -0.00007  -0.00043   0.00025  -0.00018   2.13695
   A16        2.13076  -0.00008   0.00015  -0.00038  -0.00023   2.13053
    D1        0.00000   0.00000   0.00000   0.00000   0.00000   0.00000
    D2        3.14159  -0.00000   0.00000  -0.00000   0.00000   3.14159
    D3        0.00000  -0.00000   0.00000  -0.00000   0.00000   0.00000
    D4        3.14159   0.00000   0.00000   0.00000   0.00000   3.14159
    D5        0.00000  -0.00000   0.00000  -0.00000   0.00000   0.00000
    D6        3.14159  -0.00000   0.00000  -0.00000   0.00000   3.14159
    D7        3.14159   0.00000   0.00000   0.00000   0.00000   3.14159
    D8        0.00000   0.00000   0.00000   0.00000   0.00000   0.00000
    D9        0.00000   0.00000   0.00000   0.00000   0.00000   0.00000
   D10        3.14159  -0.00000   0.00000  -0.00000   0.00000   3.14159
   D11        3.14159   0.00000   0.00000   0.00000   0.00000   3.14159
   D12        0.00000   0.00000   0.00000   0.00000   0.00000   0.00000
   D13        0.00000  -0.00000   0.00000  -0.00000   0.00000   0.00000
   D14        3.14159  -0.00000   0.00000  -0.00000   0.00000   3.14159
   D15        3.14159   0.00000   0.00000   0.00000   0.00000   3.14159
   D16        0.00000  -0.00000   0.00000  -0.00000   0.00000   0.00000
   D17        0.00000   0.00000   0.00000   0.00000   0.00000   0.00000
   D18        3.14159  -0.00000   0.00000  -0.00000   0.00000   3.14159
   D19        3.14159   0.00000   0.00000   0.00000   0.00000   3.14159
   D20        0.00000  -0.00000   0.00000  -0.00000   0.00000   0.00000
         Item               Value     Threshold  Converged?
 Maximum Force            0.000285     0.000450     YES
 RMS     Force            0.000109     0.000300     YES
 Maximum Displacement     0.000974     0.001800     YES
 RMS     Displacement     0.000364     0.001200     YES
 Predicted change in Energy=-6.467836D-07
 Optimization completed.
    -- Stationary point found.
                           ----------------------------
                           !   Optimized Parameters   !
                           ! (Angstroms and Degrees)  !
 --------------------------                            --------------------------
 ! Name  Definition              Value          Derivative Info.                !
 --------------------------------------------------------------------------------
 ! R1    R(1,2)                  1.3752         -DE/DX =   -0.0003              !
 ! R2    R(1,6)                  1.3752         -DE/DX =   -0.0002              !
 ! R3    R(2,3)                  1.4131         -DE/DX =    0.0003              !
 ! R4    R(2,8)                  1.6834         -DE/DX =   -0.0002              !
 ! R5    R(3,4)                  1.4013         -DE/DX =    0.0002              !
 ! R6    R(3,9)                  1.0992         -DE/DX =   -0.0001              !
 ! R7    R(4,5)                  1.4013         -DE/DX =    0.0002              !
 ! R8    R(4,10)                 1.1012         -DE/DX =   -0.0001              !
 ! R9    R(5,6)                  1.4131         -DE/DX =    0.0003              !
 ! R10   R(5,11)                 1.099          -DE/DX =    0.0                 !
 ! R11   R(6,7)                  1.6834         -DE/DX =   -0.0002              !
 ! A1    A(2,1,6)              128.2171         -DE/DX =   -0.0001              !
 ! A2    A(1,2,3)              115.4684         -DE/DX =    0.0002              !
 ! A3    A(1,2,8)              122.4484         -DE/DX =   -0.0001              !
 ! A4    A(3,2,8)              122.0832         -DE/DX =   -0.0001              !
 ! A5    A(2,3,4)              119.3245         -DE/DX =    0.0                 !
 ! A6    A(2,3,9)              120.1335         -DE/DX =    0.0                 !
 ! A7    A(4,3,9)              120.5419         -DE/DX =    0.0                 !
 ! A8    A(3,4,5)              122.1968         -DE/DX =   -0.0002              !
 ! A9    A(3,4,10)             118.9016         -DE/DX =    0.0001              !
 ! A10   A(5,4,10)             118.9016         -DE/DX =    0.0001              !
 ! A11   A(4,5,6)              119.3249         -DE/DX =    0.0                 !
 ! A12   A(4,5,11)             120.5418         -DE/DX =    0.0                 !
 ! A13   A(6,5,11)             120.1334         -DE/DX =    0.0                 !
 ! A14   A(1,6,5)              115.4683         -DE/DX =    0.0002              !
 ! A15   A(1,6,7)              122.4484         -DE/DX =   -0.0001              !
 ! A16   A(5,6,7)              122.0833         -DE/DX =   -0.0001              !
 ! D1    D(6,1,2,3)              0.0            -DE/DX =    0.0                 !
 ! D2    D(6,1,2,8)            180.0            -DE/DX =    0.0                 !
 ! D3    D(2,1,6,5)              0.0            -DE/DX =    0.0                 !
 ! D4    D(2,1,6,7)            180.0            -DE/DX =    0.0                 !
 ! D5    D(1,2,3,4)              0.0            -DE/DX =    0.0                 !
 ! D6    D(1,2,3,9)            180.0            -DE/DX =    0.0                 !
 ! D7    D(8,2,3,4)            180.0            -DE/DX =    0.0                 !
 ! D8    D(8,2,3,9)              0.0            -DE/DX =    0.0                 !
 ! D9    D(2,3,4,5)              0.0            -DE/DX =    0.0                 !
 ! D10   D(2,3,4,10)           180.0            -DE/DX =    0.0                 !
 ! D11   D(9,3,4,5)            180.0            -DE/DX =    0.0                 !
 ! D12   D(9,3,4,10)             0.0            -DE/DX =    0.0                 !
 ! D13   D(3,4,5,6)              0.0            -DE/DX =    0.0                 !
 ! D14   D(3,4,5,11)           180.0            -DE/DX =    0.0                 !
 ! D15   D(10,4,5,6)           180.0            -DE/DX =    0.0                 !
 ! D16   D(10,4,5,11)            0.0            -DE/DX =    0.0                 !
 ! D17   D(4,5,6,1)              0.0            -DE/DX =    0.0                 !
 ! D18   D(4,5,6,7)            180.0            -DE/DX =    0.0                 !
 ! D19   D(11,5,6,1)           180.0            -DE/DX =    0.0                 !
 ! D20   D(11,5,6,7)             0.0            -DE/DX =    0.0                 !
 --------------------------------------------------------------------------------
 GradGradGradGradGradGradGradGradGradGradGradGradGradGradGradGradGradGrad

                          Input orientation:                          
 ---------------------------------------------------------------------
 Center     Atomic      Atomic             Coordinates (Angstroms)
 Number     Number       Type             X           Y           Z
 ---------------------------------------------------------------------
      1          6           0       -3.021666    0.097856    0.000000
      2          6           0       -1.904613    0.900013    0.000000
      3          6           0       -0.666920    0.218195    0.000000
      4          6           0       -0.655300   -1.183042    0.000000
      5          6           0       -1.834865   -1.939493    0.000000
      6          6           0       -3.082490   -1.276029    0.000000
      7         17           0       -4.541586   -2.115504    0.000000
      8         17           0       -1.999573    2.580686    0.000000
      9          1           0        0.275121    0.784613    0.000000
     10          1           0        0.313137   -1.707253    0.000000
     11          1           0       -1.794016   -3.037743    0.000000
 ---------------------------------------------------------------------
                    Distance matrix (angstroms):
                    1          2          3          4          5
     1  C    0.000000
     2  C    1.375231   0.000000
     3  C    2.357818   1.413067   0.000000
     4  C    2.690796   2.428971   1.401285   0.000000
     5  C    2.357814   2.840362   2.453511   1.401283   0.000000
     6  C    1.375231   2.474379   2.840367   2.428970   1.413064
     7  Cl   2.684981   4.005867   4.523184   3.996587   2.712437
     8  Cl   2.684981   1.683354   2.712439   3.996588   4.523179
     9  H    3.367557   2.182787   1.099214   2.176545   3.445693
    10  H    3.792009   3.422901   2.160524   1.101212   2.160521
    11  H    3.367359   3.939309   3.445501   2.176371   1.099009
                    6          7          8          9         10
     6  C    0.000000
     7  Cl   1.683354   0.000000
     8  Cl   4.005866   5.340041   0.000000
     9  H    3.939518   5.622397   2.898295   0.000000
    10  H    3.422899   4.871859   4.871863   2.492156   0.000000
    11  H    2.182613   2.898218   5.622188   4.346462   2.492047
                   11
    11  H    0.000000
 Stoichiometry    C6H3Cl2(2)
 Framework group  CS[SG(C6H3Cl2)]
 Deg. of freedom    19
 Full point group                 CS      NOp   2
 Largest Abelian subgroup         CS      NOp   2
 Largest concise Abelian subgroup C1      NOp   1
                         Standard orientation:                         
 ---------------------------------------------------------------------
 Center     Atomic      Atomic             Coordinates (Angstroms)
 Number     Number       Type             X           Y           Z
 ---------------------------------------------------------------------
      1          6           0        0.000000    0.641464    0.000000
      2          6           0        1.237187    0.040940    0.000000
      3          6           0        1.226749   -1.372089    0.000000
      4          6           0       -0.000011   -2.049333    0.000000
      5          6           0       -1.226762   -1.372076    0.000000
      6          6           0       -1.237192    0.040950    0.000000
      7         17           0       -2.670020    0.924514    0.000000
      8         17           0        2.670021    0.924494    0.000000
      9          1           0        2.173311   -1.930921    0.000000
     10          1           0       -0.000018   -3.150545    0.000000
     11          1           0       -2.173152   -1.930795    0.000000
 ---------------------------------------------------------------------
 Rotational constants (GHZ):           2.8500257           0.8699033           0.6664769

 **********************************************************************

            Population analysis using the SCF Density.

 **********************************************************************

 Orbital symmetries:
 Alpha Orbitals:
       Occupied  (A') (A') (A') (A') (A') (A') (A') (A') (A') (A')
                 (A') (A") (A') (A") (A') (A') (A") (A') (A') (A")
                 (A")
       Virtual   (A") (A") (A') (A') (A") (A') (A') (A') (A') (A')
                 (A') (A') (A') (A')
 Beta  Orbitals:
       Occupied  (A') (A') (A') (A') (A') (A') (A') (A') (A') (A')
                 (A') (A") (A') (A") (A') (A") (A') (A') (A") (A")
       Virtual   (A') (A") (A") (A') (A') (A") (A') (A') (A') (A')
                 (A') (A') (A') (A') (A')
 The electronic state is 2-A'.
 Alpha  occ. eigenvalues --   -1.47110  -1.40441  -1.38079  -1.16828  -1.15481
 Alpha  occ. eigenvalues --   -0.88517  -0.86256  -0.68803  -0.62196  -0.61588
 Alpha  occ. eigenvalues --   -0.58100  -0.55541  -0.52274  -0.49568  -0.48753
 Alpha  occ. eigenvalues --   -0.45824  -0.44862  -0.44204  -0.40062  -0.38785
 Alpha  occ. eigenvalues --   -0.36921
 Alpha virt. eigenvalues --   -0.00582   0.00180   0.03945   0.05286   0.07784
 Alpha virt. eigenvalues --    0.12278   0.13006   0.13254   0.14353   0.14452
 Alpha virt. eigenvalues --    0.16816   0.17173   0.17904   0.18686
  Beta  occ. eigenvalues --   -1.46450  -1.40580  -1.37918  -1.16418  -1.13750
  Beta  occ. eigenvalues --   -0.88146  -0.84168  -0.68798  -0.61744  -0.59724
  Beta  occ. eigenvalues --   -0.57968  -0.55636  -0.51505  -0.50711  -0.48339
  Beta  occ. eigenvalues --   -0.45007  -0.44799  -0.43938  -0.37281  -0.36456
  Beta virt. eigenvalues --   -0.01026  -0.00410   0.01892   0.03602   0.04306
  Beta virt. eigenvalues --    0.08651   0.12818   0.13684   0.14187   0.14965
  Beta virt. eigenvalues --    0.14986   0.16996   0.18145   0.18863   0.19118
          Condensed to atoms (all electrons):
               1          2          3          4          5          6
     1  C    4.042376   0.000000   0.000000   0.000000   0.000000   0.000000
     2  C    0.000000   4.056285   0.000000   0.000000   0.000000   0.000000
     3  C    0.000000   0.000000   4.118520   0.000000   0.000000   0.000000
     4  C    0.000000   0.000000   0.000000   4.129403   0.000000   0.000000
     5  C    0.000000   0.000000   0.000000   0.000000   4.118499   0.000000
     6  C    0.000000   0.000000   0.000000   0.000000   0.000000   4.056289
     7  Cl   0.000000   0.000000   0.000000   0.000000   0.000000   0.000000
     8  Cl   0.000000   0.000000   0.000000   0.000000   0.000000   0.000000
     9  H    0.000000   0.000000   0.000000   0.000000   0.000000   0.000000
    10  H    0.000000   0.000000   0.000000   0.000000   0.000000   0.000000
    11  H    0.000000   0.000000   0.000000   0.000000   0.000000   0.000000
               7          8          9         10         11
     1  C    0.000000   0.000000   0.000000   0.000000   0.000000
     2  C    0.000000   0.000000   0.000000   0.000000   0.000000
     3  C    0.000000   0.000000   0.000000   0.000000   0.000000
     4  C    0.000000   0.000000   0.000000   0.000000   0.000000
     5  C    0.000000   0.000000   0.000000   0.000000   0.000000
     6  C    0.000000   0.000000   0.000000   0.000000   0.000000
     7  Cl   6.966804   0.000000   0.000000   0.000000   0.000000
     8  Cl   0.000000   6.966805   0.000000   0.000000   0.000000
     9  H    0.000000   0.000000   0.845074   0.000000   0.000000
    10  H    0.000000   0.000000   0.000000   0.854846   0.000000
    11  H    0.000000   0.000000   0.000000   0.000000   0.845098
          Atomic-Atomic Spin Densities.
               1          2          3          4          5          6
     1  C    1.407215   0.000000   0.000000   0.000000   0.000000   0.000000
     2  C    0.000000  -0.473789   0.000000   0.000000   0.000000   0.000000
     3  C    0.000000   0.000000   0.499993   0.000000   0.000000   0.000000
     4  C    0.000000   0.000000   0.000000  -0.449225   0.000000   0.000000
     5  C    0.000000   0.000000   0.000000   0.000000   0.499985   0.000000
     6  C    0.000000   0.000000   0.000000   0.000000   0.000000  -0.473788
     7  Cl   0.000000   0.000000   0.000000   0.000000   0.000000   0.000000
     8  Cl   0.000000   0.000000   0.000000   0.000000   0.000000   0.000000
     9  H    0.000000   0.000000   0.000000   0.000000   0.000000   0.000000
    10  H    0.000000   0.000000   0.000000   0.000000   0.000000   0.000000
    11  H    0.000000   0.000000   0.000000   0.000000   0.000000   0.000000
               7          8          9         10         11
     1  C    0.000000   0.000000   0.000000   0.000000   0.000000
     2  C    0.000000   0.000000   0.000000   0.000000   0.000000
     3  C    0.000000   0.000000   0.000000   0.000000   0.000000
     4  C    0.000000   0.000000   0.000000   0.000000   0.000000
     5  C    0.000000   0.000000   0.000000   0.000000   0.000000
     6  C    0.000000   0.000000   0.000000   0.000000   0.000000
     7  Cl   0.001762   0.000000   0.000000   0.000000   0.000000
     8  Cl   0.000000   0.001762   0.000000   0.000000   0.000000
     9  H    0.000000   0.000000  -0.020217   0.000000   0.000000
    10  H    0.000000   0.000000   0.000000   0.026514   0.000000
    11  H    0.000000   0.000000   0.000000   0.000000  -0.020212
 Mulliken charges and spin densities:
               1          2
     1  C   -0.042376   1.407215
     2  C   -0.056285  -0.473789
     3  C   -0.118520   0.499993
     4  C   -0.129403  -0.449225
     5  C   -0.118499   0.499985
     6  C   -0.056289  -0.473788
     7  Cl   0.033196   0.001762
     8  Cl   0.033195   0.001762
     9  H    0.154926  -0.020217
    10  H    0.145154   0.026514
    11  H    0.154902  -0.020212
 Sum of Mulliken charges =  -0.00000   1.00000
 Mulliken charges and spin densities with hydrogens summed into heavy atoms:
               1          2
     1  C   -0.042376   1.407215
     2  C   -0.056285  -0.473789
     3  C    0.036406   0.479776
     4  C    0.015751  -0.422710
     5  C    0.036402   0.479773
     6  C   -0.056289  -0.473788
     7  Cl   0.033196   0.001762
     8  Cl   0.033195   0.001762
 Charge=              0.0000 electrons
 Dipole moment (field-independent basis, Debye):
    X=              0.0002    Y=             -2.1145    Z=              0.0000  Tot=              2.1145
 N-N= 1.954972290090D+02 E-N=-2.700678308404D+02  KE=-9.043507509069D+01
 Symmetry A'   KE=-7.004838684686D+01
 Symmetry A"   KE=-2.038668824384D+01
 Symmetry A'   SP= 1.000000000000D+00
 Symmetry A"   SP=-2.997602166488D-15
 1\1\GINC-SH02-01N04\FOpt\UAM1\ZDO\C6H3Cl2(2)\JLAPIER\10-Dec-2025\0\\# 
 opt am1 SCF=XQC\\Neutral Radical (removed 2) 1_3\\0,2\C,-3.0216655682,
 0.0978559676,0.\C,-1.904613439,0.9000130159,0.\C,-0.666920213,0.218195
 4279,0.\C,-0.6552998243,-1.1830416092,0.\C,-1.8348654955,-1.939492948,
 0.\C,-3.0824896546,-1.2760294845,0.\Cl,-4.5415860741,-2.1155043021,0.\
 Cl,-1.9995727749,2.5806863724,0.\H,0.2751213079,0.7846133509,0.\H,0.31
 31374754,-1.7072528451,0.\H,-1.7940157398,-3.0377429457,0.\\Version=ES
 64L-G16RevB.01\State=2-A'\HF=0.0981169\S2=1.251896\S2-1=0.\S2A=0.96777
 \RMSD=3.218e-09\RMSF=1.536e-04\Dipole=0.7316541,-0.3959504,0.\PG=CS [S
 G(C6H3Cl2)]\\@


 THIS CURIOUS WORLD WHICH WE INHABIT IS MORE WONDERFUL THAN IT IS CONVENIENT;
 MORE BEAUTIFUL THAN IT IS USEFUL;
 IT IS MORE TO BE ADMIRED THAN IT IS TO BE USED.

                                                                 -- THOREAU
 Job cpu time:       0 days  0 hours  0 minutes  9.0 seconds.
 Elapsed time:       0 days  0 hours  0 minutes 22.7 seconds.
 File lengths (MBytes):  RWF=     10 Int=      0 D2E=      0 Chk=      2 Scr=      1
 Normal termination of Gaussian 16 at Wed Dec 10 10:38:20 2025.
