 Entering Gaussian System, Link 0=g16
 Initial command:
 /share/software/user/restricted/gaussian/g16.B01/l1.exe "/home/users/jlapier/Chloroaromatics/Gau-15863.inp" -scrdir="/home/users/jlapier/Chloroaromatics/"
 Entering Link 1 = /share/software/user/restricted/gaussian/g16.B01/l1.exe PID=     15864.
  
 Copyright (c) 1988-2017, Gaussian, Inc.  All Rights Reserved.
  
 This is part of the Gaussian(R) 16 program.  It is based on
 the Gaussian(R) 09 system (copyright 2009, Gaussian, Inc.),
 the Gaussian(R) 03 system (copyright 2003, Gaussian, Inc.),
 the Gaussian(R) 98 system (copyright 1998, Gaussian, Inc.),
 the Gaussian(R) 94 system (copyright 1995, Gaussian, Inc.),
 the Gaussian 92(TM) system (copyright 1992, Gaussian, Inc.),
 the Gaussian 90(TM) system (copyright 1990, Gaussian, Inc.),
 the Gaussian 88(TM) system (copyright 1988, Gaussian, Inc.),
 the Gaussian 86(TM) system (copyright 1986, Carnegie Mellon
 University), and the Gaussian 82(TM) system (copyright 1983,
 Carnegie Mellon University). Gaussian is a federally registered
 trademark of Gaussian, Inc.
  
 This software contains proprietary and confidential information,
 including trade secrets, belonging to Gaussian, Inc.
  
 This software is provided under written license and may be
 used, copied, transmitted, or stored only in accord with that
 written license.
  
 The following legend is applicable only to US Government
 contracts under FAR:
  
                    RESTRICTED RIGHTS LEGEND
  
 Use, reproduction and disclosure by the US Government is
 subject to restrictions as set forth in subparagraphs (a)
 and (c) of the Commercial Computer Software - Restricted
 Rights clause in FAR 52.227-19.
  
 Gaussian, Inc.
 340 Quinnipiac St., Bldg. 40, Wallingford CT 06492
  
  
 ---------------------------------------------------------------
 Warning -- This program may not be used in any manner that
 competes with the business of Gaussian, Inc. or will provide
 assistance to any competitor of Gaussian, Inc.  The licensee
 of this program is prohibited from giving any competitor of
 Gaussian, Inc. access to this program.  By using this program,
 the user acknowledges that Gaussian, Inc. is engaged in the
 business of creating and licensing software in the field of
 computational chemistry and represents and warrants to the
 licensee that it is not a competitor of Gaussian, Inc. and that
 it will not use this program in any manner prohibited above.
 ---------------------------------------------------------------
  

 Cite this work as:
 Gaussian 16, Revision B.01,
 M. J. Frisch, G. W. Trucks, H. B. Schlegel, G. E. Scuseria, 
 M. A. Robb, J. R. Cheeseman, G. Scalmani, V. Barone, 
 G. A. Petersson, H. Nakatsuji, X. Li, M. Caricato, A. V. Marenich, 
 J. Bloino, B. G. Janesko, R. Gomperts, B. Mennucci, H. P. Hratchian, 
 J. V. Ortiz, A. F. Izmaylov, J. L. Sonnenberg, D. Williams-Young, 
 F. Ding, F. Lipparini, F. Egidi, J. Goings, B. Peng, A. Petrone, 
 T. Henderson, D. Ranasinghe, V. G. Zakrzewski, J. Gao, N. Rega, 
 G. Zheng, W. Liang, M. Hada, M. Ehara, K. Toyota, R. Fukuda, 
 J. Hasegawa, M. Ishida, T. Nakajima, Y. Honda, O. Kitao, H. Nakai, 
 T. Vreven, K. Throssell, J. A. Montgomery, Jr., J. E. Peralta, 
 F. Ogliaro, M. J. Bearpark, J. J. Heyd, E. N. Brothers, K. N. Kudin, 
 V. N. Staroverov, T. A. Keith, R. Kobayashi, J. Normand, 
 K. Raghavachari, A. P. Rendell, J. C. Burant, S. S. Iyengar, 
 J. Tomasi, M. Cossi, J. M. Millam, M. Klene, C. Adamo, R. Cammi, 
 J. W. Ochterski, R. L. Martin, K. Morokuma, O. Farkas, 
 J. B. Foresman, and D. J. Fox, Gaussian, Inc., Wallingford CT, 2016.
 
 ******************************************
 Gaussian 16:  ES64L-G16RevB.01 20-Dec-2017
                10-Dec-2025 
 ******************************************
 %mem=2GB
 %nprocshare=1
 Will use up to    1 processors via shared memory.
 %chk=geometry_chks/123-12_-ClBzNeutralRadical.chk
 -----------------
 # opt am1 SCF=XQC
 -----------------
 1/18=20,19=15,26=1,38=1/1,3;
 2/9=110,12=2,17=6,18=5,40=1/2;
 3/5=2,25=1,41=700000,71=1/1,2,3;
 4/35=1/1;
 5/5=2,8=3,13=1,35=1,38=5/2,8;
 6/7=2,8=2,9=2,10=2,28=1/1;
 7//1,2,3,16;
 1/18=20,19=15,26=1/3(2);
 2/9=110/2;
 99//99;
 2/9=110/2;
 3/5=2,25=1,41=700000,71=1,135=20/1,2,3;
 4/5=5,16=3,35=1/1;
 5/5=2,8=3,13=1,35=1,38=5/2,8;
 7//1,2,3,16;
 1/18=20,19=15,26=1/3(-5);
 2/9=110/2;
 6/7=2,8=2,9=2,10=2,19=2,28=1/1;
 99/9=1/99;
 -------------------------------
 Neutral Radical (removed 3) 12_
 -------------------------------
 Symbolic Z-matrix:
 Charge =  0 Multiplicity = 2
 C                    -3.20928   0.19943   0. 
 C                    -2.0115    0.93555   0. 
 C                    -0.77511   0.2663    0. 
 C                    -0.7365   -1.13907   0. 
 C                    -1.93429  -1.87519   0. 
 C                    -3.17067  -1.20594   0. 
 Cl                   -4.67483  -2.13035   0. 
 Cl                   -4.76193   1.03987   0. 
 H                     0.72905   1.19071   0. 
 H                     0.81614  -1.97951   0. 
 H                    -1.8858   -3.64003   0. 
 
 Add virtual bond connecting atoms H11        and C5         Dist= 3.34D+00.
 Add virtual bond connecting atoms H10        and C4         Dist= 3.34D+00.
 Add virtual bond connecting atoms H9         and C3         Dist= 3.34D+00.

 GradGradGradGradGradGradGradGradGradGradGradGradGradGradGradGradGradGrad
 Berny optimization.
 Initialization pass.
                           ----------------------------
                           !    Initial Parameters    !
                           ! (Angstroms and Degrees)  !
 --------------------------                            --------------------------
 ! Name  Definition              Value          Derivative Info.                !
 --------------------------------------------------------------------------------
 ! R1    R(1,2)                  1.4059         estimate D2E/DX2                !
 ! R2    R(1,6)                  1.4059         estimate D2E/DX2                !
 ! R3    R(1,8)                  1.7655         estimate D2E/DX2                !
 ! R4    R(2,3)                  1.4059         estimate D2E/DX2                !
 ! R5    R(3,4)                  1.4059         estimate D2E/DX2                !
 ! R6    R(3,9)                  1.7655         estimate D2E/DX2                !
 ! R7    R(4,5)                  1.4059         estimate D2E/DX2                !
 ! R8    R(4,10)                 1.7655         estimate D2E/DX2                !
 ! R9    R(5,6)                  1.4059         estimate D2E/DX2                !
 ! R10   R(5,11)                 1.7655         estimate D2E/DX2                !
 ! R11   R(6,7)                  1.7655         estimate D2E/DX2                !
 ! A1    A(2,1,6)              119.9999         estimate D2E/DX2                !
 ! A2    A(2,1,8)              119.9999         estimate D2E/DX2                !
 ! A3    A(6,1,8)              120.0001         estimate D2E/DX2                !
 ! A4    A(1,2,3)              120.0            estimate D2E/DX2                !
 ! A5    A(2,3,4)              120.0001         estimate D2E/DX2                !
 ! A6    A(2,3,9)              120.0            estimate D2E/DX2                !
 ! A7    A(4,3,9)              119.9999         estimate D2E/DX2                !
 ! A8    A(3,4,5)              119.9997         estimate D2E/DX2                !
 ! A9    A(3,4,10)             120.0003         estimate D2E/DX2                !
 ! A10   A(5,4,10)             120.0            estimate D2E/DX2                !
 ! A11   A(4,5,6)              120.0            estimate D2E/DX2                !
 ! A12   A(4,5,11)             119.9996         estimate D2E/DX2                !
 ! A13   A(6,5,11)             120.0004         estimate D2E/DX2                !
 ! A14   A(1,6,5)              120.0003         estimate D2E/DX2                !
 ! A15   A(1,6,7)              119.9999         estimate D2E/DX2                !
 ! A16   A(5,6,7)              119.9998         estimate D2E/DX2                !
 ! D1    D(6,1,2,3)              0.0            estimate D2E/DX2                !
 ! D2    D(8,1,2,3)            180.0            estimate D2E/DX2                !
 ! D3    D(2,1,6,5)              0.0            estimate D2E/DX2                !
 ! D4    D(2,1,6,7)            180.0            estimate D2E/DX2                !
 ! D5    D(8,1,6,5)            180.0            estimate D2E/DX2                !
 ! D6    D(8,1,6,7)              0.0            estimate D2E/DX2                !
 ! D7    D(1,2,3,4)              0.0            estimate D2E/DX2                !
 ! D8    D(1,2,3,9)            180.0            estimate D2E/DX2                !
 ! D9    D(2,3,4,5)              0.0            estimate D2E/DX2                !
 ! D10   D(2,3,4,10)           180.0            estimate D2E/DX2                !
 ! D11   D(9,3,4,5)            180.0            estimate D2E/DX2                !
 ! D12   D(9,3,4,10)             0.0            estimate D2E/DX2                !
 ! D13   D(3,4,5,6)              0.0            estimate D2E/DX2                !
 ! D14   D(3,4,5,11)           180.0            estimate D2E/DX2                !
 ! D15   D(10,4,5,6)           180.0            estimate D2E/DX2                !
 ! D16   D(10,4,5,11)            0.0            estimate D2E/DX2                !
 ! D17   D(4,5,6,1)              0.0            estimate D2E/DX2                !
 ! D18   D(4,5,6,7)            180.0            estimate D2E/DX2                !
 ! D19   D(11,5,6,1)           180.0            estimate D2E/DX2                !
 ! D20   D(11,5,6,7)             0.0            estimate D2E/DX2                !
 --------------------------------------------------------------------------------
 Trust Radius=3.00D-01 FncErr=1.00D-07 GrdErr=1.00D-07 EigMax=2.50D+02 EigMin=1.00D-04
 Number of steps in this run=     57 maximum allowed number of steps=    100.
 GradGradGradGradGradGradGradGradGradGradGradGradGradGradGradGradGradGrad

                          Input orientation:                          
 ---------------------------------------------------------------------
 Center     Atomic      Atomic             Coordinates (Angstroms)
 Number     Number       Type             X           Y           Z
 ---------------------------------------------------------------------
      1          6           0       -3.209280    0.199430    0.000000
      2          6           0       -2.011500    0.935550    0.000000
      3          6           0       -0.775110    0.266300    0.000000
      4          6           0       -0.736500   -1.139070    0.000000
      5          6           0       -1.934290   -1.875190    0.000000
      6          6           0       -3.170670   -1.205940    0.000000
      7         17           0       -4.674830   -2.130350    0.000000
      8         17           0       -4.761930    1.039870    0.000000
      9          1           0        0.729050    1.190710    0.000000
     10          1           0        0.816140   -1.979510    0.000000
     11          1           0       -1.885800   -3.640030    0.000000
 ---------------------------------------------------------------------
                    Distance matrix (angstroms):
                    1          2          3          4          5
     1  C    0.000000
     2  C    1.405898   0.000000
     3  C    2.435088   1.405900   0.000000
     4  C    2.811801   2.435092   1.405900   0.000000
     5  C    2.435087   2.811800   2.435093   1.405907   0.000000
     6  C    1.405900   2.435088   2.811796   2.435088   1.405892
     7  Cl   2.752401   4.061166   4.577308   4.061167   2.752393
     8  Cl   1.765520   2.752408   4.061175   4.577321   4.061173
     9  H    4.061167   2.752403   1.765512   2.752401   4.061173
    10  H    4.577312   4.061173   2.752406   1.765511   2.752408
    11  H    4.061164   4.577306   4.061163   2.752397   1.765506
                    6          7          8          9         10
     6  C    0.000000
     7  Cl   1.765512   0.000000
     8  Cl   2.752412   3.171416   0.000000
     9  H    4.577308   6.342819   5.493051   0.000000
    10  H    4.061165   5.493041   6.342832   3.171416   0.000000
    11  H    2.752396   3.171407   5.493049   5.493040   3.171404
                   11
    11  H    0.000000
 Stoichiometry    C6H3Cl2(2)
 Framework group  CS[SG(C6H3Cl2)]
 Deg. of freedom    19
 Full point group                 CS      NOp   2
 Largest Abelian subgroup         CS      NOp   2
 Largest concise Abelian subgroup C1      NOp   1
                         Standard orientation:                         
 ---------------------------------------------------------------------
 Center     Atomic      Atomic             Coordinates (Angstroms)
 Number     Number       Type             X           Y           Z
 ---------------------------------------------------------------------
      1          6           0        0.639601   -0.384964    0.000000
      2          6           0        1.857145    0.317984    0.000000
      3          6           0        1.857145    1.723884    0.000000
      4          6           0        0.639601    2.426837    0.000000
      5          6           0       -0.577948    1.723880   -0.000000
      6          6           0       -0.577943    0.317988   -0.000000
      7         17           0       -2.106921   -0.564768   -0.000000
      8         17           0        0.639602   -2.150484    0.000000
      9          1           0        3.386123    2.606640    0.000000
     10          1           0        0.639596    4.192348    0.000000
     11          1           0       -2.106917    2.606639   -0.000000
 ---------------------------------------------------------------------
 Rotational constants (GHZ):           1.9289619           1.3512435           0.7946140
 Standard basis: VSTO-6G (5D, 7F)
 There are    27 symmetry adapted cartesian basis functions of A'  symmetry.
 There are     8 symmetry adapted cartesian basis functions of A"  symmetry.
 There are    27 symmetry adapted basis functions of A'  symmetry.
 There are     8 symmetry adapted basis functions of A"  symmetry.
    35 basis functions,   210 primitive gaussians,    35 cartesian basis functions
    21 alpha electrons       20 beta electrons
       nuclear repulsion energy       192.9559823636 Hartrees.
 Integral buffers will be    131072 words long.
 Regular integral format.
 Two-electron integral symmetry is turned off.
 Do NDO integrals.
 One-electron integrals computed using PRISM.
 NBasis=    35 RedAO= T EigKep=  1.00D+00  NBF=    27     8
 NBsUse=    35 1.00D-06 EigRej= -1.00D+00 NBFU=    27     8
 Simple Huckel Guess.
 Initial guess orbital symmetries:
 Alpha Orbitals:
       Occupied  (A') (A') (A') (A') (A') (A') (A') (A') (A') (A")
                 (A') (A') (A') (A") (A") (A') (A') (A") (A') (A")
                 (A')
       Virtual   (A') (A") (A") (A') (A') (A") (A') (A') (A') (A')
                 (A') (A') (A') (A')
 Beta  Orbitals:
       Occupied  (A') (A') (A') (A') (A') (A') (A') (A') (A') (A")
                 (A') (A') (A') (A") (A") (A') (A') (A") (A') (A")
       Virtual   (A') (A') (A") (A") (A') (A') (A") (A') (A') (A')
                 (A') (A') (A') (A') (A')
 The electronic state of the initial guess is 2-A'.
 Initial guess <Sx>= 0.0000 <Sy>= 0.0000 <Sz>= 0.5000 <S**2>= 0.7500 S= 0.5000
 Keep J ints in memory in canonical form, NReq=862793.
 Overlap will be assumed to be unity.
 Requested convergence on RMS density matrix=1.00D-08 within  32 cycles.
 Requested convergence on MAX density matrix=1.00D-06.
 Requested convergence on             energy=1.00D-06.
 No special actions if energy rises.
 Fock symm off for IB=2 I1=    1 I=   28 J=   23 Cut=1.00D-07 Err=5.61D-03
 Fock matrix is not symmetric: symmetry in diagonalization turned off.
 Rare condition: small coef for last iteration:  0.000D+00
 Rare condition: small coef for last iteration:  0.000D+00
 Rare condition: small coef for last iteration:  0.000D+00
 Rare condition: small coef for last iteration:  0.000D+00
 Rare condition: small coef for last iteration:  0.000D+00
 Rare condition: small coef for last iteration:  0.000D+00
 >>>>>>>>>> Convergence criterion not met.
 SCF Done:  E(UAM1) =  0.480818379571     A.U. after   33 cycles
            NFock= 32  Conv=0.16D-05     -V/T= 1.0053
 <Sx>= 0.0000 <Sy>= 0.0000 <Sz>= 0.5000 <S**2>= 1.0955 S= 0.6600
 <L.S>=  0.00000000000    
 Annihilation of the first spin contaminant:
 S**2 before annihilation     1.0955,   after     0.8509
 Keep J ints in memory in canonical form, NReq=863193.
 LinEq1:  Iter=  0 NonCon=     1 RMS=6.08D-08 Max=5.33D-07 NDo=     1
 AX will form     1 AO Fock derivatives at one time.
 LinEq1:  Iter=  1 NonCon=     1 RMS=8.47D-09 Max=4.77D-08 NDo=     1
 LinEq1:  Iter=  2 NonCon=     1 RMS=1.79D-09 Max=1.25D-08 NDo=     1
 LinEq1:  Iter=  3 NonCon=     1 RMS=6.08D-10 Max=5.26D-09 NDo=     1
 LinEq1:  Iter=  4 NonCon=     1 RMS=1.95D-10 Max=1.84D-09 NDo=     1
 LinEq1:  Iter=  5 NonCon=     1 RMS=4.88D-11 Max=4.40D-10 NDo=     1
 LinEq1:  Iter=  6 NonCon=     1 RMS=1.25D-11 Max=7.35D-11 NDo=     1
 LinEq1:  Iter=  7 NonCon=     0 RMS=3.46D-12 Max=2.30D-11 NDo=     1
 Linear equations converged to 7.185D-12 7.185D-11 after     7 iterations.
 SCF Done:  E(UAM1) =  0.480818379510     a.u. after    2 cycles
            Convg  =    0.1302D-06                     9 Fock formations.
              S**2 =  1.0955                  -V/T =  1.0053
 <Sx>= 0.0000 <Sy>= 0.0000 <Sz>= 0.5000 <S**2>= 1.0955 S= 0.6600
 <L.S>=  0.00000000000    
 Annihilation of the first spin contaminant:
 S**2 before annihilation     1.0955,   after     0.8509

 **********************************************************************

            Population analysis using the SCF Density.

 **********************************************************************

 Orbital symmetries:
 Alpha Orbitals:
       Occupied  (A') (A') (A') (A') (A') (A') (A') (A') (A') (A')
                 (A") (A') (A") (A') (A") (A') (A') (A') (A') (A")
                 (A")
       Virtual   (A") (A') (A") (A') (A') (A') (A') (A") (A') (A')
                 (A') (A') (A') (A')
 Beta  Orbitals:
       Occupied  (A') (A') (A') (A') (A') (A') (A') (A') (A') (A')
                 (A") (A') (A") (A") (A') (A') (A') (A') (A") (A")
       Virtual   (A') (A') (A") (A') (A") (A') (A') (A') (A") (A')
                 (A') (A') (A') (A') (A')
 The electronic state is 2-A'.
 Alpha  occ. eigenvalues --   -1.42689  -1.36683  -1.35583  -1.11449  -1.10949
 Alpha  occ. eigenvalues --   -0.82610  -0.81826  -0.62314  -0.59936  -0.56266
 Alpha  occ. eigenvalues --   -0.53882  -0.47880  -0.46379  -0.44974  -0.44726
 Alpha  occ. eigenvalues --   -0.44594  -0.43468  -0.40240  -0.37658  -0.36788
 Alpha  occ. eigenvalues --   -0.34942
 Alpha virt. eigenvalues --   -0.00518  -0.00509   0.00354   0.00930   0.01793
 Alpha virt. eigenvalues --    0.03660   0.05018   0.08897   0.14218   0.14512
 Alpha virt. eigenvalues --    0.16352   0.17076   0.17850   0.19715
  Beta  occ. eigenvalues --   -1.42068  -1.36576  -1.35289  -1.11402  -1.08575
  Beta  occ. eigenvalues --   -0.82400  -0.79675  -0.61237  -0.59074  -0.55787
  Beta  occ. eigenvalues --   -0.53619  -0.47360  -0.46294  -0.44590  -0.44429
  Beta  occ. eigenvalues --   -0.43601  -0.40945  -0.39526  -0.35704  -0.34792
  Beta virt. eigenvalues --   -0.02876  -0.01124  -0.00591   0.01313   0.01807
  Beta virt. eigenvalues --    0.02631   0.04637   0.05098   0.09589   0.14721
  Beta virt. eigenvalues --    0.15098   0.17185   0.18206   0.18458   0.20549
          Condensed to atoms (all electrons):
               1          2          3          4          5          6
     1  C    4.067279   0.000000   0.000000   0.000000   0.000000   0.000000
     2  C    0.000000   3.995296   0.000000   0.000000   0.000000   0.000000
     3  C    0.000000   0.000000   4.154134   0.000000   0.000000   0.000000
     4  C    0.000000   0.000000   0.000000   4.109239   0.000000   0.000000
     5  C    0.000000   0.000000   0.000000   0.000000   4.147369   0.000000
     6  C    0.000000   0.000000   0.000000   0.000000   0.000000   4.040673
     7  Cl   0.000000   0.000000   0.000000   0.000000   0.000000   0.000000
     8  Cl   0.000000   0.000000   0.000000   0.000000   0.000000   0.000000
     9  H    0.000000   0.000000   0.000000   0.000000   0.000000   0.000000
    10  H    0.000000   0.000000   0.000000   0.000000   0.000000   0.000000
    11  H    0.000000   0.000000   0.000000   0.000000   0.000000   0.000000
               7          8          9         10         11
     1  C    0.000000   0.000000   0.000000   0.000000   0.000000
     2  C    0.000000   0.000000   0.000000   0.000000   0.000000
     3  C    0.000000   0.000000   0.000000   0.000000   0.000000
     4  C    0.000000   0.000000   0.000000   0.000000   0.000000
     5  C    0.000000   0.000000   0.000000   0.000000   0.000000
     6  C    0.000000   0.000000   0.000000   0.000000   0.000000
     7  Cl   7.018495   0.000000   0.000000   0.000000   0.000000
     8  Cl   0.000000   7.006608   0.000000   0.000000   0.000000
     9  H    0.000000   0.000000   0.807466   0.000000   0.000000
    10  H    0.000000   0.000000   0.000000   0.850329   0.000000
    11  H    0.000000   0.000000   0.000000   0.000000   0.803110
          Atomic-Atomic Spin Densities.
               1          2          3          4          5          6
     1  C    0.066686   0.000000   0.000000   0.000000   0.000000   0.000000
     2  C    0.000000   0.900249   0.000000   0.000000   0.000000   0.000000
     3  C    0.000000   0.000000   0.303347   0.000000   0.000000   0.000000
     4  C    0.000000   0.000000   0.000000  -0.522312   0.000000   0.000000
     5  C    0.000000   0.000000   0.000000   0.000000   0.385899   0.000000
     6  C    0.000000   0.000000   0.000000   0.000000   0.000000  -0.113305
     7  Cl   0.000000   0.000000   0.000000   0.000000   0.000000   0.000000
     8  Cl   0.000000   0.000000   0.000000   0.000000   0.000000   0.000000
     9  H    0.000000   0.000000   0.000000   0.000000   0.000000   0.000000
    10  H    0.000000   0.000000   0.000000   0.000000   0.000000   0.000000
    11  H    0.000000   0.000000   0.000000   0.000000   0.000000   0.000000
               7          8          9         10         11
     1  C    0.000000   0.000000   0.000000   0.000000   0.000000
     2  C    0.000000   0.000000   0.000000   0.000000   0.000000
     3  C    0.000000   0.000000   0.000000   0.000000   0.000000
     4  C    0.000000   0.000000   0.000000   0.000000   0.000000
     5  C    0.000000   0.000000   0.000000   0.000000   0.000000
     6  C    0.000000   0.000000   0.000000   0.000000   0.000000
     7  Cl   0.010119   0.000000   0.000000   0.000000   0.000000
     8  Cl   0.000000   0.007632   0.000000   0.000000   0.000000
     9  H    0.000000   0.000000  -0.211968   0.000000   0.000000
    10  H    0.000000   0.000000   0.000000   0.434261   0.000000
    11  H    0.000000   0.000000   0.000000   0.000000  -0.260608
 Mulliken charges and spin densities:
               1          2
     1  C   -0.067279   0.066686
     2  C    0.004704   0.900249
     3  C   -0.154134   0.303347
     4  C   -0.109239  -0.522312
     5  C   -0.147369   0.385899
     6  C   -0.040673  -0.113305
     7  Cl  -0.018495   0.010119
     8  Cl  -0.006608   0.007632
     9  H    0.192534  -0.211968
    10  H    0.149671   0.434261
    11  H    0.196890  -0.260608
 Sum of Mulliken charges =  -0.00000   1.00000
 Mulliken charges and spin densities with hydrogens summed into heavy atoms:
               1          2
     1  C   -0.067279   0.066686
     2  C    0.004704   0.900249
     3  C    0.038399   0.091379
     4  C    0.040432  -0.088052
     5  C    0.049521   0.125291
     6  C   -0.040673  -0.113305
     7  Cl  -0.018495   0.010119
     8  Cl  -0.006608   0.007632
 Charge=              0.0000 electrons
 Dipole moment (field-independent basis, Debye):
    X=              0.2479    Y=              3.8463    Z=              0.0000  Tot=              3.8542
 N-N= 1.929559823636D+02 E-N=-2.663807374187D+02  KE=-8.998178448208D+01
 Symmetry A'   KE=-6.954612580234D+01
 Symmetry A"   KE=-2.043565867975D+01
 Symmetry A'   SP= 1.000000000000D+00
 Symmetry A"   SP= 5.551115123126D-16
 Calling FoFJK, ICntrl=      2127 FMM=F ISym2X=1 I1Cent= 0 IOpClX= 1 NMat=1 NMatS=1 NMatT=0.
 ***** Axes restored to original set *****
 -------------------------------------------------------------------
 Center     Atomic                   Forces (Hartrees/Bohr)
 Number     Number              X              Y              Z
 -------------------------------------------------------------------
      1        6          -0.013667754    0.039936480   -0.000000000
      2        6           0.020002326   -0.072330915    0.000000000
      3        6           0.060325148    0.045737003   -0.000000000
      4        6           0.038981382   -0.021573887   -0.000000000
      5        6           0.020475766   -0.064767767   -0.000000000
      6        6          -0.005482160   -0.028766414    0.000000000
      7       17           0.033341455    0.017713938   -0.000000000
      8       17           0.034538496   -0.015912430   -0.000000000
      9        1          -0.096900259   -0.058771252    0.000000000
     10        1          -0.087628370    0.047489896    0.000000000
     11        1          -0.003986031    0.111245347    0.000000000
 -------------------------------------------------------------------
 Cartesian Forces:  Max     0.111245347 RMS     0.042154819

 GradGradGradGradGradGradGradGradGradGradGradGradGradGradGradGradGradGrad
 Berny optimization.
 FormGI is forming the generalized inverse of G from B-inverse, IUseBI=4.
 Internal  Forces:  Max     0.113328187 RMS     0.032645307
 Search for a local minimum.
 Step number   1 out of a maximum of   57
 All quantities printed in internal units (Hartrees-Bohrs-Radians)
 Mixed Optimization -- RFO/linear search
 Second derivative matrix not updated -- first step.
 ITU=  0
     Eigenvalues ---    0.02011   0.02011   0.02011   0.02011   0.02011
     Eigenvalues ---    0.02011   0.02011   0.02011   0.06524   0.06524
     Eigenvalues ---    0.06524   0.16000   0.16000   0.16000   0.22076
     Eigenvalues ---    0.23330   0.24905   0.25000   0.25000   0.29033
     Eigenvalues ---    0.29033   0.40955   0.41390   0.44656   0.44657
     Eigenvalues ---    0.44657   0.44657
 RFO step:  Lambda=-1.73727355D-01 EMin= 2.01065740D-02
 Linear search not attempted -- first point.
 Maximum step size (   0.300) exceeded in Quadratic search.
    -- Step size scaled by   0.368
 Iteration  1 RMS(Cart)=  0.04886592 RMS(Int)=  0.00007009
 Iteration  2 RMS(Cart)=  0.00010893 RMS(Int)=  0.00001102
 Iteration  3 RMS(Cart)=  0.00000001 RMS(Int)=  0.00001102
 ClnCor:  largest displacement from symmetrization is 6.10D-09 for atom     9.
 Variable       Old X    -DE/DX   Delta X   Delta X   Delta X     New X
                                 (Linear)    (Quad)   (Total)
    R1        2.65676  -0.03951   0.00000  -0.02320  -0.02319   2.63357
    R2        2.65677  -0.01056   0.00000  -0.00563  -0.00564   2.65113
    R3        3.33635  -0.03795   0.00000  -0.03010  -0.03010   3.30625
    R4        2.65677  -0.05753   0.00000  -0.03453  -0.03451   2.62225
    R5        2.65677  -0.05087   0.00000  -0.03083  -0.03082   2.62595
    R6        3.33633  -0.11333   0.00000  -0.17457  -0.17457   3.16177
    R7        2.65678  -0.04718   0.00000  -0.02824  -0.02825   2.62853
    R8        3.33633  -0.09967   0.00000  -0.15353  -0.15353   3.18280
    R9        2.65675  -0.03117   0.00000  -0.01811  -0.01812   2.63863
   R10        3.33632  -0.11131   0.00000  -0.17146  -0.17146   3.16486
   R11        3.33633  -0.03768   0.00000  -0.02989  -0.02989   3.30644
    A1        2.09439  -0.01718   0.00000  -0.01361  -0.01360   2.08079
    A2        2.09439   0.00451   0.00000   0.00326   0.00326   2.09765
    A3        2.09440   0.01267   0.00000   0.01035   0.01035   2.10475
    A4        2.09439   0.02202   0.00000   0.01880   0.01884   2.11323
    A5        2.09440  -0.00668   0.00000  -0.00790  -0.00788   2.08652
    A6        2.09440   0.00223   0.00000   0.00273   0.00271   2.09711
    A7        2.09439   0.00445   0.00000   0.00517   0.00516   2.09956
    A8        2.09439   0.00507   0.00000   0.00332   0.00332   2.09771
    A9        2.09440  -0.00262   0.00000  -0.00175  -0.00175   2.09265
   A10        2.09440  -0.00245   0.00000  -0.00157  -0.00157   2.09283
   A11        2.09439   0.00613   0.00000   0.00597   0.00594   2.10033
   A12        2.09439  -0.00152   0.00000  -0.00128  -0.00126   2.09313
   A13        2.09440  -0.00462   0.00000  -0.00469  -0.00468   2.08972
   A14        2.09440  -0.00935   0.00000  -0.00659  -0.00661   2.08779
   A15        2.09439   0.00862   0.00000   0.00672   0.00673   2.10113
   A16        2.09439   0.00073   0.00000  -0.00013  -0.00012   2.09427
    D1       -0.00000   0.00000   0.00000   0.00000   0.00000   0.00000
    D2        3.14159  -0.00000   0.00000  -0.00000   0.00000   3.14159
    D3        0.00000   0.00000   0.00000   0.00000   0.00000   0.00000
    D4        3.14159  -0.00000   0.00000  -0.00000   0.00000   3.14159
    D5        3.14159   0.00000   0.00000   0.00000   0.00000   3.14159
    D6        0.00000   0.00000   0.00000   0.00000  -0.00000   0.00000
    D7        0.00000  -0.00000   0.00000  -0.00000  -0.00000   0.00000
    D8        3.14159   0.00000   0.00000   0.00000   0.00000   3.14159
    D9        0.00000   0.00000   0.00000   0.00000   0.00000   0.00000
   D10        3.14159   0.00000   0.00000   0.00000   0.00000   3.14159
   D11        3.14159  -0.00000   0.00000  -0.00000   0.00000   3.14159
   D12       -0.00000  -0.00000   0.00000  -0.00000   0.00000   0.00000
   D13       -0.00000   0.00000   0.00000   0.00000   0.00000   0.00000
   D14        3.14159   0.00000   0.00000   0.00000   0.00000   3.14159
   D15        3.14159  -0.00000   0.00000  -0.00000   0.00000   3.14159
   D16        0.00000   0.00000   0.00000   0.00000   0.00000   0.00000
   D17        0.00000  -0.00000   0.00000  -0.00000   0.00000   0.00000
   D18        3.14159   0.00000   0.00000   0.00000   0.00000   3.14159
   D19        3.14159  -0.00000   0.00000  -0.00000   0.00000   3.14159
   D20       -0.00000  -0.00000   0.00000  -0.00000   0.00000   0.00000
         Item               Value     Threshold  Converged?
 Maximum Force            0.113328     0.000450     NO 
 RMS     Force            0.032645     0.000300     NO 
 Maximum Displacement     0.182796     0.001800     NO 
 RMS     Displacement     0.048887     0.001200     NO 
 Predicted change in Energy=-5.999684D-02
 GradGradGradGradGradGradGradGradGradGradGradGradGradGradGradGradGradGrad

                          Input orientation:                          
 ---------------------------------------------------------------------
 Center     Atomic      Atomic             Coordinates (Angstroms)
 Number     Number       Type             X           Y           Z
 ---------------------------------------------------------------------
      1          6           0       -3.192538    0.190173    0.000000
      2          6           0       -1.995133    0.903205   -0.000000
      3          6           0       -0.771605    0.248596   -0.000000
      4          6           0       -0.737625   -1.140580   -0.000000
      5          6           0       -1.922456   -1.869233   -0.000000
      6          6           0       -3.154528   -1.212228   -0.000000
      7         17           0       -4.639351   -2.137827    0.000000
      8         17           0       -4.722164    1.039474    0.000000
      9          1           0        0.651964    1.127703   -0.000000
     10          1           0        0.742554   -1.944213   -0.000000
     11          1           0       -1.873839   -3.543299   -0.000000
 ---------------------------------------------------------------------
                    Distance matrix (angstroms):
                    1          2          3          4          5
     1  C    0.000000
     2  C    1.393625   0.000000
     3  C    2.421637   1.387636   0.000000
     4  C    2.792400   2.399663   1.389592   0.000000
     5  C    2.419558   2.773390   2.410323   1.390956   0.000000
     6  C    1.402916   2.412313   2.795054   2.417964   1.396301
     7  Cl   2.740958   4.029859   4.544719   4.027154   2.730140
     8  Cl   1.749591   2.730433   4.028945   4.541936   4.037195
     9  H    3.957165   2.656600   1.673134   2.660088   3.950855
    10  H    4.476667   3.950028   2.664787   1.684267   2.666065
    11  H    3.959517   4.448157   3.948846   2.657825   1.674771
                    6          7          8          9         10
     6  C    0.000000
     7  Cl   1.749695   0.000000
     8  Cl   2.743655   3.178380   0.000000
     9  H    4.468183   6.217853   5.374852   0.000000
    10  H    3.965230   5.385387   6.226197   3.073251   0.000000
    11  H    2.659709   3.102162   5.395809   5.310172   3.066364
                   11
    11  H    0.000000
 Stoichiometry    C6H3Cl2(2)
 Framework group  CS[SG(C6H3Cl2)]
 Deg. of freedom    19
 Full point group                 CS      NOp   2
 Largest Abelian subgroup         CS      NOp   2
 Largest concise Abelian subgroup C1      NOp   1
                         Standard orientation:                         
 ---------------------------------------------------------------------
 Center     Atomic      Atomic             Coordinates (Angstroms)
 Number     Number       Type             X           Y           Z
 ---------------------------------------------------------------------
      1          6           0       -0.038363   -0.742385    0.000000
      2          6           0        1.158861   -1.455719    0.000000
      3          6           0        2.382554   -0.801419    0.000000
      4          6           0        2.416884    0.587749    0.000000
      5          6           0        1.232238    1.316700    0.000000
      6          6           0        0.000000    0.660006    0.000000
      7         17           0       -1.484590    1.585979    0.000000
      8         17           0       -1.568204   -1.591301    0.000000
      9          1           0        3.805901   -1.680885    0.000000
     10          1           0        3.897267    1.391008    0.000000
     11          1           0        1.281277    2.990753    0.000000
 ---------------------------------------------------------------------
 Rotational constants (GHZ):           1.9424072           1.3799058           0.8067690
 Standard basis: VSTO-6G (5D, 7F)
 There are    27 symmetry adapted cartesian basis functions of A'  symmetry.
 There are     8 symmetry adapted cartesian basis functions of A"  symmetry.
 There are    27 symmetry adapted basis functions of A'  symmetry.
 There are     8 symmetry adapted basis functions of A"  symmetry.
    35 basis functions,   210 primitive gaussians,    35 cartesian basis functions
    21 alpha electrons       20 beta electrons
       nuclear repulsion energy       194.1485629647 Hartrees.
 Integral buffers will be    131072 words long.
 Regular integral format.
 Two-electron integral symmetry is turned off.
 Do NDO integrals.
 One-electron integrals computed using PRISM.
 NBasis=    35 RedAO= T EigKep=  1.00D+00  NBF=    27     8
 NBsUse=    35 1.00D-06 EigRej= -1.00D+00 NBFU=    27     8
 Initial guess from the checkpoint file:  "geometry_chks/123-12_-ClBzNeutralRadical.chk"
 B after Tr=     0.000000    0.000000    0.000000
         Rot=    0.859297   -0.000000    0.000000    0.511477 Ang=  61.52 deg.
 Initial guess orbital symmetries:
 Alpha Orbitals:
       Occupied  (A') (A') (A') (A') (A') (A') (A') (A') (A') (A')
                 (A") (A') (A") (A') (A") (A') (A') (A') (A') (A")
                 (A")
       Virtual   (A") (A') (A") (A') (A') (A') (A') (A") (A') (A')
                 (A') (A') (A') (A')
 Beta  Orbitals:
       Occupied  (A') (A') (A') (A') (A') (A') (A') (A') (A') (A')
                 (A") (A') (A") (A") (A') (A') (A') (A') (A") (A")
       Virtual   (A') (A') (A") (A') (A") (A') (A') (A') (A") (A')
                 (A') (A') (A') (A') (A')
 Initial guess <Sx>= 0.0000 <Sy>= 0.0000 <Sz>= 0.5000 <S**2>= 1.0955 S= 0.6600
 Keep J ints in memory in canonical form, NReq=862793.
 Overlap will be assumed to be unity.
 Requested convergence on RMS density matrix=1.00D-08 within  32 cycles.
 Requested convergence on MAX density matrix=1.00D-06.
 Requested convergence on             energy=1.00D-06.
 No special actions if energy rises.
 Fock symm off for IB=2 I1=    1 I=   28 J=   12 Cut=1.00D-07 Err=2.15D-03
 Fock matrix is not symmetric: symmetry in diagonalization turned off.
 Rare condition: small coef for last iteration:  0.000D+00
 Rare condition: small coef for last iteration:  0.000D+00
 Rare condition: small coef for last iteration:  0.000D+00
 Rare condition: small coef for last iteration:  0.000D+00
 Rare condition: small coef for last iteration:  0.000D+00
 Rare condition: small coef for last iteration:  0.000D+00
 Rare condition: small coef for last iteration:  0.000D+00
 Rare condition: small coef for last iteration:  0.000D+00
 Rare condition: small coef for last iteration:  0.000D+00
 Rare condition: small coef for last iteration:  0.000D+00
 Rare condition: small coef for last iteration:  0.000D+00
 Rare condition: small coef for last iteration:  0.000D+00
 >>>>>>>>>> Convergence criterion not met.
 SCF Done:  E(UAM1) =  0.415890356536     A.U. after   33 cycles
            NFock= 32  Conv=0.11D-01     -V/T= 1.0046
 <Sx>= 0.0000 <Sy>= 0.0000 <Sz>= 0.5000 <S**2>= 0.8088 S= 0.5290
 <L.S>=  0.00000000000    
 Annihilation of the first spin contaminant:
 S**2 before annihilation     0.8088,   after     0.7523
 Keep J ints in memory in canonical form, NReq=863193.
 LinEq1:  Iter=  0 NonCon=     1 RMS=6.22D-04 Max=6.72D-03 NDo=     1
 AX will form     1 AO Fock derivatives at one time.
 LinEq1:  Iter=  1 NonCon=     1 RMS=1.01D-04 Max=6.70D-04 NDo=     1
 LinEq1:  Iter=  2 NonCon=     1 RMS=1.89D-05 Max=1.57D-04 NDo=     1
 LinEq1:  Iter=  3 NonCon=     1 RMS=5.93D-06 Max=4.73D-05 NDo=     1
 LinEq1:  Iter=  4 NonCon=     1 RMS=1.38D-06 Max=8.89D-06 NDo=     1
 LinEq1:  Iter=  5 NonCon=     1 RMS=3.49D-07 Max=1.84D-06 NDo=     1
 LinEq1:  Iter=  6 NonCon=     1 RMS=9.46D-08 Max=4.79D-07 NDo=     1
 LinEq1:  Iter=  7 NonCon=     1 RMS=2.02D-08 Max=1.14D-07 NDo=     1
 LinEq1:  Iter=  8 NonCon=     1 RMS=5.38D-09 Max=6.60D-08 NDo=     1
 LinEq1:  Iter=  9 NonCon=     0 RMS=1.43D-09 Max=1.08D-08 NDo=     1
 Linear equations converged to 2.437D-09 2.437D-08 after     9 iterations.
 Incorrect curvature in search direction -- initial direction reversed.
 LinEq1:  Iter=  0 NonCon=     1 RMS=5.16D-04 Max=3.33D-03 NDo=     1
 LinEq1:  Iter=  1 NonCon=     1 RMS=1.53D-04 Max=1.39D-03 NDo=     1
 LinEq1:  Iter=  2 NonCon=     1 RMS=2.82D-05 Max=2.17D-04 NDo=     1
 LinEq1:  Iter=  3 NonCon=     1 RMS=7.55D-06 Max=7.48D-05 NDo=     1
 LinEq1:  Iter=  4 NonCon=     1 RMS=1.78D-06 Max=1.45D-05 NDo=     1
 LinEq1:  Iter=  5 NonCon=     1 RMS=4.76D-07 Max=2.77D-06 NDo=     1
 LinEq1:  Iter=  6 NonCon=     1 RMS=1.12D-07 Max=5.02D-07 NDo=     1
 LinEq1:  Iter=  7 NonCon=     1 RMS=2.22D-08 Max=1.53D-07 NDo=     1
 LinEq1:  Iter=  8 NonCon=     1 RMS=4.76D-09 Max=5.12D-08 NDo=     1
 LinEq1:  Iter=  9 NonCon=     0 RMS=1.31D-09 Max=9.24D-09 NDo=     1
 Linear equations converged to 2.437D-09 2.437D-08 after     9 iterations.
     Accept linear search using points  1 and  2.
 LinEq1:  Iter=  0 NonCon=     1 RMS=1.52D-04 Max=1.47D-03 NDo=     1
 LinEq1:  Iter=  1 NonCon=     1 RMS=2.73D-05 Max=1.88D-04 NDo=     1
 LinEq1:  Iter=  2 NonCon=     1 RMS=6.20D-06 Max=3.95D-05 NDo=     1
 LinEq1:  Iter=  3 NonCon=     1 RMS=1.57D-06 Max=1.39D-05 NDo=     1
 LinEq1:  Iter=  4 NonCon=     1 RMS=3.69D-07 Max=2.82D-06 NDo=     1
 LinEq1:  Iter=  5 NonCon=     1 RMS=8.32D-08 Max=4.34D-07 NDo=     1
 LinEq1:  Iter=  6 NonCon=     1 RMS=2.21D-08 Max=1.46D-07 NDo=     1
 LinEq1:  Iter=  7 NonCon=     1 RMS=4.96D-09 Max=2.75D-08 NDo=     1
 LinEq1:  Iter=  8 NonCon=     0 RMS=8.12D-10 Max=4.44D-09 NDo=     1
 Linear equations converged to 2.437D-09 2.437D-08 after     8 iterations.
     Minimum is close to point  2 DX=  2.51D-03 DF= -9.17D-11 DXR=  2.50D-03 DFR=  6.25D-06 which will be used.
 LinEq1:  Iter=  0 NonCon=     1 RMS=1.29D-06 Max=1.18D-05 NDo=     1
 LinEq1:  Iter=  1 NonCon=     1 RMS=3.71D-07 Max=2.27D-06 NDo=     1
 LinEq1:  Iter=  2 NonCon=     1 RMS=9.24D-08 Max=7.73D-07 NDo=     1
 LinEq1:  Iter=  3 NonCon=     1 RMS=2.12D-08 Max=1.90D-07 NDo=     1
 LinEq1:  Iter=  4 NonCon=     1 RMS=5.16D-09 Max=2.79D-08 NDo=     1
 LinEq1:  Iter=  5 NonCon=     1 RMS=1.22D-09 Max=6.82D-09 NDo=     1
 LinEq1:  Iter=  6 NonCon=     1 RMS=3.32D-10 Max=2.24D-09 NDo=     1
 LinEq1:  Iter=  7 NonCon=     0 RMS=6.53D-11 Max=4.16D-10 NDo=     1
 Linear equations converged to 2.501D-10 2.501D-09 after     7 iterations.
 LinEq1:  Iter=  0 NonCon=     1 RMS=3.17D-08 Max=2.01D-07 NDo=     1
 LinEq1:  Iter=  1 NonCon=     1 RMS=8.37D-09 Max=3.68D-08 NDo=     1
 LinEq1:  Iter=  2 NonCon=     1 RMS=2.06D-09 Max=1.16D-08 NDo=     1
 LinEq1:  Iter=  3 NonCon=     1 RMS=5.47D-10 Max=3.32D-09 NDo=     1
 LinEq1:  Iter=  4 NonCon=     1 RMS=1.33D-10 Max=9.50D-10 NDo=     1
 LinEq1:  Iter=  5 NonCon=     1 RMS=3.65D-11 Max=3.19D-10 NDo=     1
 LinEq1:  Iter=  6 NonCon=     1 RMS=8.43D-12 Max=5.05D-11 NDo=     1
 LinEq1:  Iter=  7 NonCon=     0 RMS=2.12D-12 Max=1.91D-11 NDo=     1
 Linear equations converged to 5.876D-12 5.876D-11 after     7 iterations.
 SCF Done:  E(UAM1) =  0.406569535661     a.u. after    6 cycles
            Convg  =    0.2667D-07                    50 Fock formations.
              S**2 =  1.5078                  -V/T =  1.0045
 <Sx>= 0.0000 <Sy>= 0.0000 <Sz>= 0.5000 <S**2>= 1.5078 S= 0.8258
 <L.S>=  0.00000000000    
 Annihilation of the first spin contaminant:
 S**2 before annihilation     1.5078,   after     1.4600
 Calling FoFJK, ICntrl=      2127 FMM=F ISym2X=1 I1Cent= 0 IOpClX= 1 NMat=1 NMatS=1 NMatT=0.
 ***** Axes restored to original set *****
 -------------------------------------------------------------------
 Center     Atomic                   Forces (Hartrees/Bohr)
 Number     Number              X              Y              Z
 -------------------------------------------------------------------
      1        6          -0.028735107    0.040323684   -0.000000000
      2        6           0.017524572   -0.042540891    0.000000000
      3        6           0.080329806    0.062866117   -0.000000000
      4        6           0.083899062   -0.047970538   -0.000000000
      5        6           0.016619369   -0.096209929   -0.000000000
      6        6          -0.019619644   -0.029906976   -0.000000000
      7       17           0.027239482    0.015066820   -0.000000000
      8       17           0.028348172   -0.013797111    0.000000000
      9        1          -0.098477783   -0.059830061    0.000000000
     10        1          -0.102838691    0.055959290    0.000000000
     11        1          -0.004289237    0.116039595    0.000000000
 -------------------------------------------------------------------
 Cartesian Forces:  Max     0.116039595 RMS     0.048478992

 GradGradGradGradGradGradGradGradGradGradGradGradGradGradGradGradGradGrad
 Berny optimization.
 Using GEDIIS/GDIIS optimizer.
 FormGI is forming the generalized inverse of G from B-inverse, IUseBI=4.
 Internal  Forces:  Max     0.117077864 RMS     0.031023712
 Search for a local minimum.
 Step number   2 out of a maximum of   57
 All quantities printed in internal units (Hartrees-Bohrs-Radians)
 Mixed Optimization -- RFO/linear search
 Update second derivatives using D2CorX and points    1    2
 DE= -7.42D-02 DEPred=-6.00D-02 R= 1.24D+00
 TightC=F SS=  1.41D+00  RLast= 3.00D-01 DXNew= 5.0454D-01 9.0000D-01
 Trust test= 1.24D+00 RLast= 3.00D-01 DXMaxT set to 5.05D-01
 ITU=  1  0
 Use linear search instead of GDIIS.
     Eigenvalues ---    0.00026   0.02011   0.02011   0.02011   0.02011
     Eigenvalues ---    0.02011   0.02011   0.02011   0.02011   0.06524
     Eigenvalues ---    0.07394   0.15998   0.16000   0.16001   0.22127
     Eigenvalues ---    0.23415   0.24789   0.25000   0.25031   0.28798
     Eigenvalues ---    0.29033   0.40757   0.41245   0.44570   0.44657
     Eigenvalues ---    0.44657   7.84080
 RFO step:  Lambda=-4.34906693D-03 EMin= 2.56677962D-04
 Quartic linear search produced a step of  0.61333.
 Iteration  1 RMS(Cart)=  0.06765360 RMS(Int)=  0.02777161
 Iteration  2 RMS(Cart)=  0.02628536 RMS(Int)=  0.00011006
 Iteration  3 RMS(Cart)=  0.00000396 RMS(Int)=  0.00011003
 Iteration  4 RMS(Cart)=  0.00000000 RMS(Int)=  0.00011003
 ClnCor:  largest displacement from symmetrization is 6.72D-09 for atom     8.
 Variable       Old X    -DE/DX   Delta X   Delta X   Delta X     New X
                                 (Linear)    (Quad)   (Total)
    R1        2.63357  -0.01432  -0.01422  -0.02549  -0.03955   2.59402
    R2        2.65113   0.00668  -0.00346   0.01596   0.01252   2.66365
    R3        3.30625  -0.03148  -0.01846  -0.07106  -0.08953   3.21672
    R4        2.62225  -0.03029  -0.02117  -0.05756  -0.07858   2.54367
    R5        2.62595  -0.01961  -0.01890  -0.03584  -0.05476   2.57119
    R6        3.16177  -0.11523  -0.10707  -0.08990  -0.19697   2.96480
    R7        2.62853  -0.01865  -0.01733  -0.03347  -0.05096   2.57757
    R8        3.18280  -0.11708  -0.09416  -0.29323  -0.38740   2.79541
    R9        2.63863  -0.00609  -0.01112  -0.00831  -0.01957   2.61906
   R10        3.16486  -0.11612  -0.10516  -0.12830  -0.23346   2.93140
   R11        3.30644  -0.03109  -0.01833  -0.07001  -0.08834   3.21811
    A1        2.08079  -0.01493  -0.00834  -0.03551  -0.04369   2.03710
    A2        2.09765   0.00466   0.00200   0.01215   0.01406   2.11171
    A3        2.10475   0.01027   0.00635   0.02337   0.02963   2.13438
    A4        2.11323   0.01923   0.01156   0.04358   0.05555   2.16878
    A5        2.08652  -0.00445  -0.00483  -0.00849  -0.01322   2.07330
    A6        2.09711   0.00090   0.00167   0.00009   0.00170   2.09881
    A7        2.09956   0.00355   0.00317   0.00840   0.01152   2.11108
    A8        2.09771   0.00095   0.00203  -0.00313  -0.00130   2.09641
    A9        2.09265  -0.00065  -0.00107   0.00082  -0.00015   2.09250
   A10        2.09283  -0.00030  -0.00096   0.00231   0.00145   2.09428
   A11        2.10033   0.00543   0.00364   0.01461   0.01793   2.11826
   A12        2.09313  -0.00126  -0.00077  -0.00376  -0.00438   2.08875
   A13        2.08972  -0.00417  -0.00287  -0.01084  -0.01355   2.07617
   A14        2.08779  -0.00623  -0.00406  -0.01105  -0.01526   2.07253
   A15        2.10113   0.00580   0.00413   0.01084   0.01504   2.11617
   A16        2.09427   0.00043  -0.00007   0.00022   0.00021   2.09449
    D1        0.00000   0.00000   0.00000   0.00000   0.00000   0.00000
    D2        3.14159  -0.00000   0.00000  -0.00000   0.00000   3.14159
    D3       -0.00000   0.00000   0.00000   0.00000   0.00000   0.00000
    D4        3.14159  -0.00000   0.00000  -0.00000   0.00000   3.14159
    D5        3.14159   0.00000   0.00000   0.00000   0.00000   3.14159
    D6       -0.00000   0.00000   0.00000   0.00000   0.00000   0.00000
    D7       -0.00000  -0.00000   0.00000  -0.00000   0.00000   0.00000
    D8        3.14159   0.00000   0.00000   0.00000   0.00000   3.14159
    D9        0.00000   0.00000   0.00000   0.00000  -0.00000   0.00000
   D10        3.14159   0.00000   0.00000   0.00000   0.00000   3.14159
   D11        3.14159  -0.00000   0.00000  -0.00000   0.00000   3.14159
   D12        0.00000  -0.00000   0.00000  -0.00000  -0.00000   0.00000
   D13        0.00000   0.00000   0.00000   0.00000   0.00000   0.00000
   D14        3.14159   0.00000   0.00000   0.00000   0.00000   3.14159
   D15        3.14159  -0.00000   0.00000  -0.00000   0.00000   3.14159
   D16       -0.00000   0.00000   0.00000   0.00000   0.00000   0.00000
   D17       -0.00000  -0.00000   0.00000  -0.00000   0.00000   0.00000
   D18        3.14159  -0.00000   0.00000  -0.00000   0.00000   3.14159
   D19        3.14159  -0.00000   0.00000  -0.00000   0.00000   3.14159
   D20        0.00000  -0.00000   0.00000  -0.00000   0.00000   0.00000
         Item               Value     Threshold  Converged?
 Maximum Force            0.117078     0.000450     NO 
 RMS     Force            0.031024     0.000300     NO 
 Maximum Displacement     0.340095     0.001800     NO 
 RMS     Displacement     0.085355     0.001200     NO 
 Predicted change in Energy=-1.066768D-01
 GradGradGradGradGradGradGradGradGradGradGradGradGradGradGradGradGradGrad

                          Input orientation:                          
 ---------------------------------------------------------------------
 Center     Atomic      Atomic             Coordinates (Angstroms)
 Number     Number       Type             X           Y           Z
 ---------------------------------------------------------------------
      1          6           0       -3.173409    0.179686    0.000000
      2          6           0       -1.965117    0.831093   -0.000000
      3          6           0       -0.770160    0.211469   -0.000000
      4          6           0       -0.737320   -1.148750   -0.000000
      5          6           0       -1.900334   -1.861397   -0.000000
      6          6           0       -3.133740   -1.229296   -0.000000
      7         17           0       -4.564208   -2.153307    0.000000
      8         17           0       -4.637395    1.048180    0.000000
      9          1           0        0.555406    1.050712   -0.000000
     10          1           0        0.562584   -1.854780   -0.000000
     11          1           0       -1.851026   -3.411841   -0.000000
 ---------------------------------------------------------------------
                    Distance matrix (angstroms):
                    1          2          3          4          5
     1  C    0.000000
     2  C    1.372699   0.000000
     3  C    2.403460   1.346053   0.000000
     4  C    2.774756   2.329649   1.360615   0.000000
     5  C    2.405564   2.693270   2.360946   1.363989   0.000000
     6  C    1.409540   2.368731   2.768089   2.397773   1.385945
     7  Cl   2.716096   3.957514   4.470678   3.956539   2.679820
     8  Cl   1.702215   2.681081   3.956715   4.476280   3.994639
     9  H    3.829197   2.530073   1.568902   2.551230   3.809336
    10  H    4.254021   3.688250   2.458778   1.479266   2.462927
    11  H    3.827239   4.244468   3.781090   2.522284   1.551228
                    6          7          8          9         10
     6  C    0.000000
     7  Cl   1.702948   0.000000
     8  Cl   2.729080   3.202323   0.000000
     9  H    4.336846   6.039551   5.192801   0.000000
    10  H    3.748872   5.135476   5.955414   2.905501   0.000000
    11  H    2.531572   2.990863   5.258863   5.070039   2.872273
                   11
    11  H    0.000000
 Stoichiometry    C6H3Cl2(2)
 Framework group  CS[SG(C6H3Cl2)]
 Deg. of freedom    19
 Full point group                 CS      NOp   2
 Largest Abelian subgroup         CS      NOp   2
 Largest concise Abelian subgroup C1      NOp   1
                         Standard orientation:                         
 ---------------------------------------------------------------------
 Center     Atomic      Atomic             Coordinates (Angstroms)
 Number     Number       Type             X           Y           Z
 ---------------------------------------------------------------------
      1          6           0       -0.083731   -0.740528    0.000000
      2          6           0        1.103589   -1.429419   -0.000000
      3          6           0        2.317347   -0.847484   -0.000000
      4          6           0        2.392727    0.511042   -0.000000
      5          6           0        1.252579    1.259726   -0.000000
      6          6           0        0.000000    0.666523    0.000000
      7         17           0       -1.400858    1.634836    0.000000
      8         17           0       -1.574172   -1.562794    0.000000
      9          1           0        3.616007   -1.727789   -0.000000
     10          1           0        3.714084    1.176057   -0.000000
     11          1           0        1.350370    2.807868   -0.000000
 ---------------------------------------------------------------------
 Rotational constants (GHZ):           1.9557555           1.4441279           0.8307229
 Standard basis: VSTO-6G (5D, 7F)
 There are    27 symmetry adapted cartesian basis functions of A'  symmetry.
 There are     8 symmetry adapted cartesian basis functions of A"  symmetry.
 There are    27 symmetry adapted basis functions of A'  symmetry.
 There are     8 symmetry adapted basis functions of A"  symmetry.
    35 basis functions,   210 primitive gaussians,    35 cartesian basis functions
    21 alpha electrons       20 beta electrons
       nuclear repulsion energy       196.4652782624 Hartrees.
 Integral buffers will be    131072 words long.
 Regular integral format.
 Two-electron integral symmetry is turned off.
 Do NDO integrals.
 One-electron integrals computed using PRISM.
 NBasis=    35 RedAO= T EigKep=  1.00D+00  NBF=    27     8
 NBsUse=    35 1.00D-06 EigRej= -1.00D+00 NBFU=    27     8
 Initial guess from the checkpoint file:  "geometry_chks/123-12_-ClBzNeutralRadical.chk"
 B after Tr=     0.000000   -0.000000   -0.000000
         Rot=    0.999904   -0.000000    0.000000    0.013842 Ang=   1.59 deg.
 Initial guess orbital symmetries:
 Alpha Orbitals:
       Occupied  (A') (A') (A') (A') (A') (A') (A') (A') (A') (A')
                 (A") (A') (A") (A') (A") (A') (A') (A') (A') (A")
                 (A")
       Virtual   (A') (A") (A") (A') (A') (A') (A') (A") (A') (A')
                 (A') (A') (A') (A')
 Beta  Orbitals:
       Occupied  (A') (A') (A') (A') (A') (A') (A') (A') (A') (A')
                 (A") (A') (A") (A") (A') (A') (A') (A') (A") (A")
       Virtual   (A') (A") (A') (A') (A") (A') (A') (A') (A") (A')
                 (A') (A') (A') (A') (A')
 Initial guess <Sx>= 0.0000 <Sy>= 0.0000 <Sz>= 0.5000 <S**2>= 1.5078 S= 0.8258
 Keep J ints in memory in canonical form, NReq=862793.
 Overlap will be assumed to be unity.
 Requested convergence on RMS density matrix=1.00D-08 within  32 cycles.
 Requested convergence on MAX density matrix=1.00D-06.
 Requested convergence on             energy=1.00D-06.
 No special actions if energy rises.
 Fock symm off for IB=2 I1=    1 I=   28 J=    6 Cut=1.00D-07 Err=5.06D-03
 Fock matrix is not symmetric: symmetry in diagonalization turned off.
 SCF Done:  E(UAM1) =  0.303113657044     A.U. after   20 cycles
            NFock= 19  Conv=0.62D-08     -V/T= 1.0034
 <Sx>= 0.0000 <Sy>= 0.0000 <Sz>= 0.5000 <S**2>= 1.1652 S= 0.6896
 <L.S>=  0.00000000000    
 Annihilation of the first spin contaminant:
 S**2 before annihilation     1.1652,   after     0.9043
 QCSCF skips out because SCF is already converged.
 Calling FoFJK, ICntrl=      2127 FMM=F ISym2X=1 I1Cent= 0 IOpClX= 1 NMat=1 NMatS=1 NMatT=0.
 ***** Axes restored to original set *****
 -------------------------------------------------------------------
 Center     Atomic                   Forces (Hartrees/Bohr)
 Number     Number              X              Y              Z
 -------------------------------------------------------------------
      1        6          -0.027254431    0.017727170   -0.000000000
      2        6          -0.006295922    0.004430316   -0.000000000
      3        6           0.125559804    0.088656125   -0.000000000
      4        6           0.123228389   -0.076478932   -0.000000000
      5        6          -0.001041256   -0.131970713    0.000000000
      6        6          -0.018059385   -0.013347561    0.000000000
      7       17           0.005492224    0.003760224   -0.000000000
      8       17           0.007169908   -0.004628137    0.000000000
      9        1          -0.101456337   -0.063468201    0.000000000
     10        1          -0.102704237    0.055567109    0.000000000
     11        1          -0.004638757    0.119752601    0.000000000
 -------------------------------------------------------------------
 Cartesian Forces:  Max     0.131970713 RMS     0.056711447

 GradGradGradGradGradGradGradGradGradGradGradGradGradGradGradGradGradGrad
 Berny optimization.
 Using GEDIIS/GDIIS optimizer.
 FormGI is forming the generalized inverse of G from B-inverse, IUseBI=4.
 Internal  Forces:  Max     0.119839538 RMS     0.031014610
 Search for a local minimum.
 Step number   3 out of a maximum of   57
 All quantities printed in internal units (Hartrees-Bohrs-Radians)
 Mixed Optimization -- RFO/linear search
 Update second derivatives using D2CorX and points    2    3
 DE= -1.03D-01 DEPred=-1.07D-01 R= 9.70D-01
 TightC=F SS=  1.41D+00  RLast= 5.30D-01 DXNew= 8.4853D-01 1.5887D+00
 Trust test= 9.70D-01 RLast= 5.30D-01 DXMaxT set to 8.49D-01
 ITU=  1  1  0
 Use linear search instead of GDIIS.
     Eigenvalues ---    0.00134   0.02011   0.02011   0.02011   0.02011
     Eigenvalues ---    0.02011   0.02011   0.02011   0.02011   0.06518
     Eigenvalues ---    0.06588   0.15977   0.16000   0.16006   0.20485
     Eigenvalues ---    0.22593   0.24202   0.25000   0.25053   0.27008
     Eigenvalues ---    0.29050   0.40601   0.41474   0.44232   0.44657
     Eigenvalues ---    0.44884   8.39336
 RFO step:  Lambda=-9.82884119D-02 EMin= 1.33859164D-03
 Quartic linear search produced a step of  1.42558.
 Maximum step size (   0.849) exceeded in Quadratic search.
    -- Step size scaled by   0.942
 Iteration  1 RMS(Cart)=  0.07358220 RMS(Int)=  0.13962771
 Iteration  2 RMS(Cart)=  0.04592954 RMS(Int)=  0.09607376
 Iteration  3 RMS(Cart)=  0.04031151 RMS(Int)=  0.05518436
 Iteration  4 RMS(Cart)=  0.04031154 RMS(Int)=  0.01626988
 Iteration  5 RMS(Cart)=  0.01562346 RMS(Int)=  0.00011146
 Iteration  6 RMS(Cart)=  0.00000191 RMS(Int)=  0.00011145
 Iteration  7 RMS(Cart)=  0.00000000 RMS(Int)=  0.00011145
 ClnCor:  largest displacement from symmetrization is 7.29D-09 for atom     7.
 Variable       Old X    -DE/DX   Delta X   Delta X   Delta X     New X
                                 (Linear)    (Quad)   (Total)
    R1        2.59402   0.01537  -0.05637  -0.02088  -0.07710   2.51692
    R2        2.66365   0.01471   0.01785  -0.09496  -0.07713   2.58651
    R3        3.21672  -0.00853  -0.12763   0.11867  -0.00896   3.20776
    R4        2.54367   0.02171  -0.11202   0.07162  -0.04023   2.50344
    R5        2.57119   0.02807  -0.07806   0.00771  -0.07033   2.50086
    R6        2.96480  -0.11967  -0.28080  -0.62952  -0.91032   2.05448
    R7        2.57757   0.02225  -0.07265   0.00058  -0.07221   2.50535
    R8        2.79541  -0.11677  -0.55226   0.17432  -0.37795   2.41746
    R9        2.61906   0.01654  -0.02790  -0.06449  -0.09256   2.52650
   R10        2.93140  -0.11984  -0.33282  -0.48357  -0.81639   2.11500
   R11        3.21811  -0.00665  -0.12593   0.12142  -0.00451   3.21360
    A1        2.03710  -0.00429  -0.06229   0.06330   0.00112   2.03822
    A2        2.11171   0.00266   0.02005  -0.02425  -0.00426   2.10745
    A3        2.13438   0.00163   0.04224  -0.03905   0.00314   2.13752
    A4        2.16878   0.01007   0.07919  -0.05660   0.02300   2.19178
    A5        2.07330  -0.00744  -0.01885  -0.02655  -0.04524   2.02806
    A6        2.09881   0.00276   0.00242   0.02193   0.02428   2.12309
    A7        2.11108   0.00468   0.01642   0.00462   0.02096   2.13203
    A8        2.09641  -0.00475  -0.00185   0.02289   0.02090   2.11731
    A9        2.09250   0.00264  -0.00022  -0.00706  -0.00720   2.08529
   A10        2.09428   0.00211   0.00207  -0.01584  -0.01370   2.08059
   A11        2.11826   0.00517   0.02555  -0.01312   0.01211   2.13037
   A12        2.08875  -0.00137  -0.00624   0.00411  -0.00197   2.08679
   A13        2.07617  -0.00380  -0.01932   0.00901  -0.01014   2.06603
   A14        2.07253   0.00124  -0.02175   0.01007  -0.01189   2.06064
   A15        2.11617  -0.00091   0.02145  -0.01083   0.01073   2.12690
   A16        2.09449  -0.00033   0.00031   0.00075   0.00117   2.09565
    D1       -0.00000   0.00000   0.00000   0.00000   0.00000   0.00000
    D2        3.14159  -0.00000   0.00000  -0.00000   0.00000   3.14159
    D3        0.00000  -0.00000   0.00000   0.00000  -0.00000   0.00000
    D4        3.14159  -0.00000   0.00000   0.00000   0.00000   3.14159
    D5        3.14159   0.00000   0.00000   0.00000   0.00000   3.14159
    D6        0.00000   0.00000   0.00000   0.00000   0.00000   0.00000
    D7        0.00000  -0.00000   0.00000  -0.00000  -0.00000   0.00000
    D8        3.14159   0.00000   0.00000   0.00000   0.00000   3.14159
    D9       -0.00000   0.00000   0.00000   0.00000   0.00000   0.00000
   D10        3.14159   0.00000   0.00000   0.00000   0.00000   3.14159
   D11        3.14159  -0.00000   0.00000  -0.00000   0.00000   3.14159
   D12        0.00000  -0.00000   0.00000  -0.00000  -0.00000   0.00000
   D13        0.00000   0.00000   0.00000   0.00000   0.00000   0.00000
   D14        3.14159   0.00000   0.00000   0.00000   0.00000   3.14159
   D15        3.14159  -0.00000   0.00000  -0.00000   0.00000   3.14159
   D16       -0.00000  -0.00000   0.00000  -0.00000   0.00000   0.00000
   D17       -0.00000  -0.00000   0.00000  -0.00000   0.00000   0.00000
   D18        3.14159  -0.00000   0.00000  -0.00000   0.00000   3.14159
   D19        3.14159  -0.00000   0.00000  -0.00000   0.00000   3.14159
   D20        0.00000  -0.00000   0.00000  -0.00000   0.00000   0.00000
         Item               Value     Threshold  Converged?
 Maximum Force            0.119840     0.000450     NO 
 RMS     Force            0.031015     0.000300     NO 
 Maximum Displacement     0.855470     0.001800     NO 
 RMS     Displacement     0.197218     0.001200     NO 
 Predicted change in Energy=-2.395546D-01
 GradGradGradGradGradGradGradGradGradGradGradGradGradGradGradGradGradGrad

                          Input orientation:                          
 ---------------------------------------------------------------------
 Center     Atomic      Atomic             Coordinates (Angstroms)
 Number     Number       Type             X           Y           Z
 ---------------------------------------------------------------------
      1          6           0       -3.086165    0.128274   -0.000000
      2          6           0       -1.911963    0.756923   -0.000000
      3          6           0       -0.723886    0.170863   -0.000000
      4          6           0       -0.725202   -1.152533   -0.000000
      5          6           0       -1.858555   -1.840422   -0.000000
      6          6           0       -3.053138   -1.240051   -0.000000
      7         17           0       -4.475376   -2.172333    0.000000
      8         17           0       -4.539841    1.004772    0.000000
      9          1           0        0.197094    0.748583   -0.000000
     10          1           0        0.387825   -1.783160   -0.000000
     11          1           0       -1.825514   -2.959146   -0.000000
 ---------------------------------------------------------------------
                    Distance matrix (angstroms):
                    1          2          3          4          5
     1  C    0.000000
     2  C    1.331897   0.000000
     3  C    2.362663   1.324761   0.000000
     4  C    2.686003   2.248204   1.323396   0.000000
     5  C    2.320085   2.597894   2.309273   1.325775   0.000000
     6  C    1.368724   2.300041   2.723250   2.329580   1.336964
     7  Cl   2.687508   3.892509   4.423148   3.886360   2.637787
     8  Cl   1.697475   2.639541   3.906011   4.382400   3.909531
     9  H    3.341343   2.109073   1.087182   2.113024   3.305850
    10  H    3.965122   3.426521   2.248134   1.279266   2.247109
    11  H    3.334877   3.717074   3.318212   2.115310   1.119211
                    6          7          8          9         10
     6  C    0.000000
     7  Cl   1.700562   0.000000
     8  Cl   2.692493   3.177759   0.000000
     9  H    3.810338   5.510329   4.743858   0.000000
    10  H    3.483560   4.878748   5.661666   2.538918   0.000000
    11  H    2.112426   2.764208   4.804188   4.223529   2.506354
                   11
    11  H    0.000000
 Stoichiometry    C6H3Cl2(2)
 Framework group  CS[SG(C6H3Cl2)]
 Deg. of freedom    19
 Full point group                 CS      NOp   2
 Largest Abelian subgroup         CS      NOp   2
 Largest concise Abelian subgroup C1      NOp   1
                         Standard orientation:                         
 ---------------------------------------------------------------------
 Center     Atomic      Atomic             Coordinates (Angstroms)
 Number     Number       Type             X           Y           Z
 ---------------------------------------------------------------------
      1          6           0       -0.039530   -0.715820    0.000000
      2          6           0        1.131672   -1.350042   -0.000000
      3          6           0        2.322520   -0.769634   -0.000000
      4          6           0        2.327493    0.553752   -0.000000
      5          6           0        1.197423    1.247021   -0.000000
      6          6           0        0.000000    0.652334   -0.000000
      7         17           0       -1.417791    1.591364    0.000000
      8         17           0       -1.497355   -1.585399    0.000000
      9          1           0        3.240744   -1.351725   -0.000000
     10          1           0        3.443505    1.179083   -0.000000
     11          1           0        1.235780    2.365574   -0.000000
 ---------------------------------------------------------------------
 Rotational constants (GHZ):           2.0388701           1.5116917           0.8680719
 Standard basis: VSTO-6G (5D, 7F)
 There are    27 symmetry adapted cartesian basis functions of A'  symmetry.
 There are     8 symmetry adapted cartesian basis functions of A"  symmetry.
 There are    27 symmetry adapted basis functions of A'  symmetry.
 There are     8 symmetry adapted basis functions of A"  symmetry.
    35 basis functions,   210 primitive gaussians,    35 cartesian basis functions
    21 alpha electrons       20 beta electrons
       nuclear repulsion energy       200.7610344705 Hartrees.
 Integral buffers will be    131072 words long.
 Regular integral format.
 Two-electron integral symmetry is turned off.
 Do NDO integrals.
 One-electron integrals computed using PRISM.
 NBasis=    35 RedAO= T EigKep=  1.00D+00  NBF=    27     8
 NBsUse=    35 1.00D-06 EigRej= -1.00D+00 NBFU=    27     8
 Initial guess from the checkpoint file:  "geometry_chks/123-12_-ClBzNeutralRadical.chk"
 B after Tr=    -0.000000    0.000000   -0.000000
         Rot=    0.999915    0.000000    0.000000   -0.013022 Ang=  -1.49 deg.
 Initial guess orbital symmetries:
 Alpha Orbitals:
       Occupied  (A') (A') (A') (A') (A') (A') (A') (A') (A') (A')
                 (A") (A') (A") (A') (A") (A') (A') (A') (A') (A")
                 (A")
       Virtual   (A") (A") (A') (A') (A') (A') (A') (A") (A') (A')
                 (A') (A') (A') (A')
 Beta  Orbitals:
       Occupied  (A') (A') (A') (A') (A') (A') (A') (A') (A') (A')
                 (A") (A') (A") (A") (A') (A') (A') (A') (A") (A")
       Virtual   (A') (A") (A") (A') (A') (A') (A') (A') (A") (A')
                 (A') (A') (A') (A') (A')
 Initial guess <Sx>= 0.0000 <Sy>= 0.0000 <Sz>= 0.5000 <S**2>= 1.1652 S= 0.6896
 Keep J ints in memory in canonical form, NReq=862793.
 Overlap will be assumed to be unity.
 Requested convergence on RMS density matrix=1.00D-08 within  32 cycles.
 Requested convergence on MAX density matrix=1.00D-06.
 Requested convergence on             energy=1.00D-06.
 No special actions if energy rises.
 Fock symm off for IB=2 I1=    1 I=   28 J=   13 Cut=1.00D-07 Err=2.79D-03
 Fock matrix is not symmetric: symmetry in diagonalization turned off.
 SCF Done:  E(UAM1) =  0.147571239227     A.U. after   18 cycles
            NFock= 17  Conv=0.90D-08     -V/T= 1.0016
 <Sx>= 0.0000 <Sy>= 0.0000 <Sz>= 0.5000 <S**2>= 0.9316 S= 0.5870
 <L.S>=  0.00000000000    
 Annihilation of the first spin contaminant:
 S**2 before annihilation     0.9316,   after     0.7743
 QCSCF skips out because SCF is already converged.
 Calling FoFJK, ICntrl=      2127 FMM=F ISym2X=1 I1Cent= 0 IOpClX= 1 NMat=1 NMatS=1 NMatT=0.
 ***** Axes restored to original set *****
 -------------------------------------------------------------------
 Center     Atomic                   Forces (Hartrees/Bohr)
 Number     Number              X              Y              Z
 -------------------------------------------------------------------
      1        6          -0.079004944    0.049424702   -0.000000000
      2        6          -0.011507967    0.060020788    0.000000000
      3        6           0.075051634    0.083537681   -0.000000000
      4        6           0.160813774   -0.098313660   -0.000000000
      5        6          -0.001774378   -0.123628217   -0.000000000
      6        6          -0.085539713   -0.022912679   -0.000000000
      7       17          -0.001946346    0.000619663   -0.000000000
      8       17          -0.000987174    0.000488689    0.000000000
      9        1           0.011253903    0.008021931    0.000000000
     10        1          -0.067549447    0.038285190    0.000000000
     11        1           0.001190657    0.004455913    0.000000000
 -------------------------------------------------------------------
 Cartesian Forces:  Max     0.160813774 RMS     0.052203828

 GradGradGradGradGradGradGradGradGradGradGradGradGradGradGradGradGradGrad
 Berny optimization.
 Using GEDIIS/GDIIS optimizer.
 FormGI is forming the generalized inverse of G from B-inverse, IUseBI=4.
 Internal  Forces:  Max     0.120305015 RMS     0.037786552
 Search for a local minimum.
 Step number   4 out of a maximum of   57
 All quantities printed in internal units (Hartrees-Bohrs-Radians)
 Mixed Optimization -- RFO/linear search
 Update second derivatives using D2CorX and points    3    4
 DE= -1.56D-01 DEPred=-2.40D-01 R= 6.49D-01
 TightC=F SS=  1.41D+00  RLast= 1.29D+00 DXNew= 1.4270D+00 3.8829D+00
 Trust test= 6.49D-01 RLast= 1.29D+00 DXMaxT set to 1.43D+00
 ITU=  1  1  1  0
 Use linear search instead of GDIIS.
     Eigenvalues ---    0.02011   0.02011   0.02011   0.02011   0.02011
     Eigenvalues ---    0.02011   0.02011   0.02011   0.02194   0.06524
     Eigenvalues ---    0.14354   0.15969   0.16005   0.16007   0.20087
     Eigenvalues ---    0.23786   0.24201   0.25003   0.25122   0.27068
     Eigenvalues ---    0.29053   0.40874   0.41304   0.44185   0.44675
     Eigenvalues ---    0.44847   7.81086
 RFO step:  Lambda=-4.96257291D-02 EMin= 2.01065711D-02
 Quartic linear search produced a step of -0.03868.
 Iteration  1 RMS(Cart)=  0.07004626 RMS(Int)=  0.04920799
 Iteration  2 RMS(Cart)=  0.02832170 RMS(Int)=  0.01996142
 Iteration  3 RMS(Cart)=  0.01899822 RMS(Int)=  0.00089399
 Iteration  4 RMS(Cart)=  0.00001007 RMS(Int)=  0.00089395
 Iteration  5 RMS(Cart)=  0.00000000 RMS(Int)=  0.00089395
 ClnCor:  largest displacement from symmetrization is 1.04D-08 for atom    11.
 Variable       Old X    -DE/DX   Delta X   Delta X   Delta X     New X
                                 (Linear)    (Quad)   (Total)
    R1        2.51692   0.07874   0.00298  -0.06049  -0.05606   2.46086
    R2        2.58651   0.08135   0.00298   0.07487   0.07800   2.66451
    R3        3.20776   0.00110   0.00035  -0.19630  -0.19596   3.01181
    R4        2.50344   0.08812   0.00156  -0.06929  -0.06640   2.43703
    R5        2.50086   0.12031   0.00272   0.01730   0.01983   2.52068
    R6        2.05448   0.01380   0.03521   0.17139   0.20660   2.26108
    R7        2.50535   0.11290   0.00279   0.00176   0.00319   2.50854
    R8        2.41746  -0.07764   0.01462  -0.55124  -0.53662   1.88084
    R9        2.52650   0.11124   0.00358   0.03308   0.03539   2.56189
   R10        2.11500  -0.00442   0.03158   0.02553   0.05711   2.17211
   R11        3.21360   0.00129   0.00017  -0.18354  -0.18337   3.03023
    A1        2.03822  -0.00009  -0.00004  -0.09976  -0.09839   1.93982
    A2        2.10745   0.00019   0.00016   0.03479   0.03425   2.14170
    A3        2.13752  -0.00010  -0.00012   0.06497   0.06415   2.20166
    A4        2.19178   0.01653  -0.00089   0.18840   0.19062   2.38239
    A5        2.02806  -0.00860   0.00175  -0.10355  -0.10088   1.92719
    A6        2.12309   0.00346  -0.00094   0.04251   0.04111   2.16420
    A7        2.13203   0.00514  -0.00081   0.06104   0.05977   2.19180
    A8        2.11731  -0.00566  -0.00081   0.01268   0.01030   2.12761
    A9        2.08529   0.00282   0.00028  -0.00277  -0.00170   2.08359
   A10        2.08059   0.00284   0.00053  -0.00991  -0.00860   2.07199
   A11        2.13037  -0.00991  -0.00047   0.02705   0.02397   2.15434
   A12        2.08679   0.00356   0.00008  -0.00887  -0.00749   2.07930
   A13        2.06603   0.00635   0.00039  -0.01818  -0.01648   2.04955
   A14        2.06064   0.00772   0.00046  -0.02483  -0.02562   2.03502
   A15        2.12690  -0.00641  -0.00041   0.02124   0.02145   2.14835
   A16        2.09565  -0.00131  -0.00005   0.00359   0.00417   2.09982
    D1       -0.00000   0.00000   0.00000   0.00000   0.00000   0.00000
    D2        3.14159  -0.00000   0.00000   0.00000   0.00000   3.14159
    D3       -0.00000  -0.00000   0.00000  -0.00000   0.00000   0.00000
    D4        3.14159  -0.00000   0.00000  -0.00000   0.00000   3.14159
    D5        3.14159   0.00000   0.00000   0.00000   0.00000   3.14159
    D6        0.00000   0.00000   0.00000   0.00000  -0.00000   0.00000
    D7        0.00000  -0.00000   0.00000  -0.00000   0.00000   0.00000
    D8        3.14159   0.00000   0.00000   0.00000   0.00000   3.14159
    D9        0.00000  -0.00000   0.00000  -0.00000  -0.00000   0.00000
   D10        3.14159   0.00000   0.00000   0.00000   0.00000   3.14159
   D11        3.14159  -0.00000   0.00000  -0.00000   0.00000   3.14159
   D12       -0.00000  -0.00000   0.00000  -0.00000   0.00000   0.00000
   D13       -0.00000   0.00000   0.00000   0.00000   0.00000   0.00000
   D14        3.14159   0.00000   0.00000   0.00000   0.00000   3.14159
   D15        3.14159  -0.00000   0.00000  -0.00000   0.00000   3.14159
   D16        0.00000   0.00000   0.00000  -0.00000   0.00000   0.00000
   D17        0.00000  -0.00000   0.00000  -0.00000   0.00000   0.00000
   D18        3.14159  -0.00000   0.00000  -0.00000   0.00000   3.14159
   D19        3.14159  -0.00000   0.00000  -0.00000   0.00000   3.14159
   D20       -0.00000  -0.00000   0.00000  -0.00000   0.00000   0.00000
         Item               Value     Threshold  Converged?
 Maximum Force            0.120305     0.000450     NO 
 RMS     Force            0.037787     0.000300     NO 
 Maximum Displacement     0.466266     0.001800     NO 
 RMS     Displacement     0.101047     0.001200     NO 
 Predicted change in Energy=-3.735829D-02
 GradGradGradGradGradGradGradGradGradGradGradGradGradGradGradGradGradGrad

                          Input orientation:                          
 ---------------------------------------------------------------------
 Center     Atomic      Atomic             Coordinates (Angstroms)
 Number     Number       Type             X           Y           Z
 ---------------------------------------------------------------------
      1          6           0       -3.114328    0.131028   -0.000000
      2          6           0       -1.911090    0.629046   -0.000000
      3          6           0       -0.707239    0.166587   -0.000000
      4          6           0       -0.721080   -1.167229   -0.000000
      5          6           0       -1.855242   -1.857034   -0.000000
      6          6           0       -3.081332   -1.278586   -0.000000
      7         17           0       -4.403914   -2.185272    0.000000
      8         17           0       -4.422978    1.040735    0.000000
      9          1           0        0.273049    0.852644   -0.000000
     10          1           0        0.141087   -1.664507   -0.000000
     11          1           0       -1.811654   -3.005641   -0.000000
 ---------------------------------------------------------------------
                    Distance matrix (angstroms):
                    1          2          3          4          5
     1  C    0.000000
     2  C    1.302231   0.000000
     3  C    2.407352   1.289622   0.000000
     4  C    2.722702   2.154699   1.333888   0.000000
     5  C    2.353229   2.486707   2.326576   1.327461   0.000000
     6  C    1.410000   2.237974   2.779360   2.362877   1.355691
     7  Cl   2.651089   3.759595   4.381398   3.820952   2.569721
     8  Cl   1.593780   2.545402   3.817178   4.310354   3.871736
     9  H    3.463388   2.195554   1.196511   2.251262   3.445574
    10  H    3.717751   3.077632   2.018060   0.995298   2.005591
    11  H    3.396417   3.636047   3.358982   2.137547   1.149433
                    6          7          8          9         10
     6  C    0.000000
     7  Cl   1.603528   0.000000
     8  Cl   2.679416   3.226064   0.000000
     9  H    3.974168   5.576999   4.699793   0.000000
    10  H    3.245446   4.574738   5.305566   2.520608   0.000000
    11  H    2.143548   2.718973   4.815825   4.385470   2.368932
                   11
    11  H    0.000000
 Stoichiometry    C6H3Cl2(2)
 Framework group  CS[SG(C6H3Cl2)]
 Deg. of freedom    19
 Full point group                 CS      NOp   2
 Largest Abelian subgroup         CS      NOp   2
 Largest concise Abelian subgroup C1      NOp   1
                         Standard orientation:                         
 ---------------------------------------------------------------------
 Center     Atomic      Atomic             Coordinates (Angstroms)
 Number     Number       Type             X           Y           Z
 ---------------------------------------------------------------------
      1          6           0       -0.177548   -0.712891   -0.000000
      2          6           0        0.968200   -1.331815    0.000000
      3          6           0        2.213170   -0.995401    0.000000
      4          6           0        2.336345    0.332788    0.000000
      5          6           0        1.279000    1.135393    0.000000
      6          6           0       -0.000000    0.685885   -0.000000
      7         17           0       -1.222502    1.723570   -0.000000
      8         17           0       -1.572683   -1.483432   -0.000000
      9          1           0        3.117840   -1.778478    0.000000
     10          1           0        3.245013    0.738919    0.000000
     11          1           0        1.440286    2.273454    0.000000
 ---------------------------------------------------------------------
 Rotational constants (GHZ):           2.0135058           1.5966211           0.8904966
 Standard basis: VSTO-6G (5D, 7F)
 There are    27 symmetry adapted cartesian basis functions of A'  symmetry.
 There are     8 symmetry adapted cartesian basis functions of A"  symmetry.
 There are    27 symmetry adapted basis functions of A'  symmetry.
 There are     8 symmetry adapted basis functions of A"  symmetry.
    35 basis functions,   210 primitive gaussians,    35 cartesian basis functions
    21 alpha electrons       20 beta electrons
       nuclear repulsion energy       202.6157586717 Hartrees.



[...]
 ClnCor:  largest displacement from symmetrization is 3.57D-13 for atom    10.
 Variable       Old X    -DE/DX   Delta X   Delta X   Delta X     New X
                                 (Linear)    (Quad)   (Total)
    R1        2.60091  -0.00008   0.00000  -0.00010  -0.00010   2.60081
    R2        2.68232  -0.00020   0.00000  -0.00042  -0.00042   2.68190
    R3        3.17526  -0.00011  -0.00000  -0.00025  -0.00025   3.17501
    R4        2.58621   0.00014   0.00000   0.00035   0.00035   2.58656
    R5        2.66318   0.00004   0.00000   0.00002   0.00003   2.66321
    R6        2.07282  -0.00023   0.00000  -0.00066  -0.00066   2.07216
    R7        2.64679   0.00002   0.00000  -0.00005  -0.00005   2.64674
    R8        2.07665   0.00001   0.00000  -0.00003  -0.00003   2.07662
    R9        2.66091  -0.00003   0.00000  -0.00003  -0.00003   2.66088
   R10        2.08117  -0.00001  -0.00000   0.00003   0.00003   2.08120
   R11        3.19331  -0.00030  -0.00000  -0.00091  -0.00091   3.19239
    A1        2.00079   0.00001  -0.00000  -0.00004  -0.00004   2.00075
    A2        2.13279  -0.00004   0.00000  -0.00018  -0.00018   2.13262
    A3        2.14960   0.00003  -0.00000   0.00022   0.00022   2.14982
    A4        2.25658  -0.00008   0.00000  -0.00034  -0.00033   2.25625
    A5        2.00481   0.00007  -0.00000   0.00044   0.00044   2.00525
    A6        2.14216  -0.00007   0.00000  -0.00050  -0.00050   2.14165
    A7        2.13622   0.00000  -0.00000   0.00007   0.00007   2.13629
    A8        2.09658  -0.00011   0.00000  -0.00044  -0.00044   2.09614
    A9        2.09310   0.00006   0.00000   0.00025   0.00025   2.09335
   A10        2.09351   0.00005  -0.00000   0.00019   0.00019   2.09370
   A11        2.12092  -0.00000  -0.00000   0.00007   0.00007   2.12099
   A12        2.08334   0.00001   0.00000   0.00004   0.00004   2.08338
   A13        2.07892  -0.00001   0.00000  -0.00010  -0.00010   2.07882
   A14        2.08669   0.00010   0.00000   0.00031   0.00031   2.08700
   A15        2.10838  -0.00006  -0.00000  -0.00013  -0.00013   2.10824
   A16        2.08812  -0.00005  -0.00000  -0.00018  -0.00018   2.08794
    D1       -0.00000   0.00000   0.00000   0.00000   0.00000   0.00000
    D2        3.14159  -0.00000   0.00000  -0.00000   0.00000   3.14159
    D3       -0.00000  -0.00000   0.00000  -0.00000   0.00000   0.00000
    D4        3.14159  -0.00000   0.00000  -0.00000   0.00000   3.14159
    D5        3.14159   0.00000   0.00000   0.00000   0.00000   3.14159
    D6       -0.00000   0.00000   0.00000   0.00000   0.00000   0.00000
    D7       -0.00000  -0.00000   0.00000  -0.00000   0.00000   0.00000
    D8        3.14159   0.00000   0.00000   0.00000   0.00000   3.14159
    D9        0.00000  -0.00000   0.00000  -0.00000   0.00000   0.00000
   D10        3.14159   0.00000   0.00000   0.00000   0.00000   3.14159
   D11        3.14159  -0.00000   0.00000  -0.00000   0.00000   3.14159
   D12       -0.00000  -0.00000   0.00000  -0.00000   0.00000   0.00000
   D13       -0.00000   0.00000   0.00000   0.00000   0.00000   0.00000
   D14        3.14159   0.00000   0.00000   0.00000   0.00000   3.14159
   D15        3.14159  -0.00000   0.00000  -0.00000   0.00000   3.14159
   D16        0.00000   0.00000   0.00000   0.00000   0.00000   0.00000
   D17        0.00000   0.00000   0.00000   0.00000   0.00000   0.00000
   D18        3.14159   0.00000   0.00000   0.00000   0.00000   3.14159
   D19        3.14159  -0.00000   0.00000  -0.00000   0.00000   3.14159
   D20       -0.00000  -0.00000   0.00000  -0.00000   0.00000   0.00000
         Item               Value     Threshold  Converged?
 Maximum Force            0.000295     0.000450     YES
 RMS     Force            0.000077     0.000300     YES
 Maximum Displacement     0.001194     0.001800     YES
 RMS     Displacement     0.000320     0.001200     YES
 Predicted change in Energy=-4.118126D-07
 Optimization completed.
    -- Stationary point found.
                           ----------------------------
                           !   Optimized Parameters   !
                           ! (Angstroms and Degrees)  !
 --------------------------                            --------------------------
 ! Name  Definition              Value          Derivative Info.                !
 --------------------------------------------------------------------------------
 ! R1    R(1,2)                  1.3763         -DE/DX =   -0.0001              !
 ! R2    R(1,6)                  1.4194         -DE/DX =   -0.0002              !
 ! R3    R(1,8)                  1.6803         -DE/DX =   -0.0001              !
 ! R4    R(2,3)                  1.3686         -DE/DX =    0.0001              !
 ! R5    R(3,4)                  1.4093         -DE/DX =    0.0                 !
 ! R6    R(3,9)                  1.0969         -DE/DX =   -0.0002              !
 ! R7    R(4,5)                  1.4006         -DE/DX =    0.0                 !
 ! R8    R(4,10)                 1.0989         -DE/DX =    0.0                 !
 ! R9    R(5,6)                  1.4081         -DE/DX =    0.0                 !
 ! R10   R(5,11)                 1.1013         -DE/DX =    0.0                 !
 ! R11   R(6,7)                  1.6898         -DE/DX =   -0.0003              !
 ! A1    A(2,1,6)              114.6367         -DE/DX =    0.0                 !
 ! A2    A(2,1,8)              122.2001         -DE/DX =    0.0                 !
 ! A3    A(6,1,8)              123.1632         -DE/DX =    0.0                 !
 ! A4    A(1,2,3)              129.2927         -DE/DX =   -0.0001              !
 ! A5    A(2,3,4)              114.8671         -DE/DX =    0.0001              !
 ! A6    A(2,3,9)              122.7365         -DE/DX =   -0.0001              !
 ! A7    A(4,3,9)              122.3964         -DE/DX =    0.0                 !
 ! A8    A(3,4,5)              120.1252         -DE/DX =   -0.0001              !
 ! A9    A(3,4,10)             119.9257         -DE/DX =    0.0001              !
 ! A10   A(5,4,10)             119.9492         -DE/DX =    0.0                 !
 ! A11   A(4,5,6)              121.5199         -DE/DX =    0.0                 !
 ! A12   A(4,5,11)             119.3667         -DE/DX =    0.0                 !
 ! A13   A(6,5,11)             119.1135         -DE/DX =    0.0                 !
 ! A14   A(1,6,5)              119.5585         -DE/DX =    0.0001              !
 ! A15   A(1,6,7)              120.8012         -DE/DX =   -0.0001              !
 ! A16   A(5,6,7)              119.6404         -DE/DX =    0.0                 !
 ! D1    D(6,1,2,3)              0.0            -DE/DX =    0.0                 !
 ! D2    D(8,1,2,3)            180.0            -DE/DX =    0.0                 !
 ! D3    D(2,1,6,5)              0.0            -DE/DX =    0.0                 !
 ! D4    D(2,1,6,7)            180.0            -DE/DX =    0.0                 !
 ! D5    D(8,1,6,5)            180.0            -DE/DX =    0.0                 !
 ! D6    D(8,1,6,7)              0.0            -DE/DX =    0.0                 !
 ! D7    D(1,2,3,4)              0.0            -DE/DX =    0.0                 !
 ! D8    D(1,2,3,9)            180.0            -DE/DX =    0.0                 !
 ! D9    D(2,3,4,5)              0.0            -DE/DX =    0.0                 !
 ! D10   D(2,3,4,10)           180.0            -DE/DX =    0.0                 !
 ! D11   D(9,3,4,5)            180.0            -DE/DX =    0.0                 !
 ! D12   D(9,3,4,10)             0.0            -DE/DX =    0.0                 !
 ! D13   D(3,4,5,6)              0.0            -DE/DX =    0.0                 !
 ! D14   D(3,4,5,11)           180.0            -DE/DX =    0.0                 !
 ! D15   D(10,4,5,6)           180.0            -DE/DX =    0.0                 !
 ! D16   D(10,4,5,11)            0.0            -DE/DX =    0.0                 !
 ! D17   D(4,5,6,1)              0.0            -DE/DX =    0.0                 !
 ! D18   D(4,5,6,7)            180.0            -DE/DX =    0.0                 !
 ! D19   D(11,5,6,1)           180.0            -DE/DX =    0.0                 !
 ! D20   D(11,5,6,7)             0.0            -DE/DX =    0.0                 !
 --------------------------------------------------------------------------------
 GradGradGradGradGradGradGradGradGradGradGradGradGradGradGradGradGradGrad

                          Input orientation:                          
 ---------------------------------------------------------------------
 Center     Atomic      Atomic             Coordinates (Angstroms)
 Number     Number       Type             X           Y           Z
 ---------------------------------------------------------------------
      1          6           0       -3.138577    0.156013   -0.000000
      2          6           0       -1.906872    0.770192   -0.000000
      3          6           0       -0.658620    0.209087   -0.000000
      4          6           0       -0.642323   -1.200112   -0.000000
      5          6           0       -1.845552   -1.917032   -0.000000
      6          6           0       -3.092356   -1.262657   -0.000000
      7         17           0       -4.514883   -2.174755    0.000000
      8         17           0       -4.574347    1.028877    0.000000
      9          1           0        0.260694    0.807443   -0.000000
     10          1           0        0.316356   -1.737285   -0.000000
     11          1           0       -1.818240   -3.018002   -0.000000
 ---------------------------------------------------------------------
                    Distance matrix (angstroms):
                    1          2          3          4          5
     1  C    0.000000
     2  C    1.376341   0.000000
     3  C    2.480525   1.368565   0.000000
     4  C    2.840838   2.341193   1.409294   0.000000
     5  C    2.443242   2.687924   2.434993   1.400619   0.000000
     6  C    1.419423   2.353263   2.844134   2.450831   1.408093
     7  Cl   2.706787   3.933756   4.533593   3.993326   2.681744
     8  Cl   1.680275   2.679989   4.000621   4.519868   4.015557
     9  H    3.461127   2.167885   1.096890   2.201299   3.443695
    10  H    3.939688   3.351147   2.176912   1.098918   2.169367
    11  H    3.437683   3.789231   3.429114   2.165064   1.101309
                    6          7          8          9         10
     6  C    0.000000
     7  Cl   1.689824   0.000000
     8  Cl   2.728997   3.204184   0.000000
     9  H    3.940591   5.630243   4.840108   0.000000
    10  H    3.441597   4.851005   5.618774   2.545337   0.000000
    11  H    2.169011   2.825412   4.896259   4.353848   2.489324
                   11
    11  H    0.000000
 Stoichiometry    C6H3Cl2(2)
 Framework group  CS[SG(C6H3Cl2)]
 Deg. of freedom    19
 Full point group                 CS      NOp   2
 Largest Abelian subgroup         CS      NOp   2
 Largest concise Abelian subgroup C1      NOp   1
                         Standard orientation:                         
 ---------------------------------------------------------------------
 Center     Atomic      Atomic             Coordinates (Angstroms)
 Number     Number       Type             X           Y           Z
 ---------------------------------------------------------------------
      1          6           0       -0.111685   -0.739244   -0.000000
      2          6           0        1.090345   -1.409647    0.000000
      3          6           0        2.363176   -0.906784    0.000000
      4          6           0        2.444531    0.500159    0.000000
      5          6           0        1.275692    1.271878    0.000000
      6          6           0        0.000000    0.675778    0.000000
      7         17           0       -1.378890    1.652594   -0.000000
      8         17           0       -1.586230   -1.544875   -0.000000
      9          1           0        3.253877   -1.546955    0.000000
     10          1           0        3.426993    0.992489    0.000000
     11          1           0        1.353817    2.370412    0.000000
 ---------------------------------------------------------------------
 Rotational constants (GHZ):           1.9730089           1.4410149           0.8327813

 **********************************************************************

            Population analysis using the SCF Density.

 **********************************************************************

 Orbital symmetries:
 Alpha Orbitals:
       Occupied  (A') (A') (A') (A') (A') (A') (A') (A') (A') (A')
                 (A') (A") (A') (A') (A") (A") (A') (A') (A') (A")
                 (A")
       Virtual   (A") (A") (A') (A') (A") (A') (A') (A') (A') (A')
                 (A') (A') (A') (A')
 Beta  Orbitals:
       Occupied  (A') (A') (A') (A') (A') (A') (A') (A') (A') (A')
                 (A') (A") (A') (A') (A") (A") (A') (A') (A") (A")
       Virtual   (A') (A") (A") (A') (A') (A") (A') (A') (A') (A')
                 (A') (A') (A') (A') (A')
 The electronic state is 2-A'.
 Alpha  occ. eigenvalues --   -1.47130  -1.39477  -1.38842  -1.16596  -1.15279
 Alpha  occ. eigenvalues --   -0.88445  -0.86190  -0.68172  -0.62962  -0.61955
 Alpha  occ. eigenvalues --   -0.57326  -0.56073  -0.51688  -0.49370  -0.48453
 Alpha  occ. eigenvalues --   -0.46271  -0.45346  -0.44338  -0.39630  -0.38409
 Alpha  occ. eigenvalues --   -0.36352
 Alpha virt. eigenvalues --   -0.00474   0.00333   0.03396   0.04757   0.08001
 Alpha virt. eigenvalues --    0.12331   0.12753   0.13611   0.14221   0.15247
 Alpha virt. eigenvalues --    0.16602   0.17704   0.18090   0.18855
  Beta  occ. eigenvalues --   -1.46464  -1.39448  -1.38542  -1.16445  -1.13904
  Beta  occ. eigenvalues --   -0.88059  -0.83928  -0.67976  -0.61978  -0.60984
  Beta  occ. eigenvalues --   -0.57137  -0.55826  -0.50629  -0.49000  -0.48304
  Beta  occ. eigenvalues --   -0.46102  -0.44685  -0.44107  -0.37656  -0.36485
  Beta virt. eigenvalues --   -0.00680  -0.00551   0.01799   0.03943   0.05034
  Beta virt. eigenvalues --    0.08752   0.12716   0.13080   0.13646   0.14779
  Beta virt. eigenvalues --    0.15614   0.16893   0.17810   0.19033   0.19849
          Condensed to atoms (all electrons):
               1          2          3          4          5          6
     1  C    4.059170   0.000000   0.000000   0.000000   0.000000   0.000000
     2  C    0.000000   4.051014   0.000000   0.000000   0.000000   0.000000
     3  C    0.000000   0.000000   4.113153   0.000000   0.000000   0.000000
     4  C    0.000000   0.000000   0.000000   4.116455   0.000000   0.000000
     5  C    0.000000   0.000000   0.000000   0.000000   4.131118   0.000000
     6  C    0.000000   0.000000   0.000000   0.000000   0.000000   4.062339
     7  Cl   0.000000   0.000000   0.000000   0.000000   0.000000   0.000000
     8  Cl   0.000000   0.000000   0.000000   0.000000   0.000000   0.000000
     9  H    0.000000   0.000000   0.000000   0.000000   0.000000   0.000000
    10  H    0.000000   0.000000   0.000000   0.000000   0.000000   0.000000
    11  H    0.000000   0.000000   0.000000   0.000000   0.000000   0.000000
               7          8          9         10         11
     1  C    0.000000   0.000000   0.000000   0.000000   0.000000
     2  C    0.000000   0.000000   0.000000   0.000000   0.000000
     3  C    0.000000   0.000000   0.000000   0.000000   0.000000
     4  C    0.000000   0.000000   0.000000   0.000000   0.000000
     5  C    0.000000   0.000000   0.000000   0.000000   0.000000
     6  C    0.000000   0.000000   0.000000   0.000000   0.000000
     7  Cl   6.979265   0.000000   0.000000   0.000000   0.000000
     8  Cl   0.000000   6.952480   0.000000   0.000000   0.000000
     9  H    0.000000   0.000000   0.835531   0.000000   0.000000
    10  H    0.000000   0.000000   0.000000   0.852876   0.000000
    11  H    0.000000   0.000000   0.000000   0.000000   0.846599
          Atomic-Atomic Spin Densities.
               1          2          3          4          5          6
     1  C   -0.484811   0.000000   0.000000   0.000000   0.000000   0.000000
     2  C    0.000000   1.388826   0.000000   0.000000   0.000000   0.000000
     3  C    0.000000   0.000000  -0.487035   0.000000   0.000000   0.000000
     4  C    0.000000   0.000000   0.000000   0.498568   0.000000   0.000000
     5  C    0.000000   0.000000   0.000000   0.000000  -0.461177   0.000000
     6  C    0.000000   0.000000   0.000000   0.000000   0.000000   0.490087
     7  Cl   0.000000   0.000000   0.000000   0.000000   0.000000   0.000000
     8  Cl   0.000000   0.000000   0.000000   0.000000   0.000000   0.000000
     9  H    0.000000   0.000000   0.000000   0.000000   0.000000   0.000000
    10  H    0.000000   0.000000   0.000000   0.000000   0.000000   0.000000
    11  H    0.000000   0.000000   0.000000   0.000000   0.000000   0.000000
               7          8          9         10         11
     1  C    0.000000   0.000000   0.000000   0.000000   0.000000
     2  C    0.000000   0.000000   0.000000   0.000000   0.000000
     3  C    0.000000   0.000000   0.000000   0.000000   0.000000
     4  C    0.000000   0.000000   0.000000   0.000000   0.000000
     5  C    0.000000   0.000000   0.000000   0.000000   0.000000
     6  C    0.000000   0.000000   0.000000   0.000000   0.000000
     7  Cl   0.015161   0.000000   0.000000   0.000000   0.000000
     8  Cl   0.000000   0.000044   0.000000   0.000000   0.000000
     9  H    0.000000   0.000000   0.032745   0.000000   0.000000
    10  H    0.000000   0.000000   0.000000  -0.019508   0.000000
    11  H    0.000000   0.000000   0.000000   0.000000   0.027099
 Mulliken charges and spin densities:
               1          2
     1  C   -0.059170  -0.484811
     2  C   -0.051014   1.388826
     3  C   -0.113153  -0.487035
     4  C   -0.116455   0.498568
     5  C   -0.131118  -0.461177
     6  C   -0.062339   0.490087
     7  Cl   0.020735   0.015161
     8  Cl   0.047520   0.000044
     9  H    0.164469   0.032745
    10  H    0.147124  -0.019508
    11  H    0.153401   0.027099
 Sum of Mulliken charges =   0.00000   1.00000
 Mulliken charges and spin densities with hydrogens summed into heavy atoms:
               1          2
     1  C   -0.059170  -0.484811
     2  C   -0.051014   1.388826
     3  C    0.051316  -0.454290
     4  C    0.030669   0.479060
     5  C    0.022283  -0.434078
     6  C   -0.062339   0.490087
     7  Cl   0.020735   0.015161
     8  Cl   0.047520   0.000044
 Charge=              0.0000 electrons
 Dipole moment (field-independent basis, Debye):
    X=              1.7595    Y=              0.8807    Z=              0.0000  Tot=              1.9676
 N-N= 1.980475012269D+02 E-N=-2.751953709029D+02  KE=-9.044490048715D+01
 Symmetry A'   KE=-7.006288952826D+01
 Symmetry A"   KE=-2.038201095889D+01
 Symmetry A'   SP= 1.000000000000D+00
 Symmetry A"   SP=-3.275157922644D-15
 1\1\GINC-SH02-01N03\FOpt\UAM1\ZDO\C6H3Cl2(2)\JLAPIER\10-Dec-2025\0\\# 
 opt am1 SCF=XQC\\Neutral Radical (removed 3) 12_\\0,2\C,-3.1385772622,
 0.1560130065,0.\C,-1.9068715895,0.7701922663,0.\C,-0.6586201864,0.2090
 872262,0.\C,-0.6423228283,-1.200112146,0.\C,-1.8455520183,-1.917031948
 6,0.\C,-3.0923560446,-1.2626568323,0.\Cl,-4.5148831912,-2.1747548406,0
 .\Cl,-4.5743465419,1.028877231,0.\H,0.2606935663,0.8074432293,0.\H,0.3
 163557743,-1.7372853617,0.\H,-1.8182396781,-3.01800183,0.\\Version=ES6
 4L-G16RevB.01\State=2-A'\HF=0.0975555\S2=1.252073\S2-1=0.\S2A=0.968658
 \RMSD=8.694e-09\RMSF=1.023e-04\Dipole=0.6755152,-0.3781005,0.\PG=CS [S
 G(C6H3Cl2)]\\@


 A BIRD IN THE HAND IS SAFER THAN ONE OVERHEAD.

                       -- NEWTON'S SEVENTH LAW
 Job cpu time:       0 days  0 hours  0 minutes  9.5 seconds.
 Elapsed time:       0 days  0 hours  0 minutes 17.9 seconds.
 File lengths (MBytes):  RWF=     10 Int=      0 D2E=      0 Chk=      2 Scr=      1
 Normal termination of Gaussian 16 at Wed Dec 10 10:38:13 2025.
