 Entering Gaussian System, Link 0=g16
 Initial command:
 /share/software/user/restricted/gaussian/g16.B01/l1.exe "/home/users/jlapier/Chloroaromatics/Gau-20072.inp" -scrdir="/home/users/jlapier/Chloroaromatics/"
 Entering Link 1 = /share/software/user/restricted/gaussian/g16.B01/l1.exe PID=     20073.
  
 Copyright (c) 1988-2017, Gaussian, Inc.  All Rights Reserved.
  
 This is part of the Gaussian(R) 16 program.  It is based on
 the Gaussian(R) 09 system (copyright 2009, Gaussian, Inc.),
 the Gaussian(R) 03 system (copyright 2003, Gaussian, Inc.),
 the Gaussian(R) 98 system (copyright 1998, Gaussian, Inc.),
 the Gaussian(R) 94 system (copyright 1995, Gaussian, Inc.),
 the Gaussian 92(TM) system (copyright 1992, Gaussian, Inc.),
 the Gaussian 90(TM) system (copyright 1990, Gaussian, Inc.),
 the Gaussian 88(TM) system (copyright 1988, Gaussian, Inc.),
 the Gaussian 86(TM) system (copyright 1986, Carnegie Mellon
 University), and the Gaussian 82(TM) system (copyright 1983,
 Carnegie Mellon University). Gaussian is a federally registered
 trademark of Gaussian, Inc.
  
 This software contains proprietary and confidential information,
 including trade secrets, belonging to Gaussian, Inc.
  
 This software is provided under written license and may be
 used, copied, transmitted, or stored only in accord with that
 written license.
  
 The following legend is applicable only to US Government
 contracts under FAR:
  
                    RESTRICTED RIGHTS LEGEND
  
 Use, reproduction and disclosure by the US Government is
 subject to restrictions as set forth in subparagraphs (a)
 and (c) of the Commercial Computer Software - Restricted
 Rights clause in FAR 52.227-19.
  
 Gaussian, Inc.
 340 Quinnipiac St., Bldg. 40, Wallingford CT 06492
  
  
 ---------------------------------------------------------------
 Warning -- This program may not be used in any manner that
 competes with the business of Gaussian, Inc. or will provide
 assistance to any competitor of Gaussian, Inc.  The licensee
 of this program is prohibited from giving any competitor of
 Gaussian, Inc. access to this program.  By using this program,
 the user acknowledges that Gaussian, Inc. is engaged in the
 business of creating and licensing software in the field of
 computational chemistry and represents and warrants to the
 licensee that it is not a competitor of Gaussian, Inc. and that
 it will not use this program in any manner prohibited above.
 ---------------------------------------------------------------
  

 Cite this work as:
 Gaussian 16, Revision B.01,
 M. J. Frisch, G. W. Trucks, H. B. Schlegel, G. E. Scuseria, 
 M. A. Robb, J. R. Cheeseman, G. Scalmani, V. Barone, 
 G. A. Petersson, H. Nakatsuji, X. Li, M. Caricato, A. V. Marenich, 
 J. Bloino, B. G. Janesko, R. Gomperts, B. Mennucci, H. P. Hratchian, 
 J. V. Ortiz, A. F. Izmaylov, J. L. Sonnenberg, D. Williams-Young, 
 F. Ding, F. Lipparini, F. Egidi, J. Goings, B. Peng, A. Petrone, 
 T. Henderson, D. Ranasinghe, V. G. Zakrzewski, J. Gao, N. Rega, 
 G. Zheng, W. Liang, M. Hada, M. Ehara, K. Toyota, R. Fukuda, 
 J. Hasegawa, M. Ishida, T. Nakajima, Y. Honda, O. Kitao, H. Nakai, 
 T. Vreven, K. Throssell, J. A. Montgomery, Jr., J. E. Peralta, 
 F. Ogliaro, M. J. Bearpark, J. J. Heyd, E. N. Brothers, K. N. Kudin, 
 V. N. Staroverov, T. A. Keith, R. Kobayashi, J. Normand, 
 K. Raghavachari, A. P. Rendell, J. C. Burant, S. S. Iyengar, 
 J. Tomasi, M. Cossi, J. M. Millam, M. Klene, C. Adamo, R. Cammi, 
 J. W. Ochterski, R. L. Martin, K. Morokuma, O. Farkas, 
 J. B. Foresman, and D. J. Fox, Gaussian, Inc., Wallingford CT, 2016.
 
 ******************************************
 Gaussian 16:  ES64L-G16RevB.01 20-Dec-2017
                10-Dec-2025 
 ******************************************
 %mem=2GB
 %nprocshare=1
 Will use up to    1 processors via shared memory.
 %chk=geometry_chks/12345-12_45-ClBzNeutralRadical.chk
 -----------------
 # opt am1 SCF=XQC
 -----------------
 1/18=20,19=15,26=1,38=1/1,3;
 2/9=110,12=2,17=6,18=5,40=1/2;
 3/5=2,25=1,41=700000,71=1/1,2,3;
 4/35=1/1;
 5/5=2,8=3,13=1,35=1,38=5/2,8;
 6/7=2,8=2,9=2,10=2,28=1/1;
 7//1,2,3,16;
 1/18=20,19=15,26=1/3(2);
 2/9=110/2;
 99//99;
 2/9=110/2;
 3/5=2,25=1,41=700000,71=1,135=20/1,2,3;
 4/5=5,16=3,35=1/1;
 5/5=2,8=3,13=1,35=1,38=5/2,8;
 7//1,2,3,16;
 1/18=20,19=15,26=1/3(-5);
 2/9=110/2;
 6/7=2,8=2,9=2,10=2,19=2,28=1/1;
 99/9=1/99;
 ---------------------------------
 Neutral Radical (removed 3) 12_45
 ---------------------------------
 Symbolic Z-matrix:
 Charge =  0 Multiplicity = 2
 C                    -3.20928   0.19943   0. 
 C                    -2.0115    0.93555   0. 
 C                    -0.77511   0.2663    0. 
 C                    -0.7365   -1.13907   0. 
 C                    -1.93429  -1.87519   0. 
 C                    -3.17067  -1.20594   0. 
 Cl                   -4.67483  -2.13035   0. 
 Cl                   -4.76193   1.03987   0. 
 Cl                    0.72905   1.19071   0. 
 Cl                    0.81614  -1.97951   0. 
 H                    -1.8858   -3.64003   0. 
 
 Add virtual bond connecting atoms H11        and C5         Dist= 3.34D+00.

 GradGradGradGradGradGradGradGradGradGradGradGradGradGradGradGradGradGrad
 Berny optimization.
 Initialization pass.
                           ----------------------------
                           !    Initial Parameters    !
                           ! (Angstroms and Degrees)  !
 --------------------------                            --------------------------
 ! Name  Definition              Value          Derivative Info.                !
 --------------------------------------------------------------------------------
 ! R1    R(1,2)                  1.4059         estimate D2E/DX2                !
 ! R2    R(1,6)                  1.4059         estimate D2E/DX2                !
 ! R3    R(1,8)                  1.7655         estimate D2E/DX2                !
 ! R4    R(2,3)                  1.4059         estimate D2E/DX2                !
 ! R5    R(3,4)                  1.4059         estimate D2E/DX2                !
 ! R6    R(3,9)                  1.7655         estimate D2E/DX2                !
 ! R7    R(4,5)                  1.4059         estimate D2E/DX2                !
 ! R8    R(4,10)                 1.7655         estimate D2E/DX2                !
 ! R9    R(5,6)                  1.4059         estimate D2E/DX2                !
 ! R10   R(5,11)                 1.7655         estimate D2E/DX2                !
 ! R11   R(6,7)                  1.7655         estimate D2E/DX2                !
 ! A1    A(2,1,6)              119.9999         estimate D2E/DX2                !
 ! A2    A(2,1,8)              119.9999         estimate D2E/DX2                !
 ! A3    A(6,1,8)              120.0001         estimate D2E/DX2                !
 ! A4    A(1,2,3)              120.0            estimate D2E/DX2                !
 ! A5    A(2,3,4)              120.0001         estimate D2E/DX2                !
 ! A6    A(2,3,9)              120.0            estimate D2E/DX2                !
 ! A7    A(4,3,9)              119.9999         estimate D2E/DX2                !
 ! A8    A(3,4,5)              119.9997         estimate D2E/DX2                !
 ! A9    A(3,4,10)             120.0003         estimate D2E/DX2                !
 ! A10   A(5,4,10)             120.0            estimate D2E/DX2                !
 ! A11   A(4,5,6)              120.0            estimate D2E/DX2                !
 ! A12   A(4,5,11)             119.9996         estimate D2E/DX2                !
 ! A13   A(6,5,11)             120.0004         estimate D2E/DX2                !
 ! A14   A(1,6,5)              120.0003         estimate D2E/DX2                !
 ! A15   A(1,6,7)              119.9999         estimate D2E/DX2                !
 ! A16   A(5,6,7)              119.9998         estimate D2E/DX2                !
 ! D1    D(6,1,2,3)              0.0            estimate D2E/DX2                !
 ! D2    D(8,1,2,3)            180.0            estimate D2E/DX2                !
 ! D3    D(2,1,6,5)              0.0            estimate D2E/DX2                !
 ! D4    D(2,1,6,7)            180.0            estimate D2E/DX2                !
 ! D5    D(8,1,6,5)            180.0            estimate D2E/DX2                !
 ! D6    D(8,1,6,7)              0.0            estimate D2E/DX2                !
 ! D7    D(1,2,3,4)              0.0            estimate D2E/DX2                !
 ! D8    D(1,2,3,9)            180.0            estimate D2E/DX2                !
 ! D9    D(2,3,4,5)              0.0            estimate D2E/DX2                !
 ! D10   D(2,3,4,10)           180.0            estimate D2E/DX2                !
 ! D11   D(9,3,4,5)            180.0            estimate D2E/DX2                !
 ! D12   D(9,3,4,10)             0.0            estimate D2E/DX2                !
 ! D13   D(3,4,5,6)              0.0            estimate D2E/DX2                !
 ! D14   D(3,4,5,11)           180.0            estimate D2E/DX2                !
 ! D15   D(10,4,5,6)           180.0            estimate D2E/DX2                !
 ! D16   D(10,4,5,11)            0.0            estimate D2E/DX2                !
 ! D17   D(4,5,6,1)              0.0            estimate D2E/DX2                !
 ! D18   D(4,5,6,7)            180.0            estimate D2E/DX2                !
 ! D19   D(11,5,6,1)           180.0            estimate D2E/DX2                !
 ! D20   D(11,5,6,7)             0.0            estimate D2E/DX2                !
 --------------------------------------------------------------------------------
 Trust Radius=3.00D-01 FncErr=1.00D-07 GrdErr=1.00D-07 EigMax=2.50D+02 EigMin=1.00D-04
 Number of steps in this run=     57 maximum allowed number of steps=    100.
 GradGradGradGradGradGradGradGradGradGradGradGradGradGradGradGradGradGrad

                          Input orientation:                          
 ---------------------------------------------------------------------
 Center     Atomic      Atomic             Coordinates (Angstroms)
 Number     Number       Type             X           Y           Z
 ---------------------------------------------------------------------
      1          6           0       -3.209280    0.199430    0.000000
      2          6           0       -2.011500    0.935550    0.000000
      3          6           0       -0.775110    0.266300    0.000000
      4          6           0       -0.736500   -1.139070    0.000000
      5          6           0       -1.934290   -1.875190    0.000000
      6          6           0       -3.170670   -1.205940    0.000000
      7         17           0       -4.674830   -2.130350    0.000000
      8         17           0       -4.761930    1.039870    0.000000
      9         17           0        0.729050    1.190710    0.000000
     10         17           0        0.816140   -1.979510    0.000000
     11          1           0       -1.885800   -3.640030    0.000000
 ---------------------------------------------------------------------
                    Distance matrix (angstroms):
                    1          2          3          4          5
     1  C    0.000000
     2  C    1.405898   0.000000
     3  C    2.435088   1.405900   0.000000
     4  C    2.811801   2.435092   1.405900   0.000000
     5  C    2.435087   2.811800   2.435093   1.405907   0.000000
     6  C    1.405900   2.435088   2.811796   2.435088   1.405892
     7  Cl   2.752401   4.061166   4.577308   4.061167   2.752393
     8  Cl   1.765520   2.752408   4.061175   4.577321   4.061173
     9  Cl   4.061167   2.752403   1.765512   2.752401   4.061173
    10  Cl   4.577312   4.061173   2.752406   1.765511   2.752408
    11  H    4.061164   4.577306   4.061163   2.752397   1.765506
                    6          7          8          9         10
     6  C    0.000000
     7  Cl   1.765512   0.000000
     8  Cl   2.752412   3.171416   0.000000
     9  Cl   4.577308   6.342819   5.493051   0.000000
    10  Cl   4.061165   5.493041   6.342832   3.171416   0.000000
    11  H    2.752396   3.171407   5.493049   5.493040   3.171404
                   11
    11  H    0.000000
 Stoichiometry    C6HCl4(2)
 Framework group  CS[SG(C6HCl4)]
 Deg. of freedom    19
 Full point group                 CS      NOp   2
 Largest Abelian subgroup         CS      NOp   2
 Largest concise Abelian subgroup C1      NOp   1
                         Standard orientation:                         
 ---------------------------------------------------------------------
 Center     Atomic      Atomic             Coordinates (Angstroms)
 Number     Number       Type             X           Y           Z
 ---------------------------------------------------------------------
      1          6           0       -0.026158    1.421000    0.000000
      2          6           0       -1.243702    0.718052    0.000000
      3          6           0       -1.243702   -0.687848   -0.000000
      4          6           0       -0.026158   -1.390800   -0.000000
      5          6           0        1.191390   -0.687844   -0.000000
      6          6           0        1.191386    0.718048    0.000000
      7         17           0        2.720363    1.600804    0.000000
      8         17           0       -0.026159    3.186521    0.000000
      9         17           0       -2.772680   -1.570604   -0.000000
     10         17           0       -0.026153   -3.156312   -0.000000
     11          1           0        2.720360   -1.570603   -0.000000
 ---------------------------------------------------------------------
 Rotational constants (GHZ):           1.1672728           0.4487110           0.3241172
 Standard basis: VSTO-6G (5D, 7F)
 There are    31 symmetry adapted cartesian basis functions of A'  symmetry.
 There are    10 symmetry adapted cartesian basis functions of A"  symmetry.
 There are    31 symmetry adapted basis functions of A'  symmetry.
 There are    10 symmetry adapted basis functions of A"  symmetry.
    41 basis functions,   246 primitive gaussians,    41 cartesian basis functions
    27 alpha electrons       26 beta electrons
       nuclear repulsion energy       290.9202823930 Hartrees.
 Integral buffers will be    131072 words long.
 Regular integral format.
 Two-electron integral symmetry is turned off.
 Do NDO integrals.
 One-electron integrals computed using PRISM.
 NBasis=    41 RedAO= T EigKep=  1.00D+00  NBF=    31    10
 NBsUse=    41 1.00D-06 EigRej= -1.00D+00 NBFU=    31    10
 Simple Huckel Guess.
 Initial guess orbital symmetries:
 Alpha Orbitals:
       Occupied  (A') (A') (A') (A') (A') (A') (A') (A') (A') (A')
                 (A") (A') (A') (A") (A') (A') (A") (A') (A") (A')
                 (A") (A') (A') (A') (A") (A") (A')
       Virtual   (A") (A') (A") (A") (A') (A') (A') (A') (A') (A')
                 (A') (A') (A') (A')
 Beta  Orbitals:
       Occupied  (A') (A') (A') (A') (A') (A') (A') (A') (A') (A')
                 (A") (A') (A') (A") (A') (A') (A") (A') (A") (A')
                 (A") (A') (A') (A') (A") (A")
       Virtual   (A') (A") (A') (A") (A") (A') (A') (A') (A') (A')
                 (A') (A') (A') (A') (A')
 The electronic state of the initial guess is 2-A'.
 Initial guess <Sx>= 0.0000 <Sy>= 0.0000 <Sz>= 0.5000 <S**2>= 0.7500 S= 0.5000
 Keep J ints in memory in canonical form, NReq=864464.
 Overlap will be assumed to be unity.
 Requested convergence on RMS density matrix=1.00D-08 within  32 cycles.
 Requested convergence on MAX density matrix=1.00D-06.
 Requested convergence on             energy=1.00D-06.
 No special actions if energy rises.
 Fock symm off for IB=2 I1=    1 I=   32 J=   13 Cut=1.00D-07 Err=1.11D-03
 Fock matrix is not symmetric: symmetry in diagonalization turned off.
 Rare condition: small coef for last iteration:  0.000D+00
 Rare condition: small coef for last iteration:  0.000D+00
 Rare condition: small coef for last iteration:  0.000D+00
 Rare condition: small coef for last iteration:  0.000D+00
 Rare condition: small coef for last iteration:  0.000D+00
 Rare condition: small coef for last iteration:  0.000D+00
 Rare condition: small coef for last iteration:  0.000D+00
 Rare condition: small coef for last iteration:  0.000D+00
 Rare condition: small coef for last iteration:  0.000D+00
 Rare condition: small coef for last iteration:  0.000D+00
 Rare condition: small coef for last iteration:  0.000D+00
 Rare condition: small coef for last iteration:  0.000D+00
 Rare condition: small coef for last iteration:  0.000D+00
 >>>>>>>>>> Convergence criterion not met.
 SCF Done:  E(UAM1) =  0.231033870751     A.U. after   33 cycles
            NFock= 32  Conv=0.92D-03     -V/T= 1.0017
 <Sx>= 0.0000 <Sy>= 0.0000 <Sz>= 0.5000 <S**2>= 1.1508 S= 0.6835
 <L.S>=  0.00000000000    
 Annihilation of the first spin contaminant:
 S**2 before annihilation     1.1508,   after     0.8987
 Keep J ints in memory in canonical form, NReq=864864.
 LinEq1:  Iter=  0 NonCon=     1 RMS=3.77D-04 Max=4.78D-03 NDo=     1
 AX will form     1 AO Fock derivatives at one time.
 LinEq1:  Iter=  1 NonCon=     1 RMS=5.56D-05 Max=5.63D-04 NDo=     1
 LinEq1:  Iter=  2 NonCon=     1 RMS=1.50D-05 Max=1.19D-04 NDo=     1
 LinEq1:  Iter=  3 NonCon=     1 RMS=3.45D-06 Max=3.66D-05 NDo=     1
 LinEq1:  Iter=  4 NonCon=     1 RMS=7.85D-07 Max=1.02D-05 NDo=     1
 LinEq1:  Iter=  5 NonCon=     1 RMS=2.28D-07 Max=2.59D-06 NDo=     1
 LinEq1:  Iter=  6 NonCon=     1 RMS=5.12D-08 Max=3.72D-07 NDo=     1
 LinEq1:  Iter=  7 NonCon=     1 RMS=8.90D-09 Max=6.59D-08 NDo=     1
 LinEq1:  Iter=  8 NonCon=     0 RMS=1.47D-09 Max=1.01D-08 NDo=     1
 Linear equations converged to 2.771D-09 2.771D-08 after     8 iterations.
 Gradient too large for Newton-Raphson -- use scaled steepest descent instead.
     Minimum is close to point  5 DX=  1.69D-03 DF= -3.10D-10 DXR=  7.03D-04 DFR=  4.93D-07 which will be used.
 LinEq1:  Iter=  0 NonCon=     1 RMS=6.17D-04 Max=8.77D-03 NDo=     1
 LinEq1:  Iter=  1 NonCon=     1 RMS=2.91D-04 Max=3.74D-03 NDo=     1
 LinEq1:  Iter=  2 NonCon=     1 RMS=5.03D-05 Max=6.79D-04 NDo=     1
 LinEq1:  Iter=  3 NonCon=     1 RMS=1.11D-05 Max=1.58D-04 NDo=     1
 LinEq1:  Iter=  4 NonCon=     1 RMS=2.43D-06 Max=2.45D-05 NDo=     1
 LinEq1:  Iter=  5 NonCon=     1 RMS=6.48D-07 Max=1.02D-05 NDo=     1
 LinEq1:  Iter=  6 NonCon=     1 RMS=1.62D-07 Max=1.86D-06 NDo=     1
 LinEq1:  Iter=  7 NonCon=     1 RMS=2.02D-08 Max=1.60D-07 NDo=     1
 LinEq1:  Iter=  8 NonCon=     0 RMS=2.73D-09 Max=2.00D-08 NDo=     1
 Linear equations converged to 2.771D-09 2.771D-08 after     8 iterations.
     Minimum is close to point  3 DX=  2.27D-03 DF= -1.53D-06 DXR=  4.09D-02 DFR=  1.67D-03 which will be used.
 LinEq1:  Iter=  0 NonCon=     1 RMS=5.56D-04 Max=7.14D-03 NDo=     1
 LinEq1:  Iter=  1 NonCon=     1 RMS=2.59D-04 Max=3.33D-03 NDo=     1
 LinEq1:  Iter=  2 NonCon=     1 RMS=4.41D-05 Max=5.96D-04 NDo=     1
 LinEq1:  Iter=  3 NonCon=     1 RMS=9.70D-06 Max=1.39D-04 NDo=     1
 LinEq1:  Iter=  4 NonCon=     1 RMS=2.06D-06 Max=2.13D-05 NDo=     1
 LinEq1:  Iter=  5 NonCon=     1 RMS=5.45D-07 Max=8.76D-06 NDo=     1
 LinEq1:  Iter=  6 NonCon=     1 RMS=1.36D-07 Max=1.62D-06 NDo=     1
 LinEq1:  Iter=  7 NonCon=     1 RMS=1.70D-08 Max=1.32D-07 NDo=     1
 LinEq1:  Iter=  8 NonCon=     0 RMS=2.34D-09 Max=1.74D-08 NDo=     1
 Linear equations converged to 2.771D-09 2.771D-08 after     8 iterations.
 LinEq1:  Iter=  0 NonCon=     1 RMS=2.85D-04 Max=2.27D-03 NDo=     1
 LinEq1:  Iter=  1 NonCon=     1 RMS=9.92D-05 Max=1.19D-03 NDo=     1
 LinEq1:  Iter=  2 NonCon=     1 RMS=2.12D-05 Max=2.55D-04 NDo=     1
 LinEq1:  Iter=  3 NonCon=     1 RMS=4.50D-06 Max=5.91D-05 NDo=     1
 LinEq1:  Iter=  4 NonCon=     1 RMS=9.05D-07 Max=9.71D-06 NDo=     1
 LinEq1:  Iter=  5 NonCon=     1 RMS=2.23D-07 Max=3.60D-06 NDo=     1
 LinEq1:  Iter=  6 NonCon=     1 RMS=6.33D-08 Max=8.33D-07 NDo=     1
 LinEq1:  Iter=  7 NonCon=     1 RMS=8.35D-09 Max=6.36D-08 NDo=     1
 LinEq1:  Iter=  8 NonCon=     0 RMS=1.27D-09 Max=8.83D-09 NDo=     1
 Linear equations converged to 2.771D-09 2.771D-08 after     8 iterations.
     Accept linear search using points  1 and  2.
     Minimum is close to point  2 DX= -5.17D-02 DF= -2.64D-07 DXR=  5.46D-02 DFR=  3.10D-03 which will be used.
 LinEq1:  Iter=  0 NonCon=     1 RMS=1.17D-05 Max=1.43D-04 NDo=     1
 LinEq1:  Iter=  1 NonCon=     1 RMS=1.47D-06 Max=1.51D-05 NDo=     1
 LinEq1:  Iter=  2 NonCon=     1 RMS=2.43D-07 Max=2.23D-06 NDo=     1
 LinEq1:  Iter=  3 NonCon=     1 RMS=7.01D-08 Max=9.12D-07 NDo=     1
 LinEq1:  Iter=  4 NonCon=     1 RMS=1.67D-08 Max=1.75D-07 NDo=     1
 LinEq1:  Iter=  5 NonCon=     1 RMS=3.35D-09 Max=3.63D-08 NDo=     1
 LinEq1:  Iter=  6 NonCon=     0 RMS=6.67D-10 Max=5.26D-09 NDo=     1
 Linear equations converged to 1.565D-09 1.565D-08 after     6 iterations.
     Minimum is close to point  2 DX=  1.20D-02 DF= -6.66D-11 DXR=  1.18D-02 DFR=  1.40D-04 which will be used.
 LinEq1:  Iter=  0 NonCon=     1 RMS=2.78D-07 Max=2.09D-06 NDo=     1
 LinEq1:  Iter=  1 NonCon=     1 RMS=8.31D-08 Max=6.77D-07 NDo=     1
 LinEq1:  Iter=  2 NonCon=     1 RMS=1.83D-08 Max=1.97D-07 NDo=     1
 LinEq1:  Iter=  3 NonCon=     1 RMS=4.81D-09 Max=4.46D-08 NDo=     1
 LinEq1:  Iter=  4 NonCon=     1 RMS=1.07D-09 Max=1.06D-08 NDo=     1
 LinEq1:  Iter=  5 NonCon=     1 RMS=1.63D-10 Max=1.40D-09 NDo=     1
 LinEq1:  Iter=  6 NonCon=     0 RMS=2.01D-11 Max=1.65D-10 NDo=     1
 Linear equations converged to 6.729D-11 6.729D-10 after     6 iterations.
 SCF Done:  E(UAM1) =  0.218724211238     a.u. after    8 cycles
            Convg  =    0.3868D-07                    64 Fock formations.
              S**2 =  1.6010                  -V/T =  1.0016
 <Sx>= 0.0000 <Sy>= 0.0000 <Sz>= 0.5000 <S**2>= 1.6010 S= 0.8605
 <L.S>=  0.00000000000    
 Annihilation of the first spin contaminant:
 S**2 before annihilation     1.6010,   after     1.6092

 **********************************************************************

            Population analysis using the SCF Density.

 **********************************************************************

 Orbital symmetries:
 Alpha Orbitals:
       Occupied  (A') (A') (A') (A') (A') (A') (A') (A') (A') (A')
                 (A') (A') (A') (A") (A") (A') (A") (A') (A") (A')
                 (A') (A') (A') (A") (A') (A") (A")
       Virtual   (A') (A") (A") (A') (A') (A') (A') (A") (A') (A')
                 (A') (A') (A') (A')
 Beta  Orbitals:
       Occupied  (A') (A') (A') (A') (A') (A') (A') (A') (A') (A')
                 (A') (A') (A') (A") (A") (A') (A") (A') (A") (A')
                 (A') (A') (A') (A") (A") (A")
       Virtual   (A') (A") (A') (A") (A') (A') (A') (A') (A") (A')
                 (A') (A') (A') (A') (A')
 The electronic state is 2-A'.
 Alpha  occ. eigenvalues --   -1.46423  -1.40151  -1.38688  -1.38509  -1.36511
 Alpha  occ. eigenvalues --   -1.15612  -1.13970  -0.88070  -0.86235  -0.66788
 Alpha  occ. eigenvalues --   -0.64786  -0.63197  -0.59484  -0.57535  -0.51711
 Alpha  occ. eigenvalues --   -0.51634  -0.48845  -0.48336  -0.47367  -0.46809
 Alpha  occ. eigenvalues --   -0.45406  -0.44761  -0.44587  -0.43881  -0.42010
 Alpha  occ. eigenvalues --   -0.39396  -0.37613
 Alpha virt. eigenvalues --   -0.02130  -0.02061  -0.00951   0.00522   0.01246
 Alpha virt. eigenvalues --    0.02382   0.03807   0.06110   0.11493   0.11802
 Alpha virt. eigenvalues --    0.13414   0.13970   0.15065   0.16188
  Beta  occ. eigenvalues --   -1.46040  -1.40088  -1.38621  -1.38484  -1.36344
  Beta  occ. eigenvalues --   -1.15495  -1.12787  -0.87896  -0.85068  -0.66023
  Beta  occ. eigenvalues --   -0.64449  -0.62773  -0.59392  -0.57356  -0.51693
  Beta  occ. eigenvalues --   -0.51409  -0.48711  -0.47963  -0.47468  -0.45739
  Beta  occ. eigenvalues --   -0.45370  -0.44498  -0.43929  -0.43744  -0.38636
  Beta  occ. eigenvalues --   -0.37752
  Beta virt. eigenvalues --   -0.04059  -0.02222  -0.00201  -0.00082   0.01180
  Beta virt. eigenvalues --    0.01419   0.02839   0.03821   0.06576   0.11745
  Beta virt. eigenvalues --    0.12218   0.13767   0.14866   0.15178   0.16746
          Condensed to atoms (all electrons):
               1          2          3          4          5          6
     1  C    4.046180   0.000000   0.000000   0.000000   0.000000   0.000000
     2  C    0.000000   3.976545   0.000000   0.000000   0.000000   0.000000
     3  C    0.000000   0.000000   4.046182   0.000000   0.000000   0.000000
     4  C    0.000000   0.000000   0.000000   4.032384   0.000000   0.000000
     5  C    0.000000   0.000000   0.000000   0.000000   4.129957   0.000000
     6  C    0.000000   0.000000   0.000000   0.000000   0.000000   4.032383
     7  Cl   0.000000   0.000000   0.000000   0.000000   0.000000   0.000000
     8  Cl   0.000000   0.000000   0.000000   0.000000   0.000000   0.000000
     9  Cl   0.000000   0.000000   0.000000   0.000000   0.000000   0.000000
    10  Cl   0.000000   0.000000   0.000000   0.000000   0.000000   0.000000
    11  H    0.000000   0.000000   0.000000   0.000000   0.000000   0.000000
               7          8          9         10         11
     1  C    0.000000   0.000000   0.000000   0.000000   0.000000
     2  C    0.000000   0.000000   0.000000   0.000000   0.000000
     3  C    0.000000   0.000000   0.000000   0.000000   0.000000
     4  C    0.000000   0.000000   0.000000   0.000000   0.000000
     5  C    0.000000   0.000000   0.000000   0.000000   0.000000
     6  C    0.000000   0.000000   0.000000   0.000000   0.000000
     7  Cl   6.994408   0.000000   0.000000   0.000000   0.000000
     8  Cl   0.000000   6.983337   0.000000   0.000000   0.000000
     9  Cl   0.000000   0.000000   6.983334   0.000000   0.000000
    10  Cl   0.000000   0.000000   0.000000   6.994406   0.000000
    11  H    0.000000   0.000000   0.000000   0.000000   0.780884
          Atomic-Atomic Spin Densities.
               1          2          3          4          5          6
     1  C   -0.544477   0.000000   0.000000   0.000000   0.000000   0.000000
     2  C    0.000000   1.475668   0.000000   0.000000   0.000000   0.000000
     3  C    0.000000   0.000000  -0.544472   0.000000   0.000000   0.000000
     4  C    0.000000   0.000000   0.000000   0.542645   0.000000   0.000000
     5  C    0.000000   0.000000   0.000000   0.000000  -0.896715   0.000000
     6  C    0.000000   0.000000   0.000000   0.000000   0.000000   0.542635
     7  Cl   0.000000   0.000000   0.000000   0.000000   0.000000   0.000000
     8  Cl   0.000000   0.000000   0.000000   0.000000   0.000000   0.000000
     9  Cl   0.000000   0.000000   0.000000   0.000000   0.000000   0.000000
    10  Cl   0.000000   0.000000   0.000000   0.000000   0.000000   0.000000
    11  H    0.000000   0.000000   0.000000   0.000000   0.000000   0.000000
               7          8          9         10         11
     1  C    0.000000   0.000000   0.000000   0.000000   0.000000
     2  C    0.000000   0.000000   0.000000   0.000000   0.000000
     3  C    0.000000   0.000000   0.000000   0.000000   0.000000
     4  C    0.000000   0.000000   0.000000   0.000000   0.000000
     5  C    0.000000   0.000000   0.000000   0.000000   0.000000
     6  C    0.000000   0.000000   0.000000   0.000000   0.000000
     7  Cl   0.003127   0.000000   0.000000   0.000000   0.000000
     8  Cl   0.000000   0.007440   0.000000   0.000000   0.000000
     9  Cl   0.000000   0.000000   0.007438   0.000000   0.000000
    10  Cl   0.000000   0.000000   0.000000   0.003127   0.000000
    11  H    0.000000   0.000000   0.000000   0.000000   0.403585
 Mulliken charges and spin densities:
               1          2
     1  C   -0.046180  -0.544477
     2  C    0.023455   1.475668
     3  C   -0.046182  -0.544472
     4  C   -0.032384   0.542645
     5  C   -0.129957  -0.896715
     6  C   -0.032383   0.542635
     7  Cl   0.005592   0.003127
     8  Cl   0.016663   0.007440
     9  Cl   0.016666   0.007438
    10  Cl   0.005594   0.003127
    11  H    0.219116   0.403585
 Sum of Mulliken charges =  -0.00000   1.00000
 Mulliken charges and spin densities with hydrogens summed into heavy atoms:
               1          2
     1  C   -0.046180  -0.544477
     2  C    0.023455   1.475668
     3  C   -0.046182  -0.544472
     4  C   -0.032384   0.542645
     5  C    0.089159  -0.493131
     6  C   -0.032383   0.542635
     7  Cl   0.005592   0.003127
     8  Cl   0.016663   0.007440
     9  Cl   0.016666   0.007438
    10  Cl   0.005594   0.003127
 Charge=             -0.0000 electrons
 Dipole moment (field-independent basis, Debye):
    X=              1.6981    Y=             -0.9804    Z=             -0.0000  Tot=              1.9608
 N-N= 2.909202823930D+02 E-N=-4.081194070002D+02  KE=-1.336233143447D+02
 Symmetry A'   KE=-1.020451552575D+02
 Symmetry A"   KE=-3.157815908716D+01
 Symmetry A'   SP= 1.000000000000D+00
 Symmetry A"   SP= 4.440892098501D-16
 Calling FoFJK, ICntrl=      2127 FMM=F ISym2X=1 I1Cent= 0 IOpClX= 1 NMat=1 NMatS=1 NMatT=0.
 ***** Axes restored to original set *****
 -------------------------------------------------------------------
 Center     Atomic                   Forces (Hartrees/Bohr)
 Number     Number              X              Y              Z
 -------------------------------------------------------------------
      1        6          -0.025541275    0.043947908   -0.000000000
      2        6           0.001663746   -0.060549084    0.000000000
      3        6           0.023087939    0.045279905   -0.000000000
      4        6           0.017055536   -0.032121672   -0.000000000
      5        6           0.001793818   -0.064880830   -0.000000000
      6        6          -0.015277258   -0.033006576   -0.000000000
      7       17           0.036228877    0.019366838    0.000000000
      8       17           0.037396338   -0.017244884    0.000000000
      9       17          -0.036390064   -0.019269648    0.000000000
     10       17          -0.037238975    0.017349298   -0.000000000
     11        1          -0.002778681    0.101128744    0.000000000
 -------------------------------------------------------------------
 Cartesian Forces:  Max     0.101128744 RMS     0.031476705

 GradGradGradGradGradGradGradGradGradGradGradGradGradGradGradGradGradGrad
 Berny optimization.
 FormGI is forming the generalized inverse of G from B-inverse, IUseBI=4.
 Internal  Forces:  Max     0.101166911 RMS     0.021515929
 Search for a local minimum.
 Step number   1 out of a maximum of   57
 All quantities printed in internal units (Hartrees-Bohrs-Radians)
 Mixed Optimization -- RFO/linear search
 Second derivative matrix not updated -- first step.
 ITU=  0
     Eigenvalues ---    0.02011   0.02011   0.02011   0.02011   0.02011
     Eigenvalues ---    0.02011   0.02011   0.02011   0.06524   0.16000
     Eigenvalues ---    0.23453   0.25000   0.25000   0.25000   0.25000
     Eigenvalues ---    0.25000   0.25000   0.29033   0.29033   0.29033
     Eigenvalues ---    0.29033   0.41211   0.41456   0.44656   0.44657
     Eigenvalues ---    0.44657   0.44657
 RFO step:  Lambda=-9.31189738D-02 EMin= 2.01065740D-02
 Linear search not attempted -- first point.
 Maximum step size (   0.300) exceeded in Quadratic search.
    -- Step size scaled by   0.433
 Iteration  1 RMS(Cart)=  0.03789564 RMS(Int)=  0.01116843
 Iteration  2 RMS(Cart)=  0.01062533 RMS(Int)=  0.00002577
 Iteration  3 RMS(Cart)=  0.00000002 RMS(Int)=  0.00002577
 ClnCor:  largest displacement from symmetrization is 6.49D-09 for atom     3.
 Variable       Old X    -DE/DX   Delta X   Delta X   Delta X     New X
                                 (Linear)    (Quad)   (Total)
    R1        2.65676  -0.03089   0.00000  -0.02486  -0.02483   2.63194
    R2        2.65677  -0.00392   0.00000  -0.00314  -0.00314   2.65362
    R3        3.33635  -0.04110   0.00000  -0.04640  -0.04640   3.28995
    R4        2.65677  -0.03089   0.00000  -0.02486  -0.02483   2.63194
    R5        2.65677  -0.00392   0.00000  -0.00314  -0.00314   2.65362
    R6        3.33633  -0.04109   0.00000  -0.04639  -0.04639   3.28994
    R7        2.65678  -0.02204   0.00000  -0.01760  -0.01763   2.63915
    R8        3.33633  -0.04101   0.00000  -0.04630  -0.04630   3.29004
    R9        2.65675  -0.02203   0.00000  -0.01759  -0.01762   2.63913
   R10        3.33632  -0.10117   0.00000  -0.27656  -0.27656   3.05976
   R11        3.33633  -0.04101   0.00000  -0.04629  -0.04629   3.29004
    A1        2.09439  -0.01483   0.00000  -0.01906  -0.01903   2.07537
    A2        2.09439   0.00302   0.00000   0.00398   0.00396   2.09836
    A3        2.09440   0.01181   0.00000   0.01508   0.01506   2.10946
    A4        2.09439   0.02768   0.00000   0.03421   0.03431   2.12870
    A5        2.09440  -0.01483   0.00000  -0.01906  -0.01903   2.07537
    A6        2.09440   0.00302   0.00000   0.00398   0.00396   2.09836
    A7        2.09439   0.01181   0.00000   0.01508   0.01506   2.10945
    A8        2.09439  -0.00510   0.00000  -0.00651  -0.00655   2.08784
    A9        2.09440   0.00667   0.00000   0.00845   0.00847   2.10287
   A10        2.09440  -0.00157   0.00000  -0.00194  -0.00192   2.09247
   A11        2.09439   0.01219   0.00000   0.01692   0.01685   2.11124
   A12        2.09439  -0.00609   0.00000  -0.00846  -0.00842   2.08597
   A13        2.09440  -0.00609   0.00000  -0.00846  -0.00842   2.08598
   A14        2.09440  -0.00511   0.00000  -0.00651  -0.00655   2.08785
   A15        2.09439   0.00667   0.00000   0.00845   0.00847   2.10287
   A16        2.09439  -0.00157   0.00000  -0.00194  -0.00192   2.09247
    D1       -0.00000   0.00000   0.00000   0.00000   0.00000   0.00000
    D2        3.14159  -0.00000   0.00000  -0.00000   0.00000   3.14159
    D3        0.00000  -0.00000   0.00000  -0.00000   0.00000   0.00000
    D4        3.14159  -0.00000   0.00000  -0.00000   0.00000   3.14159
    D5        3.14159   0.00000   0.00000   0.00000   0.00000   3.14159
    D6       -0.00000   0.00000   0.00000   0.00000   0.00000   0.00000
    D7        0.00000  -0.00000   0.00000  -0.00000  -0.00000   0.00000
    D8        3.14159   0.00000   0.00000   0.00000   0.00000   3.14159
    D9       -0.00000  -0.00000   0.00000  -0.00000   0.00000   0.00000
   D10        3.14159   0.00000   0.00000   0.00000   0.00000   3.14159
   D11        3.14159  -0.00000   0.00000  -0.00000   0.00000   3.14159
   D12        0.00000  -0.00000   0.00000  -0.00000  -0.00000   0.00000
   D13        0.00000   0.00000   0.00000   0.00000   0.00000   0.00000
   D14        3.14159   0.00000   0.00000   0.00000   0.00000   3.14159
   D15        3.14159   0.00000   0.00000  -0.00000   0.00000   3.14159
   D16       -0.00000   0.00000   0.00000   0.00000   0.00000   0.00000
   D17       -0.00000  -0.00000   0.00000  -0.00000   0.00000   0.00000
   D18        3.14159   0.00000   0.00000   0.00000   0.00000   3.14159
   D19        3.14159  -0.00000   0.00000  -0.00000   0.00000   3.14159
   D20       -0.00000  -0.00000   0.00000  -0.00000   0.00000   0.00000
         Item               Value     Threshold  Converged?
 Maximum Force            0.101167     0.000450     NO 
 RMS     Force            0.021516     0.000300     NO 
 Maximum Displacement     0.278993     0.001800     NO 
 RMS     Displacement     0.047245     0.001200     NO 
 Predicted change in Energy=-3.577656D-02
 GradGradGradGradGradGradGradGradGradGradGradGradGradGradGradGradGradGrad

                          Input orientation:                          
 ---------------------------------------------------------------------
 Center     Atomic      Atomic             Coordinates (Angstroms)
 Number     Number       Type             X           Y           Z
 ---------------------------------------------------------------------
      1          6           0       -3.209253    0.184225   -0.000000
      2          6           0       -2.010331    0.893007   -0.000000
      3          6           0       -0.774303    0.251116    0.000000
      4          6           0       -0.738368   -1.152661    0.000000
      5          6           0       -1.934325   -1.873848   -0.000000
      6          6           0       -3.168061   -1.219407   -0.000000
      7         17           0       -4.641840   -2.146286   -0.000000
      8         17           0       -4.729247    1.033098   -0.000000
      9         17           0        0.696790    1.182154    0.000000
     10         17           0        0.784071   -1.997233    0.000000
     11          1           0       -1.889853   -3.492394    0.000000
 ---------------------------------------------------------------------
                    Distance matrix (angstroms):
                    1          2          3          4          5
     1  C    0.000000
     2  C    1.392761   0.000000
     3  C    2.435868   1.392763   0.000000
     4  C    2.809366   2.408868   1.404236   0.000000
     5  C    2.420972   2.767899   2.420975   1.396576   0.000000
     6  C    1.404237   2.408865   2.809362   2.430610   1.396566
     7  Cl   2.735615   4.020216   4.550315   4.027950   2.721187
     8  Cl   1.740968   2.722523   4.031510   4.550237   4.032608
     9  Cl   4.031505   2.722519   1.740962   2.740627   4.032606
    10  Cl   4.550318   4.020220   2.735617   1.741012   2.721195
    11  H    3.906192   4.387055   3.906189   2.607732   1.619156
                    6          7          8          9         10
     6  C    0.000000
     7  Cl   1.741013   0.000000
     8  Cl   2.740635   3.180585   0.000000
     9  Cl   4.550227   6.291222   5.428084   0.000000
    10  Cl   4.027948   5.427958   6.291231   3.180585   0.000000
    11  H    2.607735   3.063565   5.342493   5.342482   3.063556
                   11
    11  H    0.000000
 Stoichiometry    C6HCl4(2)
 Framework group  CS[SG(C6HCl4)]
 Deg. of freedom    19
 Full point group                 CS      NOp   2
 Largest Abelian subgroup         CS      NOp   2
 Largest concise Abelian subgroup C1      NOp   1
                         Standard orientation:                         
 ---------------------------------------------------------------------
 Center     Atomic      Atomic             Coordinates (Angstroms)
 Number     Number       Type             X           Y           Z
 ---------------------------------------------------------------------
      1          6           0        1.217935    0.730118    0.000000
      2          6           0        0.000003    1.405712    0.000000
      3          6           0       -1.217933    0.730123    0.000000
      4          6           0       -1.215309   -0.674111    0.000000
      5          6           0        0.000000   -1.362187    0.000000
      6          6           0        1.215301   -0.674116    0.000000
      7         17           0        2.713975   -1.560177    0.000000
      8         17           0        2.714047    1.620408    0.000000
      9         17           0       -2.714037    1.620416    0.000000
     10         17           0       -2.713983   -1.560169    0.000000
     11          1           0       -0.000012   -2.981343    0.000000
 ---------------------------------------------------------------------
 Rotational constants (GHZ):           1.1685912           0.4588725           0.3294908
 Standard basis: VSTO-6G (5D, 7F)
 There are    31 symmetry adapted cartesian basis functions of A'  symmetry.
 There are    10 symmetry adapted cartesian basis functions of A"  symmetry.
 There are    31 symmetry adapted basis functions of A'  symmetry.
 There are    10 symmetry adapted basis functions of A"  symmetry.
    41 basis functions,   246 primitive gaussians,    41 cartesian basis functions
    27 alpha electrons       26 beta electrons
       nuclear repulsion energy       292.5289485430 Hartrees.
 Integral buffers will be    131072 words long.
 Regular integral format.
 Two-electron integral symmetry is turned off.
 Do NDO integrals.
 One-electron integrals computed using PRISM.
 NBasis=    41 RedAO= T EigKep=  1.00D+00  NBF=    31    10
 NBsUse=    41 1.00D-06 EigRej= -1.00D+00 NBFU=    31    10
 Initial guess from the checkpoint file:  "geometry_chks/12345-12_45-ClBzNeutralRadical.chk"
 B after Tr=    -0.000000   -0.000000   -0.000000
         Rot=    0.866025    0.000000    0.000000    0.500001 Ang=  60.00 deg.
 Initial guess orbital symmetries:
 Alpha Orbitals:
       Occupied  (A') (A') (A') (A') (A') (A') (A') (A') (A') (A')
                 (A') (A') (A') (A") (A") (A') (A") (A') (A") (A')
                 (A') (A') (A') (A") (A') (A") (A")
       Virtual   (A') (A") (A") (A') (A') (A') (A') (A") (A') (A')
                 (A') (A') (A') (A')
 Beta  Orbitals:
       Occupied  (A') (A') (A') (A') (A') (A') (A') (A') (A') (A')
                 (A') (A') (A') (A") (A") (A') (A") (A') (A") (A')
                 (A') (A') (A') (A") (A") (A")
       Virtual   (A') (A") (A') (A") (A') (A') (A') (A') (A") (A')
                 (A') (A') (A') (A') (A')
 Initial guess <Sx>= 0.0000 <Sy>= 0.0000 <Sz>= 0.5000 <S**2>= 1.6010 S= 0.8605
 Keep J ints in memory in canonical form, NReq=864464.
 Overlap will be assumed to be unity.
 Requested convergence on RMS density matrix=1.00D-08 within  32 cycles.
 Requested convergence on MAX density matrix=1.00D-06.
 Requested convergence on             energy=1.00D-06.
 No special actions if energy rises.
 Fock symm off for IB=2 I1=    1 I=   32 J=   11 Cut=1.00D-07 Err=2.00D-03
 Fock matrix is not symmetric: symmetry in diagonalization turned off.
 SCF Done:  E(UAM1) =  0.176946094894     A.U. after   17 cycles
            NFock= 16  Conv=0.76D-08     -V/T= 1.0013
 <Sx>= 0.0000 <Sy>= 0.0000 <Sz>= 0.5000 <S**2>= 1.3466 S= 0.7636
 <L.S>=  0.00000000000    
 Annihilation of the first spin contaminant:
 S**2 before annihilation     1.3466,   after     1.0831
 QCSCF skips out because SCF is already converged.
 Calling FoFJK, ICntrl=      2127 FMM=F ISym2X=1 I1Cent= 0 IOpClX= 1 NMat=1 NMatS=1 NMatT=0.
 ***** Axes restored to original set *****
 -------------------------------------------------------------------
 Center     Atomic                   Forces (Hartrees/Bohr)
 Number     Number              X              Y              Z
 -------------------------------------------------------------------
      1        6          -0.025535639    0.038061775   -0.000000000
      2        6           0.001154306   -0.041997440    0.000000000
      3        6           0.023405759    0.039404184   -0.000000000
      4        6           0.017053989   -0.026157169   -0.000000000
      5        6           0.002781425   -0.100959941    0.000000000
      6        6          -0.015600061   -0.027051912   -0.000000000
      7       17           0.025476662    0.014087535    0.000000000
      8       17           0.027052179   -0.013053670    0.000000000
      9       17          -0.026292353   -0.014517310    0.000000000
     10       17          -0.026212209    0.012667883    0.000000000
     11        1          -0.003284057    0.119516065    0.000000000
 -------------------------------------------------------------------
 Cartesian Forces:  Max     0.119516065 RMS     0.032988272

 GradGradGradGradGradGradGradGradGradGradGradGradGradGradGradGradGradGrad
 Berny optimization.
 Using GEDIIS/GDIIS optimizer.
 FormGI is forming the generalized inverse of G from B-inverse, IUseBI=4.
 Internal  Forces:  Max     0.119561176 RMS     0.020486606
 Search for a local minimum.
 Step number   2 out of a maximum of   57
 All quantities printed in internal units (Hartrees-Bohrs-Radians)
 Mixed Optimization -- RFO/linear search
 Update second derivatives using D2CorX and points    1    2
 DE= -4.18D-02 DEPred=-3.58D-02 R= 1.17D+00
 TightC=F SS=  1.41D+00  RLast= 3.00D-01 DXNew= 5.0454D-01 9.0000D-01
 Trust test= 1.17D+00 RLast= 3.00D-01 DXMaxT set to 5.05D-01
 ITU=  1  0
 Use linear search instead of GDIIS.
     Eigenvalues ---   -1.23281   0.00258   0.02011   0.02011   0.02011
     Eigenvalues ---    0.02011   0.02011   0.02011   0.02011   0.02011
     Eigenvalues ---    0.16000   0.23686   0.24924   0.25000   0.25000
     Eigenvalues ---    0.25000   0.25000   0.25292   0.29027   0.29033
     Eigenvalues ---    0.29033   0.35967   0.41249   0.41278   0.44459
     Eigenvalues ---    0.44657   0.44657
 RFO step:  Lambda=-1.23280624D+00 EMin=-1.23280619D+00
 I=     1 Eig=   -1.23D+00 Dot1= -1.33D-04
 I=     1 Stepn= -6.00D-01 RXN=   6.00D-01 EDone=F
 Mixed    1 eigenvectors in step.  Raw Step.Grad=  1.33D-04.
 RFO eigenvector is Hessian eigenvector with negative curvature.
 Taking step of  6.00D-01 in eigenvector direction(s).  Step.Grad= -1.43D-02.
 Skip linear search -- no minimum in search direction.
 Maximum step size (   0.505) exceeded in Quadratic search.
    -- Step size not scaled.
 Iteration  1 RMS(Cart)=  0.11130334 RMS(Int)=  0.01091379
 Iteration  2 RMS(Cart)=  0.01114790 RMS(Int)=  0.00010806
 Iteration  3 RMS(Cart)=  0.00000397 RMS(Int)=  0.00010803
 Iteration  4 RMS(Cart)=  0.00000000 RMS(Int)=  0.00010803
 ClnCor:  largest displacement from symmetrization is 6.15D-09 for atom     2.
 Variable       Old X    -DE/DX   Delta X   Delta X   Delta X     New X
                                 (Linear)    (Quad)   (Total)
    R1        2.63194  -0.01659   0.00000  -0.18538  -0.18522   2.44672
    R2        2.65362   0.00396   0.00000  -0.09861  -0.09861   2.55502
    R3        3.28995  -0.02998   0.00000  -0.16430  -0.16430   3.12566
    R4        2.63194  -0.01659   0.00000  -0.18537  -0.18521   2.44673
    R5        2.65362   0.00396   0.00000  -0.09862  -0.09862   2.55500
    R6        3.28994  -0.02998   0.00000  -0.16428  -0.16428   3.12566
    R7        2.63915  -0.00840   0.00000  -0.17627  -0.17643   2.46272
    R8        3.29004  -0.02907   0.00000  -0.17555  -0.17555   3.11448
    R9        2.63913  -0.00840   0.00000  -0.17621  -0.17637   2.46276
   R10        3.05976  -0.11956   0.00000   0.27401   0.27401   3.33377
   R11        3.29004  -0.02907   0.00000  -0.17554  -0.17554   3.11450
    A1        2.07537  -0.01243   0.00000  -0.03755  -0.03741   2.03795
    A2        2.09836   0.00326   0.00000  -0.00285  -0.00291   2.09545
    A3        2.10946   0.00916   0.00000   0.04039   0.04033   2.14978
    A4        2.12870   0.02331   0.00000   0.07227   0.07267   2.20137
    A5        2.07537  -0.01243   0.00000  -0.03754  -0.03741   2.03796
    A6        2.09836   0.00326   0.00000  -0.00285  -0.00292   2.09544
    A7        2.10945   0.00916   0.00000   0.04039   0.04033   2.14978
    A8        2.08784  -0.00355   0.00000  -0.02461  -0.02478   2.06306
    A9        2.10287   0.00447   0.00000   0.03352   0.03361   2.13648
   A10        2.09247  -0.00092   0.00000  -0.00891  -0.00883   2.08365
   A11        2.11124   0.00864   0.00000   0.05205   0.05174   2.16298
   A12        2.08597  -0.00432   0.00000  -0.02603  -0.02587   2.06009
   A13        2.08598  -0.00432   0.00000  -0.02602  -0.02587   2.06011
   A14        2.08785  -0.00355   0.00000  -0.02462  -0.02480   2.06305
   A15        2.10287   0.00447   0.00000   0.03353   0.03361   2.13648
   A16        2.09247  -0.00092   0.00000  -0.00890  -0.00882   2.08365
    D1        0.00000   0.00000   0.00000  -0.00000   0.00000   0.00000
    D2        3.14159  -0.00000   0.00000   0.00000   0.00000   3.14159
    D3        0.00000  -0.00000   0.00000   0.00000   0.00000   0.00000
    D4        3.14159  -0.00000   0.00000   0.00000   0.00000   3.14159
    D5        3.14159   0.00000   0.00000  -0.00000   0.00000   3.14159
    D6        0.00000   0.00000   0.00000  -0.00000   0.00000   0.00000
    D7        0.00000  -0.00000   0.00000   0.00000   0.00000   0.00000
    D8        3.14159   0.00000   0.00000  -0.00000   0.00000   3.14159
    D9        0.00000   0.00000   0.00000  -0.00000   0.00000   0.00000
   D10        3.14159   0.00000   0.00000  -0.00000   0.00000   3.14159
   D11        3.14159  -0.00000   0.00000   0.00000   0.00000   3.14159
   D12        0.00000  -0.00000   0.00000   0.00000   0.00000   0.00000
   D13        0.00000   0.00000   0.00000  -0.00000   0.00000   0.00000
   D14        3.14159   0.00000   0.00000   0.00000   0.00000   3.14159
   D15        3.14159  -0.00000   0.00000   0.00000   0.00000   3.14159
   D16        0.00000  -0.00000   0.00000   0.00000   0.00000   0.00000
   D17        0.00000  -0.00000   0.00000   0.00000   0.00000   0.00000
   D18        3.14159  -0.00000   0.00000   0.00000   0.00000   3.14159
   D19        3.14159  -0.00000   0.00000  -0.00000   0.00000   3.14159
   D20        0.00000  -0.00000   0.00000  -0.00000   0.00000   0.00000
         Item               Value     Threshold  Converged?
 Maximum Force            0.119561     0.000450     NO 
 RMS     Force            0.020487     0.000300     NO 
 Maximum Displacement     0.331888     0.001800     NO 
 RMS     Displacement     0.112679     0.001200     NO 
 Predicted change in Energy=-2.220305D-01
 GradGradGradGradGradGradGradGradGradGradGradGradGradGradGradGradGradGrad

                          Input orientation:                          
 ---------------------------------------------------------------------
 Center     Atomic      Atomic             Coordinates (Angstroms)
 Number     Number       Type             X           Y           Z
 ---------------------------------------------------------------------
      1          6           0       -3.145018    0.163387   -0.000000
      2          6           0       -2.007266    0.781363   -0.000000
      3          6           0       -0.837304    0.226772   -0.000000
      4          6           0       -0.804163   -1.124871   -0.000000
      5          6           0       -1.937201   -1.768761   -0.000000
      6          6           0       -3.103901   -1.188044   -0.000000
      7         17           0       -4.467776   -2.113329   -0.000000
      8         17           0       -4.556347    1.025912   -0.000000
      9         17           0        0.524549    1.165474   -0.000000
     10         17           0        0.608444   -1.973881   -0.000000
     11          1           0       -1.888736   -3.532252   -0.000000
 ---------------------------------------------------------------------
                    Distance matrix (angstroms):
                    1          2          3          4          5
     1  C    0.000000
     2  C    1.294748   0.000000
     3  C    2.308585   1.294753   0.000000
     4  C    2.671930   2.254148   1.352048   0.000000
     5  C    2.278599   2.551086   2.278579   1.303215   0.000000
     6  C    1.352056   2.254145   2.671922   2.300606   1.303235
     7  Cl   2.633082   3.799125   4.319306   3.794616   2.553926
     8  Cl   1.654025   2.560784   3.803934   4.324899   3.830159
     9  Cl   3.803932   2.560787   1.654027   2.647859   3.830137
    10  Cl   4.319304   3.799120   2.633070   1.648113   2.553896
    11  H    3.903331   4.315243   3.903302   2.640413   1.764157
                    6          7          8          9         10
     6  C    0.000000
     7  Cl   1.648122   0.000000
     8  Cl   2.647867   3.140490   0.000000
     9  Cl   4.324893   5.972760   5.082812   0.000000
    10  Cl   3.794608   5.078135   5.972757   3.140477   0.000000
    11  H    2.640443   2.943602   5.281383   5.281342   2.943539
                   11
    11  H    0.000000
 Stoichiometry    C6HCl4(2)
 Framework group  CS[SG(C6HCl4)]
 Deg. of freedom    19
 Full point group                 CS      NOp   2
 Largest Abelian subgroup         CS      NOp   2
 Largest concise Abelian subgroup C1      NOp   1
                         Standard orientation:                         
 ---------------------------------------------------------------------
 Center     Atomic      Atomic             Coordinates (Angstroms)
 Number     Number       Type             X           Y           Z
 ---------------------------------------------------------------------
      1          6           0        1.154287    0.702237    0.000000
      2          6           0       -0.000010    1.288727    0.000000
      3          6           0       -1.154298    0.702207    0.000000
      4          6           0       -1.150297   -0.649835    0.000000
      5          6           0        0.000000   -1.262359    0.000000
      6          6           0        1.150308   -0.649814    0.000000
      7         17           0        2.539085   -1.537285    0.000000
      8         17           0        2.541391    1.603204    0.000000
      9         17           0       -2.541422    1.603147    0.000000
     10         17           0       -2.539050   -1.537329    0.000000
     11          1           0       -0.000006   -3.026516    0.000000
 ---------------------------------------------------------------------
 Rotational constants (GHZ):           1.2170660           0.5229919           0.3658014
 Standard basis: VSTO-6G (5D, 7F)
 There are    31 symmetry adapted cartesian basis functions of A'  symmetry.
 There are    10 symmetry adapted cartesian basis functions of A"  symmetry.
 There are    31 symmetry adapted basis functions of A'  symmetry.
 There are    10 symmetry adapted basis functions of A"  symmetry.
    41 basis functions,   246 primitive gaussians,    41 cartesian basis functions
    27 alpha electrons       26 beta electrons
       nuclear repulsion energy       301.8127006652 Hartrees.



 Warning!  Cl atom    7 may be hypervalent but has no d functions.
 Warning!  Cl atom    8 may be hypervalent but has no d functions.
 Warning!  Cl atom    9 may be hypervalent but has no d functions.
 Warning!  Cl atom   10 may be hypervalent but has no d functions.



 Integral buffers will be    131072 words long.
 Regular integral format.
 Two-electron integral symmetry is turned off.
 Do NDO integrals.
 One-electron integrals computed using PRISM.
 NBasis=    41 RedAO= T EigKep=  1.00D+00  NBF=    31    10
 NBsUse=    41 1.00D-06 EigRej= -1.00D+00 NBFU=    31    10
 Initial guess from the checkpoint file:  "geometry_chks/12345-12_45-ClBzNeutralRadical.chk"
 B after Tr=    -0.000000    0.000000    0.000000
         Rot=    1.000000   -0.000000   -0.000000   -0.000006 Ang=  -0.00 deg.
 Initial guess orbital symmetries:
 Alpha Orbitals:
       Occupied  (A') (A') (A') (A') (A') (A') (A') (A') (A') (A')
                 (A') (A') (A') (A") (A') (A") (A") (A') (A') (A")
                 (A') (A') (A') (A") (A') (A") (A")
       Virtual   (A") (A") (A') (A') (A') (A') (A') (A") (A') (A')
                 (A') (A') (A') (A')
 Beta  Orbitals:
       Occupied  (A') (A') (A') (A') (A') (A') (A') (A') (A') (A')
                 (A') (A') (A') (A") (A") (A') (A") (A') (A") (A')
                 (A') (A') (A') (A") (A") (A")
       Virtual   (A') (A") (A") (A') (A') (A') (A') (A') (A") (A')
                 (A') (A') (A') (A') (A')
 Initial guess <Sx>= 0.0000 <Sy>= 0.0000 <Sz>= 0.5000 <S**2>= 1.3466 S= 0.7636
 Keep J ints in memory in canonical form, NReq=864464.
 Overlap will be assumed to be unity.
 Requested convergence on RMS density matrix=1.00D-08 within  32 cycles.
 Requested convergence on MAX density matrix=1.00D-06.
 Requested convergence on             energy=1.00D-06.
 No special actions if energy rises.
 Fock symm off for IB=2 I1=    1 I=   32 J=   23 Cut=1.00D-07 Err=7.25D-03
 Fock matrix is not symmetric: symmetry in diagonalization turned off.
 SCF Done:  E(UAM1) =  0.262157690759     A.U. after   21 cycles
            NFock= 20  Conv=0.76D-08     -V/T= 1.0020
 <Sx>= 0.0000 <Sy>= 0.0000 <Sz>= 0.5000 <S**2>= 1.1957 S= 0.7024
 <L.S>=  0.00000000000    
 Annihilation of the first spin contaminant:
 S**2 before annihilation     1.1957,   after     0.9488
 QCSCF skips out because SCF is already converged.
 Calling FoFJK, ICntrl=      2127 FMM=F ISym2X=1 I1Cent= 0 IOpClX= 1 NMat=1 NMatS=1 NMatT=0.
 ***** Axes restored to original set *****
 -------------------------------------------------------------------
 Center     Atomic                   Forces (Hartrees/Bohr)
 Number     Number              X              Y              Z
 -------------------------------------------------------------------
      1        6          -0.117260820    0.048347673   -0.000000000
      2        6          -0.002933759    0.107041388    0.000000000
      3        6           0.114425385    0.054729527   -0.000000000
      4        6           0.105553319   -0.039860715   -0.000000000
      5        6           0.005920896   -0.216552563   -0.000000000
      6        6          -0.103187561   -0.045601514   -0.000000000
      7       17          -0.035431901   -0.020810451    0.000000000
      8       17          -0.030512495    0.016178779    0.000000000
      9       17           0.029577641    0.017829946    0.000000000
     10       17           0.036530451   -0.018838200    0.000000000
     11        1          -0.002681156    0.097536129    0.000000000
 -------------------------------------------------------------------
 Cartesian Forces:  Max     0.216552563 RMS     0.063081000

 GradGradGradGradGradGradGradGradGradGradGradGradGradGradGradGradGradGrad
 Berny optimization.
 Using GEDIIS/GDIIS optimizer.
 FormGI is forming the generalized inverse of G from B-inverse, IUseBI=4.
 Internal  Forces:  Max     0.154759780 RMS     0.054636428
 Search for a local minimum.
 Step number   3 out of a maximum of   57
 All quantities printed in internal units (Hartrees-Bohrs-Radians)
 Mixed Optimization -- RFO/linear search
 Update second derivatives using D2CorX and points    1    3    2
 ITU=  0  1  0
 Use linear search instead of GDIIS.
     Eigenvalues ---    0.00212   0.02011   0.02011   0.02011   0.02011
     Eigenvalues ---    0.02011   0.02011   0.02011   0.02011   0.16000
     Eigenvalues ---    0.20250   0.24224   0.25000   0.25000   0.25000
     Eigenvalues ---    0.25000   0.25022   0.27809   0.29033   0.29033
     Eigenvalues ---    0.29037   0.40771   0.41039   0.44204   0.44657
     Eigenvalues ---    0.44657   0.98226
 RFO step:  Lambda=-1.29426642D-01 EMin= 2.12032270D-03
 Quartic linear search produced a step of -0.99910.
 Maximum step size (   0.505) exceeded in Quadratic search.
    -- Step size scaled by   0.519
 Iteration  1 RMS(Cart)=  0.10604611 RMS(Int)=  0.08075681
 Iteration  2 RMS(Cart)=  0.02754592 RMS(Int)=  0.05158233
 Iteration  3 RMS(Cart)=  0.02781550 RMS(Int)=  0.02240963
 Iteration  4 RMS(Cart)=  0.02136625 RMS(Int)=  0.00015300
 Iteration  5 RMS(Cart)=  0.00000001 RMS(Int)=  0.00015300
 ClnCor:  largest displacement from symmetrization is 9.72D-09 for atom    10.
 Variable       Old X    -DE/DX   Delta X   Delta X   Delta X     New X
                                 (Linear)    (Quad)   (Total)
    R1        2.44672   0.15151   0.18505   0.00320   0.18803   2.63475
    R2        2.55502   0.12211   0.09852   0.03012   0.12864   2.68365
    R3        3.12566   0.03447   0.16415  -0.05921   0.10494   3.23060
    R4        2.44673   0.15150   0.18505   0.00320   0.18803   2.63475
    R5        2.55500   0.12212   0.09853   0.03012   0.12865   2.68365
    R6        3.12566   0.03447   0.16413  -0.05920   0.10493   3.23059
    R7        2.46272   0.15476   0.17627   0.01784   0.19432   2.65704
    R8        3.11448   0.04101   0.17539  -0.05543   0.11997   3.23445
    R9        2.46276   0.15473   0.17621   0.01785   0.19427   2.65703
   R10        3.33377  -0.09757  -0.27376  -0.47972  -0.75349   2.58029
   R11        3.11450   0.04100   0.17538  -0.05543   0.11995   3.23445
    A1        2.03795  -0.01119   0.03738  -0.03359   0.00361   2.04156
    A2        2.09545   0.00888   0.00291   0.01034   0.01335   2.10879
    A3        2.14978   0.00230  -0.04029   0.02324  -0.01695   2.13283
    A4        2.20137   0.02133  -0.07260   0.06199  -0.01119   2.19018
    A5        2.03796  -0.01119   0.03738  -0.03359   0.00360   2.04156
    A6        2.09544   0.00889   0.00291   0.01034   0.01335   2.10879
    A7        2.14978   0.00231  -0.04029   0.02325  -0.01695   2.13283
    A8        2.06306  -0.00691   0.02476  -0.01013   0.01488   2.07794
    A9        2.13648  -0.00070  -0.03358   0.01070  -0.02300   2.11348
   A10        2.08365   0.00762   0.00882  -0.00058   0.00812   2.09176
   A11        2.16298   0.01487  -0.05169   0.02545  -0.02579   2.13719
   A12        2.06009  -0.00743   0.02585  -0.01272   0.01290   2.07299
   A13        2.06011  -0.00744   0.02584  -0.01273   0.01289   2.07300
   A14        2.06305  -0.00691   0.02477  -0.01013   0.01489   2.07794
   A15        2.13648  -0.00070  -0.03358   0.01071  -0.02300   2.11348
   A16        2.08365   0.00761   0.00881  -0.00058   0.00811   2.09176
    D1        0.00000   0.00000   0.00000   0.00000   0.00000   0.00000
    D2        3.14159  -0.00000   0.00000  -0.00000   0.00000   3.14159
    D3        0.00000   0.00000   0.00000   0.00000   0.00000   0.00000
    D4        3.14159  -0.00000   0.00000  -0.00000   0.00000   3.14159
    D5        3.14159   0.00000   0.00000   0.00000   0.00000   3.14159
    D6        0.00000   0.00000   0.00000   0.00000   0.00000   0.00000
    D7        0.00000  -0.00000   0.00000  -0.00000   0.00000   0.00000
    D8        3.14159   0.00000   0.00000   0.00000   0.00000   3.14159
    D9        0.00000   0.00000   0.00000   0.00000   0.00000   0.00000
   D10        3.14159   0.00000   0.00000   0.00000   0.00000   3.14159
   D11        3.14159  -0.00000   0.00000  -0.00000   0.00000   3.14159
   D12        0.00000  -0.00000   0.00000  -0.00000   0.00000   0.00000
   D13        0.00000  -0.00000   0.00000   0.00000   0.00000   0.00000
   D14        3.14159   0.00000   0.00000   0.00000   0.00000   3.14159
   D15        3.14159  -0.00000   0.00000  -0.00000   0.00000   3.14159
   D16        0.00000   0.00000   0.00000   0.00000   0.00000   0.00000
   D17        0.00000  -0.00000   0.00000  -0.00000   0.00000   0.00000
   D18        3.14159   0.00000   0.00000   0.00000   0.00000   3.14159
   D19        3.14159  -0.00000   0.00000  -0.00000   0.00000   3.14159
   D20        0.00000  -0.00000   0.00000  -0.00000   0.00000   0.00000
         Item               Value     Threshold  Converged?
 Maximum Force            0.154760     0.000450     NO 
 RMS     Force            0.054636     0.000300     NO 
 Maximum Displacement     0.518272     0.001800     NO 
 RMS     Displacement     0.132298     0.001200     NO 
 Predicted change in Energy=-7.267756D-02
 GradGradGradGradGradGradGradGradGradGradGradGradGradGradGradGradGradGrad

                          Input orientation:                          
 ---------------------------------------------------------------------
 Center     Atomic      Atomic             Coordinates (Angstroms)
 Number     Number       Type             X           Y           Z
 ---------------------------------------------------------------------
      1          6           0       -3.230356    0.169013   -0.000000
      2          6           0       -2.008911    0.841328   -0.000000
      3          6           0       -0.752396    0.237086   -0.000000
      4          6           0       -0.720411   -1.182682   -0.000000
      5          6           0       -1.933796   -1.893080   -0.000000
      6          6           0       -3.184345   -1.250370   -0.000000
      7         17           0       -4.620622   -2.181325   -0.000000
      8         17           0       -4.705695    1.032704   -0.000000
      9         17           0        0.673298    1.180472   -0.000000
     10         17           0        0.764808   -2.033384   -0.000000
     11          1           0       -1.896294   -3.257994   -0.000000
 ---------------------------------------------------------------------
                    Distance matrix (angstroms):
                    1          2          3          4          5
     1  C    0.000000
     2  C    1.394251   0.000000
     3  C    2.478895   1.394252   0.000000
     4  C    2.850773   2.399344   1.420129   0.000000
     5  C    2.435836   2.735440   2.435839   1.406047   0.000000
     6  C    1.420128   2.399343   2.850772   2.464863   1.406040
     7  Cl   2.730738   3.994680   4.562005   4.026032   2.702244
     8  Cl   1.709557   2.703566   4.032565   4.559652   4.030340
     9  Cl   4.032564   2.703565   1.709556   2.743524   4.030343
    10  Cl   4.562005   3.994682   2.730740   1.711598   2.702248
    11  H    3.677513   4.100869   3.677512   2.385293   1.365430
                    6          7          8          9         10
     6  C    0.000000
     7  Cl   1.711599   0.000000
     8  Cl   2.743526   3.215155   0.000000
     9  Cl   4.559649   6.271146   5.381023   0.000000
    10  Cl   4.026030   5.387461   6.271148   3.215159   0.000000
    11  H    2.385295   2.929365   5.128629   5.128624   2.929357
                   11
    11  H    0.000000
 Stoichiometry    C6HCl4(2)
 Framework group  CS[SG(C6HCl4)]
 Deg. of freedom    19
 Full point group                 CS      NOp   2
 Largest Abelian subgroup         CS      NOp   2
 Largest concise Abelian subgroup C1      NOp   1
                         Standard orientation:                         
 ---------------------------------------------------------------------
 Center     Atomic      Atomic             Coordinates (Angstroms)
 Number     Number       Type             X           Y           Z
 ---------------------------------------------------------------------
      1          6           0       -0.734339    1.239447   -0.000000
      2          6           0       -1.372858   -0.000000   -0.000000
      3          6           0       -0.734339   -1.239448    0.000000
      4          6           0        0.685772   -1.232433    0.000000
      5          6           0        1.362581    0.000003    0.000000
      6          6           0        0.685772    1.232430   -0.000000
      7         17           0        1.576935    2.693731   -0.000000
      8         17           0       -1.638218    2.690511   -0.000000
      9         17           0       -1.638218   -2.690511    0.000000
     10         17           0        1.576939   -2.693730    0.000000
     11          1           0        2.728011   -0.000003    0.000000
 ---------------------------------------------------------------------
 Rotational constants (GHZ):           1.1533061           0.4648991           0.3313368
 Standard basis: VSTO-6G (5D, 7F)
 There are    31 symmetry adapted cartesian basis functions of A'  symmetry.
 There are    10 symmetry adapted cartesian basis functions of A"  symmetry.
 There are    31 symmetry adapted basis functions of A'  symmetry.
 There are    10 symmetry adapted basis functions of A"  symmetry.
    41 basis functions,   246 primitive gaussians,    41 cartesian basis functions
    27 alpha electrons       26 beta electrons
       nuclear repulsion energy       293.2943760147 Hartrees.
 Integral buffers will be    131072 words long.
 Regular integral format.
 Two-electron integral symmetry is turned off.
 Do NDO integrals.
 One-electron integrals computed using PRISM.
 NBasis=    41 RedAO= T EigKep=  1.00D+00  NBF=    31    10
 NBsUse=    41 1.00D-06 EigRej= -1.00D+00 NBFU=    31    10
 Lowest energy guess from the checkpoint file:  "geometry_chks/12345-12_45-ClBzNeutralRadical.chk"
 B after Tr=     0.000000    0.000000    0.000000
         Rot=   -0.707106   -0.000000    0.000000    0.707108 Ang= 270.00 deg.
 B after Tr=     0.000000    0.000000    0.000000
         Rot=    0.707110    0.000000   -0.000000   -0.707103 Ang= -90.00 deg.
 Initial guess orbital symmetries:
 Alpha Orbitals:
       Occupied  (A') (A") (A") (A') (A") (A') (A') (A') (A') (A')
                 (A') (A') (A') (A') (A") (A") (A") (A") (A") (A")
                 (A") (A") (A") (A") (A") (A") (A")
       Virtual   (A') (A") (A") (A') (A") (A') (A') (A') (A') (A')
                 (A') (A') (A') (A')
 Beta  Orbitals:
       Occupied  (A') (A") (A") (A') (A") (A') (A') (A') (A') (A')
                 (A') (A') (A') (A') (A') (A') (A") (A') (A") (A')
                 (A') (A') (A') (A") (A") (A")
       Virtual   (A') (A") (A") (A') (A") (A') (A') (A') (A') (A')
                 (A') (A') (A') (A') (A')
 Initial guess <Sx>= 0.0000 <Sy>= 0.0000 <Sz>= 0.5000 <S**2>= 1.3463 S= 0.7635
 Keep J ints in memory in canonical form, NReq=864464.
 Overlap will be assumed to be unity.
 Requested convergence on RMS density matrix=1.00D-08 within  32 cycles.
 Requested convergence on MAX density matrix=1.00D-06.
 Requested convergence on             energy=1.00D-06.
 No special actions if energy rises.
 An orbital has undefined symmetry, so N**3 symmetry is turned off.
 SCF Done:  E(UAM1) =  0.114874353568     A.U. after   16 cycles
            NFock= 15  Conv=0.52D-08     -V/T= 1.0009
 <Sx>= 0.0000 <Sy>= 0.0000 <Sz>= 0.5000 <S**2>= 1.3869 S= 0.7794
 <L.S>=  0.00000000000    
 Annihilation of the first spin contaminant:
 S**2 before annihilation     1.3869,   after     1.1211
 QCSCF skips out because SCF is already converged.
 Calling FoFJK, ICntrl=      2127 FMM=F ISym2X=1 I1Cent= 0 IOpClX= 1 NMat=1 NMatS=1 NMatT=0.
 ***** Axes restored to original set *****
 -------------------------------------------------------------------
 Center     Atomic                   Forces (Hartrees/Bohr)
 Number     Number              X              Y              Z
 -------------------------------------------------------------------
      1        6          -0.003736735    0.017675190   -0.000000000
      2        6           0.000954701   -0.034753153    0.000000000
      3        6           0.002760434    0.017851908   -0.000000000
      4        6          -0.001323628   -0.006933194   -0.000000000
      5        6           0.002386533   -0.086675669    0.000000000
      6        6           0.001697442   -0.006849278   -0.000000000
      7       17           0.013844423    0.008569025    0.000000000
      8       17           0.015404944   -0.008524456    0.000000000
      9       17          -0.014912968   -0.009356833    0.000000000
     10       17          -0.014294306    0.007796325   -0.000000000
     11        1          -0.002780841    0.101200135    0.000000000
 -------------------------------------------------------------------
 Cartesian Forces:  Max     0.101200135 RMS     0.025153284

 GradGradGradGradGradGradGradGradGradGradGradGradGradGradGradGradGradGrad
 Berny optimization.
 Using GEDIIS/GDIIS optimizer.
 FormGI is forming the generalized inverse of G from B-inverse, IUseBI=4.
 Internal  Forces:  Max     0.101238335 RMS     0.016747477
 Search for a local minimum.
 Step number   4 out of a maximum of   57
 All quantities printed in internal units (Hartrees-Bohrs-Radians)
 Mixed Optimization -- RFO/linear search
 Update second derivatives using D2CorX and points    2    4
 DE= -6.21D-02 DEPred=-7.27D-02 R= 8.54D-01
 TightC=F SS=  1.41D+00  RLast= 5.04D-01 DXNew= 8.4853D-01 1.5131D+00
 Trust test= 8.54D-01 RLast= 5.04D-01 DXMaxT set to 8.49D-01
 ITU=  1  0  1  0
 Use linear search instead of GDIIS.
     Eigenvalues ---    0.02011   0.02011   0.02011   0.02011   0.02011
     Eigenvalues ---    0.02011   0.02011   0.02011   0.02820   0.13111
     Eigenvalues ---    0.16000   0.23826   0.25000   0.25000   0.25000
     Eigenvalues ---    0.25000   0.25114   0.26545   0.29033   0.29033
     Eigenvalues ---    0.29047   0.41009   0.41405   0.43733   0.44657
     Eigenvalues ---    0.44657   0.89227
 RFO step:  Lambda=-7.34435498D-03 EMin= 2.01065753D-02
 Quartic linear search produced a step of  1.03927.
 Iteration  1 RMS(Cart)=  0.02674939 RMS(Int)=  0.07471428
 Iteration  2 RMS(Cart)=  0.02779870 RMS(Int)=  0.04554127
 Iteration  3 RMS(Cart)=  0.02781535 RMS(Int)=  0.01636845
 Iteration  4 RMS(Cart)=  0.01560645 RMS(Int)=  0.00009298
 Iteration  5 RMS(Cart)=  0.00000001 RMS(Int)=  0.00009298
 ClnCor:  largest displacement from symmetrization is 9.70D-09 for atom     1.
 Variable       Old X    -DE/DX   Delta X   Delta X   Delta X     New X
                                 (Linear)    (Quad)   (Total)
    R1        2.63475  -0.02166   0.00293  -0.01537  -0.01231   2.62244
    R2        2.68365  -0.00854   0.03121  -0.02927   0.00194   2.68559
    R3        3.23060  -0.01760  -0.06169   0.03792  -0.02376   3.20683
    R4        2.63475  -0.02166   0.00292  -0.01537  -0.01232   2.62244
    R5        2.68365  -0.00854   0.03121  -0.02927   0.00194   2.68559
    R6        3.23059  -0.01760  -0.06168   0.03791  -0.02377   3.20683
    R7        2.65704  -0.01410   0.01860  -0.00523   0.01324   2.67028
    R8        3.23445  -0.01628  -0.05777   0.04405  -0.01372   3.22074
    R9        2.65703  -0.01410   0.01861  -0.00524   0.01324   2.67027
   R10        2.58029  -0.10124  -0.49830  -0.21391  -0.71221   1.86807
   R11        3.23445  -0.01628  -0.05777   0.04405  -0.01372   3.22073
    A1        2.04156  -0.00659  -0.03514   0.01712  -0.01790   2.02366
    A2        2.10879   0.00261   0.01085   0.00395   0.01473   2.12353
    A3        2.13283   0.00398   0.02429  -0.02107   0.00316   2.13599
    A4        2.19018   0.01293   0.06390  -0.03270   0.03154   2.22172
    A5        2.04156  -0.00659  -0.03514   0.01713  -0.01790   2.02366
    A6        2.10879   0.00261   0.01084   0.00395   0.01473   2.12353
    A7        2.13283   0.00398   0.02429  -0.02107   0.00316   2.13599
    A8        2.07794  -0.00036  -0.01029   0.02000   0.00956   2.08749
    A9        2.11348   0.00073   0.01103  -0.02227  -0.01116   2.10232
   A10        2.09176  -0.00037  -0.00074   0.00227   0.00160   2.09337
   A11        2.13719   0.00097   0.02697  -0.04155  -0.01486   2.12232
   A12        2.07299  -0.00048  -0.01348   0.02078   0.00744   2.08043
   A13        2.07300  -0.00049  -0.01348   0.02077   0.00743   2.08043
   A14        2.07794  -0.00036  -0.01030   0.02000   0.00956   2.08750
   A15        2.11348   0.00073   0.01103  -0.02226  -0.01116   2.10232
   A16        2.09176  -0.00037  -0.00073   0.00226   0.00160   2.09337
    D1       -0.00000   0.00000   0.00000   0.00000   0.00000   0.00000
    D2        3.14159  -0.00000   0.00000  -0.00000   0.00000   3.14159
    D3        0.00000  -0.00000   0.00000  -0.00000   0.00000   0.00000
    D4        3.14159  -0.00000   0.00000  -0.00000   0.00000   3.14159
    D5        3.14159   0.00000   0.00000   0.00000   0.00000   3.14159
    D6       -0.00000   0.00000   0.00000   0.00000   0.00000   0.00000
    D7        0.00000  -0.00000   0.00000   0.00000  -0.00000   0.00000
    D8        3.14159   0.00000   0.00000   0.00000   0.00000   3.14159
    D9       -0.00000  -0.00000   0.00000  -0.00000   0.00000   0.00000
   D10        3.14159   0.00000   0.00000  -0.00000   0.00000   3.14159
   D11        3.14159  -0.00000   0.00000  -0.00000   0.00000   3.14159
   D12        0.00000  -0.00000   0.00000  -0.00000  -0.00000   0.00000
   D13        0.00000   0.00000   0.00000   0.00000  -0.00000   0.00000
   D14        3.14159   0.00000   0.00000   0.00000   0.00000   3.14159
   D15        3.14159   0.00000   0.00000   0.00000   0.00000   3.14159
   D16        0.00000   0.00000   0.00000   0.00000   0.00000   0.00000
   D17       -0.00000  -0.00000   0.00000   0.00000   0.00000   0.00000
   D18        3.14159   0.00000   0.00000   0.00000   0.00000   3.14159
   D19        3.14159  -0.00000   0.00000  -0.00000   0.00000   3.14159
   D20        0.00000  -0.00000   0.00000  -0.00000   0.00000   0.00000
         Item               Value     Threshold  Converged?
 Maximum Force            0.101238     0.000450     NO 
 RMS     Force            0.016747     0.000300     NO 
 Maximum Displacement     0.626761     0.001800     NO 
 RMS     Displacement     0.096471     0.001200     NO 
 Predicted change in Energy=-6.364212D-02
 GradGradGradGradGradGradGradGradGradGradGradGradGradGradGradGradGradGrad

                          Input orientation:                          
 ---------------------------------------------------------------------
 Center     Atomic      Atomic             Coordinates (Angstroms)
 Number     Number       Type             X           Y           Z
 ---------------------------------------------------------------------
      1          6           0       -3.233565    0.137384   -0.000000
      2          6           0       -2.007426    0.787301   -0.000000
      3          6           0       -0.747456    0.205681    0.000000
      4          6           0       -0.718467   -1.215178    0.000000
      5          6           0       -1.932557   -1.938158   -0.000000
      6          6           0       -3.184501   -1.282923   -0.000000
      7         17           0       -4.623003   -2.196971   -0.000000
      8         17           0       -4.697161    0.996240   -0.000000
      9         17           0        0.666779    1.143594    0.000000
     10         17           0        0.768047   -2.048873    0.000000
     11          1           0       -1.905410   -2.926327    0.000000
 ---------------------------------------------------------------------
                    Distance matrix (angstroms):
                    1          2          3          4          5
     1  C    0.000000
     2  C    1.387735   0.000000
     3  C    2.487047   1.387734   0.000000
     4  C    2.855720   2.381456   1.421155   0.000000
     5  C    2.449590   2.726486   2.449594   1.413051   0.000000
     6  C    1.421154   2.381456   2.855719   2.466964   1.413044
     7  Cl   2.716570   3.968264   4.559891   4.026079   2.702865
     8  Cl   1.696982   2.697838   4.028046   4.551963   4.031591
     9  Cl   4.028044   2.697836   1.696980   2.735454   4.031593
    10  Cl   4.559893   3.968266   2.716572   1.704340   2.702873
    11  H    3.339210   3.715028   3.339212   2.082514   0.988542
                    6          7          8          9         10
     6  C    0.000000
     7  Cl   1.704339   0.000000
     8  Cl   2.735457   3.194072   0.000000
     9  Cl   4.551960   6.256290   5.365964   0.000000
    10  Cl   4.026079   5.393084   6.256294   3.194073   0.000000
    11  H    2.082510   2.813765   4.814603   4.814604   2.813769
                   11
    11  H    0.000000
 Stoichiometry    C6HCl4(2)
 Framework group  CS[SG(C6HCl4)]
 Deg. of freedom    19
 Full point group                 CS      NOp   2
 Largest Abelian subgroup         CS      NOp   2
 Largest concise Abelian subgroup C1      NOp   1
                         Standard orientation:                         
 ---------------------------------------------------------------------
 Center     Atomic      Atomic             Coordinates (Angstroms)
 Number     Number       Type             X           Y           Z
 ---------------------------------------------------------------------
      1          6           0       -0.729558    1.243524    0.000000
      2          6           0       -1.345559    0.000000    0.000000
      3          6           0       -0.729559   -1.243524    0.000000
      4          6           0        0.691560   -1.233483    0.000000
      5          6           0        1.380927    0.000003    0.000000
      6          6           0        0.691561    1.233481    0.000000
      7         17           0        1.565761    2.696541    0.000000
      8         17           0       -1.628282    2.682983    0.000000
      9         17           0       -1.628282   -2.682981    0.000000
     10         17           0        1.565762   -2.696543    0.000000
     11          1           0        2.369469    0.000001    0.000000
 ---------------------------------------------------------------------
 Rotational constants (GHZ):           1.1715464           0.4655264           0.3331469
 Standard basis: VSTO-6G (5D, 7F)
 There are    31 symmetry adapted cartesian basis functions of A'  symmetry.
 There are    10 symmetry adapted cartesian basis functions of A"  symmetry.
 There are    31 symmetry adapted basis functions of A'  symmetry.
[...]
    R4        2.59667   0.00011   0.00007   0.00023   0.00031   2.59698
    R5        2.68630  -0.00017  -0.00002  -0.00039  -0.00041   2.68589
    R6        3.16844   0.00027  -0.00015   0.00101   0.00085   3.16929
    R7        2.65820  -0.00012   0.00006  -0.00020  -0.00014   2.65806
    R8        3.18652   0.00013   0.00022   0.00019   0.00041   3.18693
    R9        2.65820  -0.00012   0.00006  -0.00020  -0.00014   2.65806
   R10        2.08521  -0.00035  -0.00116   0.00003  -0.00114   2.08407
   R11        3.18652   0.00013   0.00022   0.00019   0.00041   3.18693
    A1        1.99941  -0.00003   0.00012  -0.00013  -0.00001   1.99940
    A2        2.13160   0.00004   0.00000   0.00011   0.00011   2.13171
    A3        2.15217  -0.00002  -0.00012   0.00003  -0.00010   2.15207
    A4        2.26334  -0.00008  -0.00028  -0.00008  -0.00037   2.26298
    A5        1.99941  -0.00003   0.00012  -0.00013  -0.00001   1.99940
    A6        2.13160   0.00004   0.00000   0.00011   0.00011   2.13171
    A7        2.15217  -0.00002  -0.00012   0.00003  -0.00010   2.15207
    A8        2.08964   0.00009   0.00018   0.00027   0.00045   2.09009
    A9        2.10785  -0.00002  -0.00006  -0.00002  -0.00009   2.10776
   A10        2.08570  -0.00007  -0.00012  -0.00024  -0.00036   2.08534
   A11        2.12492  -0.00004  -0.00032  -0.00018  -0.00050   2.12442
   A12        2.07913   0.00002   0.00016   0.00009   0.00025   2.07938
   A13        2.07913   0.00002   0.00016   0.00009   0.00025   2.07938
   A14        2.08964   0.00009   0.00018   0.00027   0.00045   2.09009
   A15        2.10785  -0.00002  -0.00006  -0.00002  -0.00009   2.10776
   A16        2.08570  -0.00007  -0.00012  -0.00024  -0.00036   2.08534
    D1        0.00000   0.00000   0.00000   0.00000   0.00000   0.00000
    D2        3.14159  -0.00000   0.00000  -0.00000   0.00000   3.14159
    D3        0.00000  -0.00000   0.00000  -0.00000   0.00000   0.00000
    D4        3.14159  -0.00000   0.00000  -0.00000   0.00000   3.14159
    D5        3.14159   0.00000   0.00000   0.00000   0.00000   3.14159
    D6        0.00000   0.00000   0.00000   0.00000   0.00000   0.00000
    D7        0.00000  -0.00000   0.00000  -0.00000   0.00000   0.00000
    D8        3.14159   0.00000   0.00000   0.00000   0.00000   3.14159
    D9        0.00000  -0.00000   0.00000  -0.00000   0.00000   0.00000
   D10        3.14159   0.00000   0.00000   0.00000   0.00000   3.14159
   D11        3.14159  -0.00000   0.00000  -0.00000   0.00000   3.14159
   D12        0.00000  -0.00000   0.00000  -0.00000   0.00000   0.00000
   D13        0.00000   0.00000   0.00000   0.00000   0.00000   0.00000
   D14        3.14159   0.00000   0.00000   0.00000   0.00000   3.14159
   D15        3.14159  -0.00000   0.00000  -0.00000   0.00000   3.14159
   D16        0.00000   0.00000   0.00000   0.00000   0.00000   0.00000
   D17        0.00000  -0.00000   0.00000  -0.00000   0.00000   0.00000
   D18        3.14159   0.00000   0.00000   0.00000   0.00000   3.14159
   D19        3.14159  -0.00000   0.00000  -0.00000   0.00000   3.14159
   D20        0.00000  -0.00000   0.00000  -0.00000   0.00000   0.00000
         Item               Value     Threshold  Converged?
 Maximum Force            0.000350     0.000450     YES
 RMS     Force            0.000098     0.000300     YES
 Maximum Displacement     0.001309     0.001800     YES
 RMS     Displacement     0.000348     0.001200     YES
 Predicted change in Energy=-7.046848D-07
 Optimization completed.
    -- Stationary point found.
                           ----------------------------
                           !   Optimized Parameters   !
                           ! (Angstroms and Degrees)  !
 --------------------------                            --------------------------
 ! Name  Definition              Value          Derivative Info.                !
 --------------------------------------------------------------------------------
 ! R1    R(1,2)                  1.3741         -DE/DX =    0.0001              !
 ! R2    R(1,6)                  1.4215         -DE/DX =   -0.0002              !
 ! R3    R(1,8)                  1.6767         -DE/DX =    0.0003              !
 ! R4    R(2,3)                  1.3741         -DE/DX =    0.0001              !
 ! R5    R(3,4)                  1.4215         -DE/DX =   -0.0002              !
 ! R6    R(3,9)                  1.6767         -DE/DX =    0.0003              !
 ! R7    R(4,5)                  1.4067         -DE/DX =   -0.0001              !
 ! R8    R(4,10)                 1.6862         -DE/DX =    0.0001              !
 ! R9    R(5,6)                  1.4067         -DE/DX =   -0.0001              !
 ! R10   R(5,11)                 1.1034         -DE/DX =   -0.0004              !
 ! R11   R(6,7)                  1.6862         -DE/DX =    0.0001              !
 ! A1    A(2,1,6)              114.558          -DE/DX =    0.0                 !
 ! A2    A(2,1,8)              122.1319         -DE/DX =    0.0                 !
 ! A3    A(6,1,8)              123.31           -DE/DX =    0.0                 !
 ! A4    A(1,2,3)              129.68           -DE/DX =   -0.0001              !
 ! A5    A(2,3,4)              114.558          -DE/DX =    0.0                 !
 ! A6    A(2,3,9)              122.1319         -DE/DX =    0.0                 !
 ! A7    A(4,3,9)              123.31           -DE/DX =    0.0                 !
 ! A8    A(3,4,5)              119.7274         -DE/DX =    0.0001              !
 ! A9    A(3,4,10)             120.771          -DE/DX =    0.0                 !
 ! A10   A(5,4,10)             119.5016         -DE/DX =   -0.0001              !
 ! A11   A(4,5,6)              121.7492         -DE/DX =    0.0                 !
 ! A12   A(4,5,11)             119.1254         -DE/DX =    0.0                 !
 ! A13   A(6,5,11)             119.1254         -DE/DX =    0.0                 !
 ! A14   A(1,6,5)              119.7274         -DE/DX =    0.0001              !
 ! A15   A(1,6,7)              120.771          -DE/DX =    0.0                 !
 ! A16   A(5,6,7)              119.5016         -DE/DX =   -0.0001              !
 ! D1    D(6,1,2,3)              0.0            -DE/DX =    0.0                 !
 ! D2    D(8,1,2,3)            180.0            -DE/DX =    0.0                 !
 ! D3    D(2,1,6,5)              0.0            -DE/DX =    0.0                 !
 ! D4    D(2,1,6,7)            180.0            -DE/DX =    0.0                 !
 ! D5    D(8,1,6,5)            180.0            -DE/DX =    0.0                 !
 ! D6    D(8,1,6,7)              0.0            -DE/DX =    0.0                 !
 ! D7    D(1,2,3,4)              0.0            -DE/DX =    0.0                 !
 ! D8    D(1,2,3,9)            180.0            -DE/DX =    0.0                 !
 ! D9    D(2,3,4,5)              0.0            -DE/DX =    0.0                 !
 ! D10   D(2,3,4,10)           180.0            -DE/DX =    0.0                 !
 ! D11   D(9,3,4,5)            180.0            -DE/DX =    0.0                 !
 ! D12   D(9,3,4,10)             0.0            -DE/DX =    0.0                 !
 ! D13   D(3,4,5,6)              0.0            -DE/DX =    0.0                 !
 ! D14   D(3,4,5,11)           180.0            -DE/DX =    0.0                 !
 ! D15   D(10,4,5,6)           180.0            -DE/DX =    0.0                 !
 ! D16   D(10,4,5,11)            0.0            -DE/DX =    0.0                 !
 ! D17   D(4,5,6,1)              0.0            -DE/DX =    0.0                 !
 ! D18   D(4,5,6,7)            180.0            -DE/DX =    0.0                 !
 ! D19   D(11,5,6,1)           180.0            -DE/DX =    0.0                 !
 ! D20   D(11,5,6,7)             0.0            -DE/DX =    0.0                 !
 --------------------------------------------------------------------------------
 GradGradGradGradGradGradGradGradGradGradGradGradGradGradGradGradGradGrad

                          Input orientation:                          
 ---------------------------------------------------------------------
 Center     Atomic      Atomic             Coordinates (Angstroms)
 Number     Number       Type             X           Y           Z
 ---------------------------------------------------------------------
      1          6           0       -3.234102    0.149379    0.000000
      2          6           0       -2.006883    0.767507    0.000000
      3          6           0       -0.747578    0.217687    0.000000
      4          6           0       -0.723473   -1.203639    0.000000
      5          6           0       -1.933005   -1.921778    0.000000
      6          6           0       -3.180139   -1.271127    0.000000
      7         17           0       -4.595189   -2.188196    0.000000
      8         17           0       -4.669253    1.016296    0.000000
      9         17           0        0.637814    1.162088    0.000000
     10         17           0        0.739791   -2.041638    0.000000
     11          1           0       -1.902703   -3.024808    0.000000
 ---------------------------------------------------------------------
                    Distance matrix (angstroms):
                    1          2          3          4          5
     1  C    0.000000
     2  C    1.374100   0.000000
     3  C    2.487462   1.374100   0.000000
     4  C    2.852003   2.352139   1.421530   0.000000
     5  C    2.445924   2.690300   2.445924   1.406660   0.000000
     6  C    1.421530   2.352139   2.852003   2.457593   1.406659
     7  Cl   2.704961   3.928805   4.537883   3.994939   2.675482
     8  Cl   1.676664   2.673969   4.002163   4.527394   4.014889
     9  Cl   4.002163   2.673969   1.676664   2.729426   4.014889
    10  Cl   4.537883   3.928806   2.704961   1.686233   2.675482
    11  H    3.442105   3.793746   3.442105   2.169617   1.103446
                    6          7          8          9         10
     6  C    0.000000
     7  Cl   1.686233   0.000000
     8  Cl   2.729426   3.205348   0.000000
     9  Cl   4.527394   6.213591   5.309069   0.000000
    10  Cl   3.994939   5.336992   6.213591   3.205348   0.000000
    11  H    2.169617   2.819468   4.897379   4.897379   2.819467
                   11
    11  H    0.000000
 Stoichiometry    C6HCl4(2)
 Framework group  CS[SG(C6HCl4)]
 Deg. of freedom    19
 Full point group                 CS      NOp   2
 Largest Abelian subgroup         CS      NOp   2
 Largest concise Abelian subgroup C1      NOp   1
                         Standard orientation:                         
 ---------------------------------------------------------------------
 Center     Atomic      Atomic             Coordinates (Angstroms)
 Number     Number       Type             X           Y           Z
 ---------------------------------------------------------------------
      1          6           0       -0.731154    1.243731    0.000000
      2          6           0       -1.315349   -0.000000    0.000000
      3          6           0       -0.731154   -1.243731    0.000000
      4          6           0        0.690298   -1.228797    0.000000
      5          6           0        1.374951    0.000000    0.000000
      6          6           0        0.690298    1.228796    0.000000
      7         17           0        1.568163    2.668496    0.000000
      8         17           0       -1.637155    2.654534    0.000000
      9         17           0       -1.637155   -2.654535    0.000000
     10         17           0        1.568163   -2.668496    0.000000
     11          1           0        2.478397   -0.000000    0.000000
 ---------------------------------------------------------------------
 Rotational constants (GHZ):           1.1663181           0.4748908           0.3374791

 **********************************************************************

            Population analysis using the SCF Density.

 **********************************************************************

 Orbital symmetries:
 Alpha Orbitals:
       Occupied  (A') (A') (A') (A') (A') (A') (A') (A') (A') (A')
                 (A') (A') (A') (A") (A') (A') (A") (A") (A") (A')
                 (A') (A') (A') (A") (A') (A") (A")
       Virtual   (A") (A") (A') (A') (A') (A') (A") (A') (A') (A')
                 (A') (A') (A') (A')
 Beta  Orbitals:
       Occupied  (A') (A') (A') (A') (A') (A') (A') (A') (A') (A')
                 (A') (A') (A') (A") (A') (A') (A") (A") (A") (A')
                 (A') (A') (A') (A") (A") (A")
       Virtual   (A') (A") (A") (A') (A') (A') (A') (A") (A') (A')
                 (A') (A') (A') (A') (A')
 The electronic state is 2-A'.
 Alpha  occ. eigenvalues --   -1.49126  -1.42579  -1.40837  -1.40546  -1.37716
 Alpha  occ. eigenvalues --   -1.16539  -1.16498  -0.90524  -0.88667  -0.70547
 Alpha  occ. eigenvalues --   -0.66189  -0.66070  -0.61203  -0.58916  -0.54091
 Alpha  occ. eigenvalues --   -0.53605  -0.53124  -0.50222  -0.48487  -0.47961
 Alpha  occ. eigenvalues --   -0.45957  -0.45207  -0.44992  -0.43632  -0.41417
 Alpha  occ. eigenvalues --   -0.39137  -0.36531
 Alpha virt. eigenvalues --   -0.02251  -0.01194   0.01635   0.02629   0.02990
 Alpha virt. eigenvalues --    0.04670   0.05916   0.10748   0.11874   0.12544
 Alpha virt. eigenvalues --    0.14438   0.14578   0.15551   0.16271
  Beta  occ. eigenvalues --   -1.48502  -1.42537  -1.40754  -1.40462  -1.37379
  Beta  occ. eigenvalues --   -1.16400  -1.15180  -0.90150  -0.86443  -0.70438
  Beta  occ. eigenvalues --   -0.65638  -0.64718  -0.61051  -0.58653  -0.53796
  Beta  occ. eigenvalues --   -0.53231  -0.53168  -0.50039  -0.48513  -0.46662
  Beta  occ. eigenvalues --   -0.45709  -0.45178  -0.44780  -0.43359  -0.38424
  Beta  occ. eigenvalues --   -0.36674
  Beta virt. eigenvalues --   -0.02715  -0.02321   0.00229   0.02077   0.02775
  Beta virt. eigenvalues --    0.03708   0.04820   0.06712   0.11531   0.12211
  Beta virt. eigenvalues --    0.12796   0.14433   0.14944   0.16386   0.17411
          Condensed to atoms (all electrons):
               1          2          3          4          5          6
     1  C    4.053273   0.000000   0.000000   0.000000   0.000000   0.000000
     2  C    0.000000   4.028999   0.000000   0.000000   0.000000   0.000000
     3  C    0.000000   0.000000   4.053273   0.000000   0.000000   0.000000
     4  C    0.000000   0.000000   0.000000   4.059760   0.000000   0.000000
     5  C    0.000000   0.000000   0.000000   0.000000   4.119207   0.000000
     6  C    0.000000   0.000000   0.000000   0.000000   0.000000   4.059760
     7  Cl   0.000000   0.000000   0.000000   0.000000   0.000000   0.000000
     8  Cl   0.000000   0.000000   0.000000   0.000000   0.000000   0.000000
     9  Cl   0.000000   0.000000   0.000000   0.000000   0.000000   0.000000
    10  Cl   0.000000   0.000000   0.000000   0.000000   0.000000   0.000000
    11  H    0.000000   0.000000   0.000000   0.000000   0.000000   0.000000
               7          8          9         10         11
     1  C    0.000000   0.000000   0.000000   0.000000   0.000000
     2  C    0.000000   0.000000   0.000000   0.000000   0.000000
     3  C    0.000000   0.000000   0.000000   0.000000   0.000000
     4  C    0.000000   0.000000   0.000000   0.000000   0.000000
     5  C    0.000000   0.000000   0.000000   0.000000   0.000000
     6  C    0.000000   0.000000   0.000000   0.000000   0.000000
     7  Cl   6.962611   0.000000   0.000000   0.000000   0.000000
     8  Cl   0.000000   6.935460   0.000000   0.000000   0.000000
     9  Cl   0.000000   0.000000   6.935460   0.000000   0.000000
    10  Cl   0.000000   0.000000   0.000000   6.962611   0.000000
    11  H    0.000000   0.000000   0.000000   0.000000   0.829584
          Atomic-Atomic Spin Densities.
               1          2          3          4          5          6
     1  C   -0.520126   0.000000   0.000000   0.000000   0.000000   0.000000
     2  C    0.000000   1.430169   0.000000   0.000000   0.000000   0.000000
     3  C    0.000000   0.000000  -0.520126   0.000000   0.000000   0.000000
     4  C    0.000000   0.000000   0.000000   0.524665   0.000000   0.000000
     5  C    0.000000   0.000000   0.000000   0.000000  -0.498384   0.000000
     6  C    0.000000   0.000000   0.000000   0.000000   0.000000   0.524665
     7  Cl   0.000000   0.000000   0.000000   0.000000   0.000000   0.000000
     8  Cl   0.000000   0.000000   0.000000   0.000000   0.000000   0.000000
     9  Cl   0.000000   0.000000   0.000000   0.000000   0.000000   0.000000
    10  Cl   0.000000   0.000000   0.000000   0.000000   0.000000   0.000000
    11  H    0.000000   0.000000   0.000000   0.000000   0.000000   0.000000
               7          8          9         10         11
     1  C    0.000000   0.000000   0.000000   0.000000   0.000000
     2  C    0.000000   0.000000   0.000000   0.000000   0.000000
     3  C    0.000000   0.000000   0.000000   0.000000   0.000000
     4  C    0.000000   0.000000   0.000000   0.000000   0.000000
     5  C    0.000000   0.000000   0.000000   0.000000   0.000000
     6  C    0.000000   0.000000   0.000000   0.000000   0.000000
     7  Cl   0.017514   0.000000   0.000000   0.000000   0.000000
     8  Cl   0.000000  -0.002195   0.000000   0.000000   0.000000
     9  Cl   0.000000   0.000000  -0.002195   0.000000   0.000000
    10  Cl   0.000000   0.000000   0.000000   0.017514   0.000000
    11  H    0.000000   0.000000   0.000000   0.000000   0.028499
 Mulliken charges and spin densities:
               1          2
     1  C   -0.053273  -0.520126
     2  C   -0.028999   1.430169
     3  C   -0.053273  -0.520126
     4  C   -0.059760   0.524665
     5  C   -0.119207  -0.498384
     6  C   -0.059760   0.524665
     7  Cl   0.037389   0.017514
     8  Cl   0.064540  -0.002195
     9  Cl   0.064540  -0.002195
    10  Cl   0.037389   0.017514
    11  H    0.170416   0.028499
 Sum of Mulliken charges =   0.00000   1.00000
 Mulliken charges and spin densities with hydrogens summed into heavy atoms:
               1          2
     1  C   -0.053273  -0.520126
     2  C   -0.028999   1.430169
     3  C   -0.053273  -0.520126
     4  C   -0.059760   0.524665
     5  C    0.051208  -0.469885
     6  C   -0.059760   0.524665
     7  Cl   0.037389   0.017514
     8  Cl   0.064540  -0.002195
     9  Cl   0.064540  -0.002195
    10  Cl   0.037389   0.017514
 Charge=              0.0000 electrons
 Dipole moment (field-independent basis, Debye):
    X=              0.9809    Y=              0.0000    Z=              0.0000  Tot=              0.9809
 N-N= 2.953940523304D+02 E-N=-4.164003039586D+02  KE=-1.337443887588D+02
 Symmetry A'   KE=-1.022086940059D+02
 Symmetry A"   KE=-3.153569475291D+01
 Symmetry A'   SP= 1.000000000000D+00
 Symmetry A"   SP= 5.218048215738D-15
 1\1\GINC-SH02-01N21\FOpt\UAM1\ZDO\C6H1Cl4(2)\JLAPIER\10-Dec-2025\0\\# 
 opt am1 SCF=XQC\\Neutral Radical (removed 3) 12_45\\0,2\C,-3.234102315
 7,0.1493787805,0.\C,-2.0068827105,0.7675073968,0.\C,-0.7475780648,0.21
 7686716,0.\C,-0.7234727595,-1.2036391947,0.\C,-1.9330047595,-1.9217780
 37,0.\C,-3.1801389127,-1.271126931,0.\Cl,-4.5951886289,-2.1881963389,0
 .\Cl,-4.6692532092,1.0162957293,0.\Cl,0.6378136201,1.1620877632,0.\Cl,
 0.7397907693,-2.0416379711,0.\H,-1.9027030286,-3.0248079131,0.\\Versio
 n=ES64L-G16RevB.01\State=2-A'\HF=0.0809276\S2=1.362216\S2-1=0.\S2A=1.0
 89063\RMSD=2.993e-09\RMSF=1.764e-04\Dipole=0.0105975,-0.3857723,0.\PG=
 CS [SG(C6H1Cl4)]\\@


 THE MORE ACCURATE THE CALCULATIONS BECOME, THE MORE THE CONCEPTS
 TEND TO VANISH INTO THIN AIR.
     -- R.S. MULLIKEN, J.C.P. 43,S2(1965)
 Job cpu time:       0 days  0 hours  0 minutes 11.5 seconds.
 Elapsed time:       0 days  0 hours  0 minutes 16.5 seconds.
 File lengths (MBytes):  RWF=     15 Int=      0 D2E=      0 Chk=      2 Scr=      1
 Normal termination of Gaussian 16 at Wed Dec 10 10:38:11 2025.
