 Entering Gaussian System, Link 0=g16
 Initial command:
 /share/software/user/restricted/gaussian/g16.B01/l1.exe "/home/users/jlapier/Chloroaromatics/Gau-20962.inp" -scrdir="/home/users/jlapier/Chloroaromatics/"
 Entering Link 1 = /share/software/user/restricted/gaussian/g16.B01/l1.exe PID=     20967.
  
 Copyright (c) 1988-2017, Gaussian, Inc.  All Rights Reserved.
  
 This is part of the Gaussian(R) 16 program.  It is based on
 the Gaussian(R) 09 system (copyright 2009, Gaussian, Inc.),
 the Gaussian(R) 03 system (copyright 2003, Gaussian, Inc.),
 the Gaussian(R) 98 system (copyright 1998, Gaussian, Inc.),
 the Gaussian(R) 94 system (copyright 1995, Gaussian, Inc.),
 the Gaussian 92(TM) system (copyright 1992, Gaussian, Inc.),
 the Gaussian 90(TM) system (copyright 1990, Gaussian, Inc.),
 the Gaussian 88(TM) system (copyright 1988, Gaussian, Inc.),
 the Gaussian 86(TM) system (copyright 1986, Carnegie Mellon
 University), and the Gaussian 82(TM) system (copyright 1983,
 Carnegie Mellon University). Gaussian is a federally registered
 trademark of Gaussian, Inc.
  
 This software contains proprietary and confidential information,
 including trade secrets, belonging to Gaussian, Inc.
  
 This software is provided under written license and may be
 used, copied, transmitted, or stored only in accord with that
 written license.
  
 The following legend is applicable only to US Government
 contracts under FAR:
  
                    RESTRICTED RIGHTS LEGEND
  
 Use, reproduction and disclosure by the US Government is
 subject to restrictions as set forth in subparagraphs (a)
 and (c) of the Commercial Computer Software - Restricted
 Rights clause in FAR 52.227-19.
  
 Gaussian, Inc.
 340 Quinnipiac St., Bldg. 40, Wallingford CT 06492
  
  
 ---------------------------------------------------------------
 Warning -- This program may not be used in any manner that
 competes with the business of Gaussian, Inc. or will provide
 assistance to any competitor of Gaussian, Inc.  The licensee
 of this program is prohibited from giving any competitor of
 Gaussian, Inc. access to this program.  By using this program,
 the user acknowledges that Gaussian, Inc. is engaged in the
 business of creating and licensing software in the field of
 computational chemistry and represents and warrants to the
 licensee that it is not a competitor of Gaussian, Inc. and that
 it will not use this program in any manner prohibited above.
 ---------------------------------------------------------------
  

 Cite this work as:
 Gaussian 16, Revision B.01,
 M. J. Frisch, G. W. Trucks, H. B. Schlegel, G. E. Scuseria, 
 M. A. Robb, J. R. Cheeseman, G. Scalmani, V. Barone, 
 G. A. Petersson, H. Nakatsuji, X. Li, M. Caricato, A. V. Marenich, 
 J. Bloino, B. G. Janesko, R. Gomperts, B. Mennucci, H. P. Hratchian, 
 J. V. Ortiz, A. F. Izmaylov, J. L. Sonnenberg, D. Williams-Young, 
 F. Ding, F. Lipparini, F. Egidi, J. Goings, B. Peng, A. Petrone, 
 T. Henderson, D. Ranasinghe, V. G. Zakrzewski, J. Gao, N. Rega, 
 G. Zheng, W. Liang, M. Hada, M. Ehara, K. Toyota, R. Fukuda, 
 J. Hasegawa, M. Ishida, T. Nakajima, Y. Honda, O. Kitao, H. Nakai, 
 T. Vreven, K. Throssell, J. A. Montgomery, Jr., J. E. Peralta, 
 F. Ogliaro, M. J. Bearpark, J. J. Heyd, E. N. Brothers, K. N. Kudin, 
 V. N. Staroverov, T. A. Keith, R. Kobayashi, J. Normand, 
 K. Raghavachari, A. P. Rendell, J. C. Burant, S. S. Iyengar, 
 J. Tomasi, M. Cossi, J. M. Millam, M. Klene, C. Adamo, R. Cammi, 
 J. W. Ochterski, R. L. Martin, K. Morokuma, O. Farkas, 
 J. B. Foresman, and D. J. Fox, Gaussian, Inc., Wallingford CT, 2016.
 
 ******************************************
 Gaussian 16:  ES64L-G16RevB.01 20-Dec-2017
                 9-Dec-2025 
 ******************************************
 %mem=2GB
 %nprocshare=1
 Will use up to    1 processors via shared memory.
 %chk=geometry_chks/12345ClBzAnionRadical.chk
 -----------------
 # opt am1 SCF=XQC
 -----------------
 1/18=20,19=15,26=1,38=1/1,3;
 2/9=110,12=2,17=6,18=5,40=1/2;
 3/5=2,25=1,41=700000,71=1/1,2,3;
 4/35=1/1;
 5/5=2,8=3,13=1,35=1,38=5/2,8;
 6/7=2,8=2,9=2,10=2,28=1/1;
 7//1,2,3,16;
 1/18=20,19=15,26=1/3(2);
 2/9=110/2;
 99//99;
 2/9=110/2;
 3/5=2,25=1,41=700000,71=1,135=20/1,2,3;
 4/5=5,16=3,35=1/1;
 5/5=2,8=3,13=1,35=1,38=5/2,8;
 7//1,2,3,16;
 1/18=20,19=15,26=1/3(-5);
 2/9=110/2;
 6/7=2,8=2,9=2,10=2,19=2,28=1/1;
 99/9=1/99;
 --------------------------------------
 5-Chloro-Benzene Anion Radical (12345)
 --------------------------------------
 Symbolic Z-matrix:
 Charge = -1 Multiplicity = 2
 C                    -3.20928   0.19943   0. 
 C                    -2.0115    0.93555   0. 
 C                    -0.77511   0.2663    0. 
 C                    -0.7365   -1.13907   0. 
 C                    -1.93429  -1.87519   0. 
 C                    -3.17067  -1.20594   0. 
 Cl                   -4.67483  -2.13035   0. 
 Cl                   -4.76193   1.03987   0. 
 Cl                    0.81614  -1.97951   0. 
 Cl                   -1.8858   -3.64003   0. 
 Cl                   -2.05998   2.7004    0. 
 H                     0.72905   1.19071   0. 
 
 Add virtual bond connecting atoms H12        and C3         Dist= 3.34D+00.

 GradGradGradGradGradGradGradGradGradGradGradGradGradGradGradGradGradGrad
 Berny optimization.
 Initialization pass.
                           ----------------------------
                           !    Initial Parameters    !
                           ! (Angstroms and Degrees)  !
 --------------------------                            --------------------------
 ! Name  Definition              Value          Derivative Info.                !
 --------------------------------------------------------------------------------
 ! R1    R(1,2)                  1.4059         estimate D2E/DX2                !
 ! R2    R(1,6)                  1.4059         estimate D2E/DX2                !
 ! R3    R(1,8)                  1.7655         estimate D2E/DX2                !
 ! R4    R(2,3)                  1.4059         estimate D2E/DX2                !
 ! R5    R(2,11)                 1.7655         estimate D2E/DX2                !
 ! R6    R(3,4)                  1.4059         estimate D2E/DX2                !
 ! R7    R(3,12)                 1.7655         estimate D2E/DX2                !
 ! R8    R(4,5)                  1.4059         estimate D2E/DX2                !
 ! R9    R(4,9)                  1.7655         estimate D2E/DX2                !
 ! R10   R(5,6)                  1.4059         estimate D2E/DX2                !
 ! R11   R(5,10)                 1.7655         estimate D2E/DX2                !
 ! R12   R(6,7)                  1.7655         estimate D2E/DX2                !
 ! A1    A(2,1,6)              119.9999         estimate D2E/DX2                !
 ! A2    A(2,1,8)              119.9999         estimate D2E/DX2                !
 ! A3    A(6,1,8)              120.0001         estimate D2E/DX2                !
 ! A4    A(1,2,3)              120.0            estimate D2E/DX2                !
 ! A5    A(1,2,11)             120.0001         estimate D2E/DX2                !
 ! A6    A(3,2,11)             119.9999         estimate D2E/DX2                !
 ! A7    A(2,3,4)              120.0001         estimate D2E/DX2                !
 ! A8    A(2,3,12)             120.0            estimate D2E/DX2                !
 ! A9    A(4,3,12)             119.9999         estimate D2E/DX2                !
 ! A10   A(3,4,5)              119.9997         estimate D2E/DX2                !
 ! A11   A(3,4,9)              120.0003         estimate D2E/DX2                !
 ! A12   A(5,4,9)              120.0            estimate D2E/DX2                !
 ! A13   A(4,5,6)              120.0            estimate D2E/DX2                !
 ! A14   A(4,5,10)             119.9996         estimate D2E/DX2                !
 ! A15   A(6,5,10)             120.0004         estimate D2E/DX2                !
 ! A16   A(1,6,5)              120.0003         estimate D2E/DX2                !
 ! A17   A(1,6,7)              119.9999         estimate D2E/DX2                !
 ! A18   A(5,6,7)              119.9998         estimate D2E/DX2                !
 ! D1    D(6,1,2,3)              0.0            estimate D2E/DX2                !
 ! D2    D(6,1,2,11)           180.0            estimate D2E/DX2                !
 ! D3    D(8,1,2,3)            180.0            estimate D2E/DX2                !
 ! D4    D(8,1,2,11)             0.0            estimate D2E/DX2                !
 ! D5    D(2,1,6,5)              0.0            estimate D2E/DX2                !
 ! D6    D(2,1,6,7)            180.0            estimate D2E/DX2                !
 ! D7    D(8,1,6,5)            180.0            estimate D2E/DX2                !
 ! D8    D(8,1,6,7)              0.0            estimate D2E/DX2                !
 ! D9    D(1,2,3,4)              0.0            estimate D2E/DX2                !
 ! D10   D(1,2,3,12)           180.0            estimate D2E/DX2                !
 ! D11   D(11,2,3,4)           180.0            estimate D2E/DX2                !
 ! D12   D(11,2,3,12)            0.0            estimate D2E/DX2                !
 ! D13   D(2,3,4,5)              0.0            estimate D2E/DX2                !
 ! D14   D(2,3,4,9)            180.0            estimate D2E/DX2                !
 ! D15   D(12,3,4,5)           180.0            estimate D2E/DX2                !
 ! D16   D(12,3,4,9)             0.0            estimate D2E/DX2                !
 ! D17   D(3,4,5,6)              0.0            estimate D2E/DX2                !
 ! D18   D(3,4,5,10)           180.0            estimate D2E/DX2                !
 ! D19   D(9,4,5,6)            180.0            estimate D2E/DX2                !
 ! D20   D(9,4,5,10)             0.0            estimate D2E/DX2                !
 ! D21   D(4,5,6,1)              0.0            estimate D2E/DX2                !
 ! D22   D(4,5,6,7)            180.0            estimate D2E/DX2                !
 ! D23   D(10,5,6,1)           180.0            estimate D2E/DX2                !
 ! D24   D(10,5,6,7)             0.0            estimate D2E/DX2                !
 --------------------------------------------------------------------------------
 Trust Radius=3.00D-01 FncErr=1.00D-07 GrdErr=1.00D-07 EigMax=2.50D+02 EigMin=1.00D-04
 Number of steps in this run=     64 maximum allowed number of steps=    100.
 GradGradGradGradGradGradGradGradGradGradGradGradGradGradGradGradGradGrad

                          Input orientation:                          
 ---------------------------------------------------------------------
 Center     Atomic      Atomic             Coordinates (Angstroms)
 Number     Number       Type             X           Y           Z
 ---------------------------------------------------------------------
      1          6           0       -3.209280    0.199430    0.000000
      2          6           0       -2.011500    0.935550    0.000000
      3          6           0       -0.775110    0.266300    0.000000
      4          6           0       -0.736500   -1.139070    0.000000
      5          6           0       -1.934290   -1.875190    0.000000
      6          6           0       -3.170670   -1.205940    0.000000
      7         17           0       -4.674830   -2.130350    0.000000
      8         17           0       -4.761930    1.039870    0.000000
      9         17           0        0.816140   -1.979510    0.000000
     10         17           0       -1.885800   -3.640030    0.000000
     11         17           0       -2.059980    2.700400    0.000000
     12          1           0        0.729050    1.190710    0.000000
 ---------------------------------------------------------------------
                    Distance matrix (angstroms):
                    1          2          3          4          5
     1  C    0.000000
     2  C    1.405898   0.000000
     3  C    2.435088   1.405900   0.000000
     4  C    2.811801   2.435092   1.405900   0.000000
     5  C    2.435087   2.811800   2.435093   1.405907   0.000000
     6  C    1.405900   2.435088   2.811796   2.435088   1.405892
     7  Cl   2.752401   4.061166   4.577308   4.061167   2.752393
     8  Cl   1.765520   2.752408   4.061175   4.577321   4.061173
     9  Cl   4.577312   4.061173   2.752406   1.765511   2.752408
    10  Cl   4.061164   4.577306   4.061163   2.752397   1.765506
    11  Cl   2.752406   1.765516   2.752405   4.061173   4.577316
    12  H    4.061167   2.752403   1.765512   2.752401   4.061173
                    6          7          8          9         10
     6  C    0.000000
     7  Cl   1.765512   0.000000
     8  Cl   2.752412   3.171416   0.000000
     9  Cl   4.061165   5.493041   6.342832   0.000000
    10  Cl   2.752396   3.171407   5.493049   3.171404   0.000000
    11  Cl   4.061173   5.493049   3.171418   5.493052   6.342822
    12  H    4.577308   6.342819   5.493051   3.171416   5.493040
                   11         12
    11  Cl   0.000000
    12  H    3.171412   0.000000
 Stoichiometry    C6HCl5(1-,2)
 Framework group  CS[SG(C6HCl5)]
 Deg. of freedom    21
 Full point group                 CS      NOp   2
 Largest Abelian subgroup         CS      NOp   2
 Largest concise Abelian subgroup C1      NOp   1
                         Standard orientation:                         
 ---------------------------------------------------------------------
 Center     Atomic      Atomic             Coordinates (Angstroms)
 Number     Number       Type             X           Y           Z
 ---------------------------------------------------------------------
      1          6           0       -0.360199   -1.197937    0.000000
      2          6           0       -1.577743   -0.494989    0.000000
      3          6           0       -1.577743    0.910912    0.000000
      4          6           0       -0.360199    1.613864    0.000000
      5          6           0        0.857350    0.910907    0.000000
      6          6           0        0.857345   -0.494985    0.000000
      7         17           0        2.386323   -1.377741    0.000000
      8         17           0       -0.360200   -2.963457    0.000000
      9         17           0       -0.360194    3.379375    0.000000
     10         17           0        2.386319    1.793666    0.000000
     11         17           0       -3.106726   -1.377744    0.000000
     12          1           0       -3.106721    1.793668    0.000000
 ---------------------------------------------------------------------
 Rotational constants (GHZ):           0.6848772           0.4487103           0.2710964
 Standard basis: VSTO-6G (5D, 7F)
 There are    34 symmetry adapted cartesian basis functions of A'  symmetry.
 There are    11 symmetry adapted cartesian basis functions of A"  symmetry.
 There are    34 symmetry adapted basis functions of A'  symmetry.
 There are    11 symmetry adapted basis functions of A"  symmetry.
    45 basis functions,   270 primitive gaussians,    45 cartesian basis functions
    31 alpha electrons       30 beta electrons
       nuclear repulsion energy       357.7851216828 Hartrees.
 Integral buffers will be    131072 words long.
 Regular integral format.
 Two-electron integral symmetry is turned off.
 Do NDO integrals.
 One-electron integrals computed using PRISM.
 NBasis=    45 RedAO= T EigKep=  1.00D+00  NBF=    34    11
 NBsUse=    45 1.00D-06 EigRej= -1.00D+00 NBFU=    34    11
 Simple Huckel Guess.
 Initial guess orbital symmetries:
 Alpha Orbitals:
       Occupied  (A') (A') (A') (A') (A') (A') (A') (A') (A') (A')
                 (A') (A") (A') (A') (A') (A') (A") (A") (A') (A')
                 (A") (A") (A') (A') (A') (A") (A') (A') (A") (A")
                 (A')
       Virtual   (A") (A") (A") (A') (A') (A') (A') (A') (A') (A')
                 (A') (A') (A') (A')
 Beta  Orbitals:
       Occupied  (A') (A') (A') (A') (A') (A') (A') (A') (A') (A')
                 (A') (A") (A') (A') (A') (A') (A") (A") (A') (A')
                 (A") (A") (A') (A') (A') (A") (A') (A') (A") (A")
       Virtual   (A') (A") (A") (A") (A') (A') (A') (A') (A') (A')
                 (A') (A') (A') (A') (A')
 The electronic state of the initial guess is 2-A'.
 Initial guess <Sx>= 0.0000 <Sy>= 0.0000 <Sz>= 0.5000 <S**2>= 0.7500 S= 0.5000
 Keep J ints in memory in canonical form, NReq=865560.
 Overlap will be assumed to be unity.
 Requested convergence on RMS density matrix=1.00D-08 within  32 cycles.
 Requested convergence on MAX density matrix=1.00D-06.
 Requested convergence on             energy=1.00D-06.
 No special actions if energy rises.
 Fock symm off for IB=2 I1=    1 I=   35 J=   31 Cut=1.00D-07 Err=4.43D-03
 Fock matrix is not symmetric: symmetry in diagonalization turned off.
 SCF Done:  E(UAM1) =  0.696689091345E-01 A.U. after   32 cycles
            NFock= 31  Conv=0.82D-08     -V/T= 1.0004
 <Sx>= 0.0000 <Sy>= 0.0000 <Sz>= 0.5000 <S**2>= 0.8660 S= 0.5564
 <L.S>=  0.00000000000    
 Annihilation of the first spin contaminant:
 S**2 before annihilation     0.8660,   after     0.7596
 QCSCF skips out because SCF is already converged.

 **********************************************************************

            Population analysis using the SCF Density.

 **********************************************************************

 Orbital symmetries:
 Alpha Orbitals:
       Occupied  (A') (A') (A') (A') (A') (A') (A') (A') (A') (A')
                 (A') (A') (A') (A') (A") (A') (A") (A') (A") (A")
                 (A') (A") (A') (A') (A') (A') (A") (A') (A") (A")
                 (A')
       Virtual   (A") (A") (A') (A') (A') (A') (A') (A") (A') (A')
                 (A') (A') (A') (A')
 Beta  Orbitals:
       Occupied  (A') (A') (A') (A') (A') (A') (A') (A') (A') (A')
                 (A') (A') (A') (A') (A") (A') (A") (A') (A") (A")
                 (A') (A") (A') (A') (A') (A') (A") (A") (A") (A')
       Virtual   (A") (A') (A") (A') (A') (A') (A') (A") (A') (A')
                 (A') (A') (A') (A') (A')
 The electronic state is 2-A'.
 Alpha  occ. eigenvalues --   -1.30907  -1.25480  -1.24941  -1.23576  -1.22792
 Alpha  occ. eigenvalues --   -1.20534  -0.99448  -0.97323  -0.72106  -0.71079
 Alpha  occ. eigenvalues --   -0.53857  -0.49116  -0.48261  -0.43927  -0.42963
 Alpha  occ. eigenvalues --   -0.40932  -0.37098  -0.36282  -0.35204  -0.33533
 Alpha  occ. eigenvalues --   -0.33185  -0.32846  -0.32461  -0.31233  -0.30169
 Alpha  occ. eigenvalues --   -0.28844  -0.28397  -0.23440  -0.21612  -0.19636
 Alpha  occ. eigenvalues --   -0.09096
 Alpha virt. eigenvalues --    0.13182   0.14228   0.14233   0.15758   0.16083
 Alpha virt. eigenvalues --    0.18883   0.19637   0.23763   0.28018   0.28292
 Alpha virt. eigenvalues --    0.29689   0.30257   0.33417   0.35737
  Beta  occ. eigenvalues --   -1.30838  -1.25400  -1.24928  -1.23563  -1.22791
  Beta  occ. eigenvalues --   -1.20448  -0.99272  -0.97246  -0.72119  -0.70598
  Beta  occ. eigenvalues --   -0.53879  -0.49048  -0.48021  -0.43860  -0.42902
  Beta  occ. eigenvalues --   -0.40800  -0.36873  -0.36223  -0.35551  -0.33498
  Beta  occ. eigenvalues --   -0.33069  -0.33034  -0.32430  -0.31216  -0.30095
  Beta  occ. eigenvalues --   -0.28782  -0.28354  -0.21219  -0.20424  -0.17301
  Beta virt. eigenvalues --    0.13165   0.14186   0.15004   0.15799   0.16674
  Beta virt. eigenvalues --    0.18303   0.19451   0.24488   0.27718   0.28315
  Beta virt. eigenvalues --    0.29473   0.29743   0.31962   0.34077   0.36167
          Condensed to atoms (all electrons):
               1          2          3          4          5          6
     1  C    4.037268   0.000000   0.000000   0.000000   0.000000   0.000000
     2  C    0.000000   4.041306   0.000000   0.000000   0.000000   0.000000
     3  C    0.000000   0.000000   4.196915   0.000000   0.000000   0.000000
     4  C    0.000000   0.000000   0.000000   4.041313   0.000000   0.000000
     5  C    0.000000   0.000000   0.000000   0.000000   4.037271   0.000000
     6  C    0.000000   0.000000   0.000000   0.000000   0.000000   4.097128
     7  Cl   0.000000   0.000000   0.000000   0.000000   0.000000   0.000000
     8  Cl   0.000000   0.000000   0.000000   0.000000   0.000000   0.000000
     9  Cl   0.000000   0.000000   0.000000   0.000000   0.000000   0.000000
    10  Cl   0.000000   0.000000   0.000000   0.000000   0.000000   0.000000
    11  Cl   0.000000   0.000000   0.000000   0.000000   0.000000   0.000000
    12  H    0.000000   0.000000   0.000000   0.000000   0.000000   0.000000
               7          8          9         10         11         12
     1  C    0.000000   0.000000   0.000000   0.000000   0.000000   0.000000
     2  C    0.000000   0.000000   0.000000   0.000000   0.000000   0.000000
     3  C    0.000000   0.000000   0.000000   0.000000   0.000000   0.000000
     4  C    0.000000   0.000000   0.000000   0.000000   0.000000   0.000000
     5  C    0.000000   0.000000   0.000000   0.000000   0.000000   0.000000
     6  C    0.000000   0.000000   0.000000   0.000000   0.000000   0.000000
     7  Cl   7.065017   0.000000   0.000000   0.000000   0.000000   0.000000
     8  Cl   0.000000   7.080267   0.000000   0.000000   0.000000   0.000000
     9  Cl   0.000000   0.000000   7.074780   0.000000   0.000000   0.000000
    10  Cl   0.000000   0.000000   0.000000   7.080260   0.000000   0.000000
    11  Cl   0.000000   0.000000   0.000000   0.000000   7.074782   0.000000
    12  H    0.000000   0.000000   0.000000   0.000000   0.000000   1.173694
          Atomic-Atomic Spin Densities.
               1          2          3          4          5          6
     1  C    0.227352   0.000000   0.000000   0.000000   0.000000   0.000000
     2  C    0.000000  -0.199391   0.000000   0.000000   0.000000   0.000000
     3  C    0.000000   0.000000   0.335094   0.000000   0.000000   0.000000
     4  C    0.000000   0.000000   0.000000  -0.199395   0.000000   0.000000
     5  C    0.000000   0.000000   0.000000   0.000000   0.227351   0.000000
     6  C    0.000000   0.000000   0.000000   0.000000   0.000000  -0.230368
     7  Cl   0.000000   0.000000   0.000000   0.000000   0.000000   0.000000
     8  Cl   0.000000   0.000000   0.000000   0.000000   0.000000   0.000000
     9  Cl   0.000000   0.000000   0.000000   0.000000   0.000000   0.000000
    10  Cl   0.000000   0.000000   0.000000   0.000000   0.000000   0.000000
    11  Cl   0.000000   0.000000   0.000000   0.000000   0.000000   0.000000
    12  H    0.000000   0.000000   0.000000   0.000000   0.000000   0.000000
               7          8          9         10         11         12
     1  C    0.000000   0.000000   0.000000   0.000000   0.000000   0.000000
     2  C    0.000000   0.000000   0.000000   0.000000   0.000000   0.000000
     3  C    0.000000   0.000000   0.000000   0.000000   0.000000   0.000000
     4  C    0.000000   0.000000   0.000000   0.000000   0.000000   0.000000
     5  C    0.000000   0.000000   0.000000   0.000000   0.000000   0.000000
     6  C    0.000000   0.000000   0.000000   0.000000   0.000000   0.000000
     7  Cl   0.004641   0.000000   0.000000   0.000000   0.000000   0.000000
     8  Cl   0.000000   0.003576   0.000000   0.000000   0.000000   0.000000
     9  Cl   0.000000   0.000000   0.005951   0.000000   0.000000   0.000000
    10  Cl   0.000000   0.000000   0.000000   0.003576   0.000000   0.000000
    11  Cl   0.000000   0.000000   0.000000   0.000000   0.005952   0.000000
    12  H    0.000000   0.000000   0.000000   0.000000   0.000000   0.815662
 Mulliken charges and spin densities:
               1          2
     1  C   -0.037268   0.227352
     2  C   -0.041306  -0.199391
     3  C   -0.196915   0.335094
     4  C   -0.041313  -0.199395
     5  C   -0.037271   0.227351
     6  C   -0.097128  -0.230368
     7  Cl  -0.065017   0.004641
     8  Cl  -0.080267   0.003576
     9  Cl  -0.074780   0.005951
    10  Cl  -0.080260   0.003576
    11  Cl  -0.074782   0.005952
    12  H   -0.173694   0.815662
 Sum of Mulliken charges =  -1.00000   1.00000
 Mulliken charges and spin densities with hydrogens summed into heavy atoms:
               1          2
     1  C   -0.037268   0.227352
     2  C   -0.041306  -0.199391
     3  C   -0.370609   1.150756
     4  C   -0.041313  -0.199395
     5  C   -0.037271   0.227351
     6  C   -0.097128  -0.230368
     7  Cl  -0.065017   0.004641
     8  Cl  -0.080267   0.003576
     9  Cl  -0.074780   0.005951
    10  Cl  -0.080260   0.003576
    11  Cl  -0.074782   0.005952
 Charge=             -1.0000 electrons
 Dipole moment (field-independent basis, Debye):
    X=              5.1642    Y=             -2.9815    Z=              0.0000  Tot=              5.9631
 N-N= 3.577851216828D+02 E-N=-5.217678420893D+02  KE=-1.578224586635D+02
 Symmetry A'   KE=-1.205682905024D+02
 Symmetry A"   KE=-3.725416816113D+01
 Symmetry A'   SP= 1.000000000000D+00
 Symmetry A"   SP= 1.026956297778D-14
 Calling FoFJK, ICntrl=      2127 FMM=F ISym2X=1 I1Cent= 0 IOpClX= 1 NMat=1 NMatS=1 NMatT=0.
 ***** Axes restored to original set *****
 -------------------------------------------------------------------
 Center     Atomic                   Forces (Hartrees/Bohr)
 Number     Number              X              Y              Z
 -------------------------------------------------------------------
      1        6          -0.017698774    0.014851903    0.000000000
      2        6           0.012655627    0.000136156    0.000000000
      3        6           0.008656242    0.005317327    0.000000000
      4        6           0.005832270    0.011230039    0.000000000
      5        6           0.005266319   -0.022494191   -0.000000000
      6        6          -0.016997869   -0.010439647    0.000000000
      7       17           0.026932558    0.016552424   -0.000000000
      8       17           0.023772911   -0.015515199   -0.000000000
      9       17          -0.028470399    0.016387519   -0.000000000
     10       17          -0.003104038    0.028211470   -0.000000000
     11       17           0.001759949   -0.032803875   -0.000000000
     12        1          -0.018604796   -0.011433925   -0.000000000
 -------------------------------------------------------------------
 Cartesian Forces:  Max     0.032803875 RMS     0.014078055

 GradGradGradGradGradGradGradGradGradGradGradGradGradGradGradGradGradGrad
 Berny optimization.
 FormGI is forming the generalized inverse of G from B-inverse, IUseBI=4.
 Internal  Forces:  Max     0.032839832 RMS     0.011878745
 Search for a local minimum.
 Step number   1 out of a maximum of   64
 All quantities printed in internal units (Hartrees-Bohrs-Radians)
 Mixed Optimization -- RFO/linear search
 Second derivative matrix not updated -- first step.
 ITU=  0
     Eigenvalues ---    0.02011   0.02011   0.02011   0.02011   0.02011
     Eigenvalues ---    0.02011   0.02011   0.02011   0.02011   0.06524
     Eigenvalues ---    0.16000   0.23485   0.25000   0.25000   0.25000
     Eigenvalues ---    0.25000   0.25000   0.25000   0.25000   0.29033
     Eigenvalues ---    0.29033   0.29033   0.29033   0.29034   0.41051
     Eigenvalues ---    0.41211   0.44656   0.44657   0.44657   0.44657
 RFO step:  Lambda=-2.59227731D-02 EMin= 2.01065826D-02
 Linear search not attempted -- first point.
 Maximum step size (   0.300) exceeded in Quadratic search.
    -- Step size scaled by   0.869
 Iteration  1 RMS(Cart)=  0.04885654 RMS(Int)=  0.00113383
 Iteration  2 RMS(Cart)=  0.00118562 RMS(Int)=  0.00000988
 Iteration  3 RMS(Cart)=  0.00000003 RMS(Int)=  0.00000988
 ClnCor:  largest displacement from symmetrization is 1.64D-09 for atom    12.
 Variable       Old X    -DE/DX   Delta X   Delta X   Delta X     New X
                                 (Linear)    (Quad)   (Total)
    R1        2.65676  -0.01066   0.00000  -0.01962  -0.01962   2.63715
    R2        2.65677  -0.01299   0.00000  -0.02312  -0.02313   2.63363
    R3        3.33635  -0.02829   0.00000  -0.07777  -0.07777   3.25858
    R4        2.65677  -0.02673   0.00000  -0.04996  -0.04994   2.60682
    R5        3.33634  -0.03284   0.00000  -0.09027  -0.09027   3.24608
    R6        2.65677  -0.02674   0.00000  -0.04996  -0.04995   2.60682
    R7        3.33633  -0.02184   0.00000  -0.20823  -0.20823   3.12810
    R8        2.65678  -0.01067   0.00000  -0.01962  -0.01962   2.63716
    R9        3.33633  -0.03284   0.00000  -0.09026  -0.09026   3.24607
   R10        2.65675  -0.01298   0.00000  -0.02310  -0.02312   2.63363
   R11        3.33632  -0.02829   0.00000  -0.07775  -0.07775   3.25858
   R12        3.33633  -0.03161   0.00000  -0.08689  -0.08689   3.24944
    A1        2.09439  -0.00396   0.00000  -0.01069  -0.01071   2.08369
    A2        2.09439   0.00586   0.00000   0.01758   0.01759   2.11198
    A3        2.09440  -0.00190   0.00000  -0.00689  -0.00688   2.08752
    A4        2.09439   0.00836   0.00000   0.02542   0.02544   2.11983
    A5        2.09440  -0.00275   0.00000  -0.00820  -0.00821   2.08619
    A6        2.09439  -0.00561   0.00000  -0.01722  -0.01723   2.07716
    A7        2.09440  -0.00608   0.00000  -0.02404  -0.02401   2.07039
    A8        2.09440   0.00304   0.00000   0.01202   0.01200   2.10640
    A9        2.09439   0.00304   0.00000   0.01202   0.01200   2.10640
   A10        2.09439   0.00836   0.00000   0.02543   0.02544   2.11983
   A11        2.09440  -0.00561   0.00000  -0.01723  -0.01723   2.07716
   A12        2.09440  -0.00275   0.00000  -0.00820  -0.00821   2.08619
   A13        2.09439  -0.00396   0.00000  -0.01069  -0.01071   2.08369
   A14        2.09439   0.00586   0.00000   0.01758   0.01759   2.11198
   A15        2.09440  -0.00190   0.00000  -0.00689  -0.00688   2.08752
   A16        2.09440  -0.00272   0.00000  -0.00543  -0.00546   2.08894
   A17        2.09439   0.00136   0.00000   0.00271   0.00273   2.09712
   A18        2.09439   0.00136   0.00000   0.00272   0.00273   2.09712
    D1        0.00000  -0.00000   0.00000  -0.00000   0.00000   0.00000
    D2        3.14159  -0.00000   0.00000  -0.00000   0.00000   3.14159
    D3        3.14159   0.00000   0.00000   0.00000   0.00000   3.14159
    D4        0.00000  -0.00000   0.00000  -0.00000   0.00000   0.00000
    D5        0.00000   0.00000   0.00000   0.00000   0.00000   0.00000
    D6        3.14159   0.00000   0.00000   0.00000   0.00000   3.14159
    D7        3.14159  -0.00000   0.00000  -0.00000   0.00000   3.14159
    D8        0.00000  -0.00000   0.00000  -0.00000   0.00000   0.00000
    D9        0.00000   0.00000   0.00000   0.00000   0.00000   0.00000
   D10        3.14159  -0.00000   0.00000  -0.00000   0.00000   3.14159
   D11        3.14159   0.00000   0.00000   0.00000   0.00000   3.14159
   D12        0.00000  -0.00000   0.00000  -0.00000   0.00000   0.00000
   D13        0.00000   0.00000   0.00000   0.00000   0.00000   0.00000
   D14        3.14159  -0.00000   0.00000  -0.00000   0.00000   3.14159
   D15        3.14159   0.00000   0.00000   0.00000   0.00000   3.14159
   D16        0.00000  -0.00000   0.00000  -0.00000   0.00000   0.00000
   D17        0.00000  -0.00000   0.00000  -0.00000   0.00000   0.00000
   D18        3.14159  -0.00000   0.00000  -0.00000   0.00000   3.14159
   D19        3.14159   0.00000   0.00000   0.00000   0.00000   3.14159
   D20        0.00000   0.00000   0.00000   0.00000   0.00000   0.00000
   D21        0.00000   0.00000   0.00000   0.00000   0.00000   0.00000
   D22        3.14159  -0.00000   0.00000  -0.00000   0.00000   3.14159
   D23        3.14159   0.00000   0.00000   0.00000   0.00000   3.14159
   D24        0.00000   0.00000   0.00000   0.00000   0.00000   0.00000
         Item               Value     Threshold  Converged?
 Maximum Force            0.032840     0.000450     NO 
 RMS     Force            0.011879     0.000300     NO 
 Maximum Displacement     0.176097     0.001800     NO 
 RMS     Displacement     0.049531     0.001200     NO 
 Predicted change in Energy=-1.390651D-02
 GradGradGradGradGradGradGradGradGradGradGradGradGradGradGradGradGradGrad

                          Input orientation:                          
 ---------------------------------------------------------------------
 Center     Atomic      Atomic             Coordinates (Angstroms)
 Number     Number       Type             X           Y           Z
 ---------------------------------------------------------------------
      1          6           0       -3.194008    0.194139    0.000000
      2          6           0       -1.995361    0.908784    0.000000
      3          6           0       -0.774418    0.266725    0.000000
      4          6           0       -0.753091   -1.112580    0.000000
      5          6           0       -1.932108   -1.859173    0.000000
      6          6           0       -3.159535   -1.199094    0.000000
      7         17           0       -4.624523   -2.099425    0.000000
      8         17           0       -4.713862    1.008686    0.000000
      9         17           0        0.761800   -1.922372    0.000000
     10         17           0       -1.891905   -3.583069    0.000000
     11         17           0       -2.033552    2.626109    0.000000
     12          1           0        0.635864    1.133439    0.000000
 ---------------------------------------------------------------------
                    Distance matrix (angstroms):
                    1          2          3          4          5
     1  C    0.000000
     2  C    1.395518   0.000000
     3  C    2.420678   1.379472   0.000000
     4  C    2.768680   2.372582   1.379469   0.000000
     5  C    2.410079   2.768680   2.420679   1.395522   0.000000
     6  C    1.393659   2.407997   2.799537   2.407999   1.393658
     7  Cl   2.703112   3.995224   4.519068   3.995229   2.703113
     8  Cl   1.724368   2.720336   4.008706   4.493048   3.995344
     9  Cl   4.486427   3.951883   2.674343   1.717747   2.694649
    10  Cl   3.995344   4.493044   4.008701   2.720333   1.724365
    11  Cl   2.694649   1.717750   2.674343   3.951883   4.486429
    12  H    3.943374   2.640798   1.655321   2.640795   3.943375
                    6          7          8          9         10
     6  C    0.000000
     7  Cl   1.719531   0.000000
     8  Cl   2.700042   3.109395   0.000000
     9  Cl   3.987480   5.389232   6.210795   0.000000
    10  Cl   2.700042   3.109406   5.389588   3.130505   0.000000
    11  Cl   3.987482   5.389231   3.130514   5.338789   6.210793
    12  H    4.454858   6.174389   5.351180   3.058405   5.351174
                   11         12
    11  Cl   0.000000
    12  H    3.058405   0.000000
 Stoichiometry    C6HCl5(1-,2)
 Framework group  CS[SG(C6HCl5)]
 Deg. of freedom    21
 Full point group                 CS      NOp   2
 Largest Abelian subgroup         CS      NOp   2
 Largest concise Abelian subgroup C1      NOp   1
                         Standard orientation:                         
 ---------------------------------------------------------------------
 Center     Atomic      Atomic             Coordinates (Angstroms)
 Number     Number       Type             X           Y           Z
 ---------------------------------------------------------------------
      1          6           0       -1.205039   -0.288079   -0.000000
      2          6           0       -1.186290    1.107313   -0.000000
      3          6           0        0.000002    1.811340    0.000000
      4          6           0        1.186292    1.107315    0.000000
      5          6           0        1.205040   -0.288082    0.000000
      6          6           0       -0.000000   -0.988197   -0.000000
      7         17           0       -0.000004   -2.707728   -0.000000
      8         17           0       -2.694794   -1.156455   -0.000000
      9         17           0        2.669396    1.973952    0.000000
     10         17           0        2.694794   -1.156450    0.000000
     11         17           0       -2.669393    1.973956   -0.000000
     12          1           0        0.000003    3.466661    0.000000
 ---------------------------------------------------------------------
 Rotational constants (GHZ):           0.7048820           0.4701811           0.2820463
 Standard basis: VSTO-6G (5D, 7F)
 There are    34 symmetry adapted cartesian basis functions of A'  symmetry.
 There are    11 symmetry adapted cartesian basis functions of A"  symmetry.
 There are    34 symmetry adapted basis functions of A'  symmetry.
 There are    11 symmetry adapted basis functions of A"  symmetry.
    45 basis functions,   270 primitive gaussians,    45 cartesian basis functions
    31 alpha electrons       30 beta electrons
       nuclear repulsion energy       362.1547553103 Hartrees.
 Integral buffers will be    131072 words long.
 Regular integral format.
 Two-electron integral symmetry is turned off.
 Do NDO integrals.
 One-electron integrals computed using PRISM.
 NBasis=    45 RedAO= T EigKep=  1.00D+00  NBF=    34    11
 NBsUse=    45 1.00D-06 EigRej= -1.00D+00 NBFU=    34    11
 Initial guess from the checkpoint file:  "geometry_chks/12345ClBzAnionRadical.chk"
 B after Tr=     0.000000    0.000000    0.000000
         Rot=    0.866025    0.000000    0.000000    0.500000 Ang=  60.00 deg.
 Initial guess orbital symmetries:
 Alpha Orbitals:
       Occupied  (A') (A') (A') (A') (A') (A') (A') (A') (A') (A')
                 (A') (A') (A') (A') (A") (A') (A") (A') (A") (A")
                 (A') (A") (A') (A') (A') (A') (A") (A') (A") (A")
                 (A')
       Virtual   (A") (A") (A') (A') (A') (A') (A') (A") (A') (A')
                 (A') (A') (A') (A')
 Beta  Orbitals:
       Occupied  (A') (A') (A') (A') (A') (A') (A') (A') (A') (A')
                 (A') (A') (A') (A') (A") (A') (A") (A') (A") (A")
                 (A') (A") (A') (A') (A') (A') (A") (A") (A") (A')
       Virtual   (A") (A') (A") (A') (A') (A') (A') (A") (A') (A')
                 (A') (A') (A') (A') (A')
 Initial guess <Sx>= 0.0000 <Sy>= 0.0000 <Sz>= 0.5000 <S**2>= 0.8660 S= 0.5564
 Keep J ints in memory in canonical form, NReq=865560.
 Overlap will be assumed to be unity.
 Requested convergence on RMS density matrix=1.00D-08 within  32 cycles.
 Requested convergence on MAX density matrix=1.00D-06.
 Requested convergence on             energy=1.00D-06.
 No special actions if energy rises.
 Fock symm off for IB=2 I1=    1 I=   35 J=    2 Cut=1.00D-07 Err=1.69D-03
 Fock matrix is not symmetric: symmetry in diagonalization turned off.
 SCF Done:  E(UAM1) =  0.557881734455E-01 A.U. after   21 cycles
            NFock= 20  Conv=0.42D-08     -V/T= 1.0004
 <Sx>= 0.0000 <Sy>= 0.0000 <Sz>= 0.5000 <S**2>= 0.8477 S= 0.5477
 <L.S>=  0.00000000000    
 Annihilation of the first spin contaminant:
 S**2 before annihilation     0.8477,   after     0.7568
 QCSCF skips out because SCF is already converged.
 Calling FoFJK, ICntrl=      2127 FMM=F ISym2X=1 I1Cent= 0 IOpClX= 1 NMat=1 NMatS=1 NMatT=0.
 ***** Axes restored to original set *****
 -------------------------------------------------------------------
 Center     Atomic                   Forces (Hartrees/Bohr)
 Number     Number              X              Y              Z
 -------------------------------------------------------------------
      1        6          -0.017205477    0.013006073   -0.000000000
      2        6           0.001722056    0.015048750    0.000000000
      3        6           0.025539327    0.015696727    0.000000000
      4        6           0.014200329   -0.005263214    0.000000000
      5        6           0.003834768   -0.021222265    0.000000000
      6        6          -0.016567243   -0.010181643    0.000000000
      7       17           0.005002846    0.003074160   -0.000000000
      8       17           0.005710365   -0.003456266   -0.000000000
      9       17          -0.002867521    0.001607129   -0.000000000
     10       17          -0.000504945    0.006654310   -0.000000000
     11       17           0.000138359   -0.003285227   -0.000000000
     12        1          -0.019002861   -0.011678533   -0.000000000
 -------------------------------------------------------------------
 Cartesian Forces:  Max     0.025539327 RMS     0.009586627

 GradGradGradGradGradGradGradGradGradGradGradGradGradGradGradGradGradGrad
 Berny optimization.
 Using GEDIIS/GDIIS optimizer.
 FormGI is forming the generalized inverse of G from B-inverse, IUseBI=4.
 Internal  Forces:  Max     0.022304638 RMS     0.005432274
 Search for a local minimum.
 Step number   2 out of a maximum of   64
 All quantities printed in internal units (Hartrees-Bohrs-Radians)
 Mixed Optimization -- RFO/linear search
 Update second derivatives using D2CorX and points    1    2
 DE= -1.39D-02 DEPred=-1.39D-02 R= 9.98D-01
 TightC=F SS=  1.41D+00  RLast= 3.00D-01 DXNew= 5.0454D-01 9.0000D-01
 Trust test= 9.98D-01 RLast= 3.00D-01 DXMaxT set to 5.05D-01
 ITU=  1  0
 Use linear search instead of GDIIS.
     Eigenvalues ---    0.02011   0.02011   0.02011   0.02011   0.02011
     Eigenvalues ---    0.02011   0.02011   0.02011   0.02011   0.04576
     Eigenvalues ---    0.16000   0.23767   0.24889   0.25000   0.25000
     Eigenvalues ---    0.25000   0.25000   0.25000   0.25014   0.26741
     Eigenvalues ---    0.29033   0.29033   0.29034   0.29299   0.40761
     Eigenvalues ---    0.41083   0.44608   0.44656   0.44657   0.71471
 RFO step:  Lambda=-1.03848991D-02 EMin= 2.01065799D-02
 Quartic linear search produced a step of  0.21997.
 Iteration  1 RMS(Cart)=  0.02788404 RMS(Int)=  0.02610938
 Iteration  2 RMS(Cart)=  0.02499751 RMS(Int)=  0.00000750
 Iteration  3 RMS(Cart)=  0.00000000 RMS(Int)=  0.00000750
 ClnCor:  largest displacement from symmetrization is 7.27D-09 for atom    12.
 Variable       Old X    -DE/DX   Delta X   Delta X   Delta X     New X
                                 (Linear)    (Quad)   (Total)
    R1        2.63715   0.01159  -0.00431   0.02686   0.02255   2.65969
    R2        2.63363   0.01496  -0.00509   0.03554   0.03046   2.66410
    R3        3.25858  -0.00667  -0.01711  -0.03631  -0.05341   3.20517
    R4        2.60682   0.01043  -0.01099   0.01886   0.00786   2.61469
    R5        3.24608  -0.00329  -0.01986  -0.02478  -0.04463   3.20144
    R6        2.60682   0.01043  -0.01099   0.01886   0.00787   2.61468
    R7        3.12810  -0.02230  -0.04580  -0.34606  -0.39186   2.73624
    R8        2.63716   0.01159  -0.00432   0.02685   0.02254   2.65969
    R9        3.24607  -0.00329  -0.01985  -0.02477  -0.04463   3.20145
   R10        2.63363   0.01496  -0.00509   0.03554   0.03047   2.66410
   R11        3.25858  -0.00666  -0.01710  -0.03630  -0.05340   3.20518
   R12        3.24944  -0.00587  -0.01911  -0.03441  -0.05353   3.19592
    A1        2.08369  -0.00124  -0.00236  -0.00617  -0.00851   2.07518
    A2        2.11198   0.00119   0.00387   0.00718   0.01104   2.12302
    A3        2.08752   0.00005  -0.00151  -0.00101  -0.00253   2.08498
    A4        2.11983  -0.00041   0.00560   0.00013   0.00572   2.12555
    A5        2.08619   0.00031  -0.00181   0.00098  -0.00082   2.08537
    A6        2.07716   0.00010  -0.00379  -0.00111  -0.00490   2.07227
    A7        2.07039   0.00267  -0.00528   0.00823   0.00293   2.07331
    A8        2.10640  -0.00133   0.00264  -0.00412  -0.00146   2.10494
    A9        2.10640  -0.00133   0.00264  -0.00411  -0.00146   2.10494
   A10        2.11983  -0.00041   0.00560   0.00014   0.00572   2.12555
   A11        2.07716   0.00010  -0.00379  -0.00111  -0.00490   2.07227
   A12        2.08619   0.00031  -0.00181   0.00098  -0.00082   2.08537
   A13        2.08369  -0.00123  -0.00236  -0.00617  -0.00851   2.07518
   A14        2.11198   0.00119   0.00387   0.00719   0.01105   2.12303
   A15        2.08752   0.00005  -0.00151  -0.00102  -0.00254   2.08498
   A16        2.08894   0.00062  -0.00120   0.00383   0.00265   2.09160
   A17        2.09712  -0.00031   0.00060  -0.00191  -0.00133   2.09579
   A18        2.09712  -0.00031   0.00060  -0.00192  -0.00133   2.09579
    D1        0.00000   0.00000   0.00000   0.00000  -0.00000   0.00000
    D2        3.14159  -0.00000   0.00000  -0.00000   0.00000   3.14159
    D3        3.14159   0.00000   0.00000   0.00000   0.00000   3.14159
    D4       -0.00000  -0.00000   0.00000  -0.00000   0.00000   0.00000
    D5       -0.00000   0.00000   0.00000   0.00000   0.00000   0.00000
    D6        3.14159   0.00000   0.00000   0.00000   0.00000   3.14159
    D7        3.14159  -0.00000   0.00000  -0.00000   0.00000   3.14159
    D8        0.00000   0.00000   0.00000   0.00000   0.00000   0.00000
    D9       -0.00000  -0.00000   0.00000  -0.00000   0.00000   0.00000
   D10        3.14159  -0.00000   0.00000  -0.00000   0.00000   3.14159
   D11        3.14159   0.00000   0.00000   0.00000   0.00000   3.14159
   D12        0.00000  -0.00000   0.00000  -0.00000  -0.00000   0.00000
   D13        0.00000   0.00000   0.00000   0.00000  -0.00000   0.00000
   D14        3.14159  -0.00000   0.00000  -0.00000   0.00000   3.14159
   D15        3.14159   0.00000   0.00000   0.00000   0.00000   3.14159
   D16       -0.00000   0.00000   0.00000   0.00000   0.00000   0.00000
   D17       -0.00000  -0.00000   0.00000   0.00000   0.00000   0.00000
   D18        3.14159  -0.00000   0.00000  -0.00000   0.00000   3.14159
   D19        3.14159   0.00000   0.00000   0.00000   0.00000   3.14159
   D20        0.00000   0.00000   0.00000   0.00000   0.00000   0.00000
   D21        0.00000  -0.00000   0.00000  -0.00000  -0.00000   0.00000
   D22        3.14159  -0.00000   0.00000  -0.00000   0.00000   3.14159
   D23        3.14159   0.00000   0.00000   0.00000   0.00000   3.14159
   D24       -0.00000   0.00000   0.00000   0.00000   0.00000   0.00000
         Item               Value     Threshold  Converged?
 Maximum Force            0.022305     0.000450     NO 
 RMS     Force            0.005432     0.000300     NO 
 Maximum Displacement     0.299715     0.001800     NO 
 RMS     Displacement     0.051497     0.001200     NO 
 Predicted change in Energy=-6.942944D-03
 GradGradGradGradGradGradGradGradGradGradGradGradGradGradGradGradGradGrad

                          Input orientation:                          
 ---------------------------------------------------------------------
 Center     Atomic      Atomic             Coordinates (Angstroms)
 Number     Number       Type             X           Y           Z
 ---------------------------------------------------------------------
      1          6           0       -3.194074    0.211562    0.000000
      2          6           0       -1.980034    0.923616    0.000000
      3          6           0       -0.756352    0.277828   -0.000000
      4          6           0       -0.732938   -1.105605   -0.000000
      5          6           0       -1.916592   -1.867100   -0.000000
      6          6           0       -3.157331   -1.197738    0.000000
      7         17           0       -4.598185   -2.083242    0.000000
      8         17           0       -4.692098    1.006980    0.000000
      9         17           0        0.766176   -1.894744   -0.000000
     10         17           0       -1.883603   -3.562887   -0.000000
     11         17           0       -2.006930    2.617533    0.000000
     12          1           0        0.477261    1.035967   -0.000000
 ---------------------------------------------------------------------
                    Distance matrix (angstroms):
                    1          2          3          4          5
     1  C    0.000000
     2  C    1.407449   0.000000
     3  C    2.438622   1.383633   0.000000
     4  C    2.791436   2.381803   1.383632   0.000000
     5  C    2.439834   2.791437   2.438621   1.407449   0.000000
     6  C    1.409779   2.426143   2.818155   2.426143   1.409779
     7  Cl   2.690289   3.986967   4.509360   3.986967   2.690289
     8  Cl   1.696104   2.713345   4.002719   4.487534   3.995468
     9  Cl   4.485543   3.935076   2.652954   1.694132   2.682910
    10  Cl   3.995472   4.487539   4.002722   2.713349   1.696108
    11  Cl   2.682911   1.694131   2.652954   3.935075   4.485543
    12  H    3.762758   2.459863   1.447956   2.459861   3.762756
                    6          7          8          9         10
     6  C    0.000000
     7  Cl   1.691206   0.000000
     8  Cl   2.686316   3.091649   0.000000
     9  Cl   3.984937   5.367671   6.181647   0.000000
    10  Cl   2.686319   3.091650   5.363891   3.131138   0.000000
    11  Cl   3.984937   5.367671   3.131136   5.296297   6.181650
    12  H    4.266111   5.957317   5.169441   2.944918   5.169443
                   11         12
    11  Cl   0.000000
    12  H    2.944921   0.000000
 Stoichiometry    C6HCl5(1-,2)
 Framework group  CS[SG(C6HCl5)]
 Deg. of freedom    21
 Full point group                 CS      NOp   2
 Largest Abelian subgroup         CS      NOp   2
 Largest concise Abelian subgroup C1      NOp   1
                         Standard orientation:                         
 ---------------------------------------------------------------------
 Center     Atomic      Atomic             Coordinates (Angstroms)
 Number     Number       Type             X           Y           Z
 ---------------------------------------------------------------------
      1          6           0        0.295892   -1.219918    0.000000
      2          6           0       -1.111258   -1.190902    0.000000
      3          6           0       -1.815666   -0.000000    0.000000
      4          6           0       -1.111258    1.190901    0.000000
      5          6           0        0.295892    1.219917    0.000000
      6          6           0        1.002489   -0.000001    0.000000
      7         17           0        2.693694   -0.000000    0.000000
      8         17           0        1.155686   -2.681944    0.000000
      9         17           0       -1.975267    2.648148    0.000000
     10         17           0        1.155688    2.681946    0.000000
     11         17           0       -1.975268   -2.648149    0.000000
     12          1           0       -3.263622    0.000001    0.000000
 ---------------------------------------------------------------------
 Rotational constants (GHZ):           0.7077765           0.4753125           0.2843531
 Standard basis: VSTO-6G (5D, 7F)
 There are    34 symmetry adapted cartesian basis functions of A'  symmetry.
 There are    11 symmetry adapted cartesian basis functions of A"  symmetry.
 There are    34 symmetry adapted basis functions of A'  symmetry.
 There are    11 symmetry adapted basis functions of A"  symmetry.
    45 basis functions,   270 primitive gaussians,    45 cartesian basis functions
    31 alpha electrons       30 beta electrons
       nuclear repulsion energy       363.2194992683 Hartrees.
 Integral buffers will be    131072 words long.
 Regular integral format.
 Two-electron integral symmetry is turned off.
 Do NDO integrals.
 One-electron integrals computed using PRISM.
 NBasis=    45 RedAO= T EigKep=  1.00D+00  NBF=    34    11
 NBsUse=    45 1.00D-06 EigRej= -1.00D+00 NBFU=    34    11
 Initial guess from the checkpoint file:  "geometry_chks/12345ClBzAnionRadical.chk"
 B after Tr=     0.000000    0.000000   -0.000000
         Rot=    0.707107   -0.000000   -0.000000   -0.707107 Ang= -90.00 deg.
 Initial guess orbital symmetries:
 Alpha Orbitals:
       Occupied  (A') (A') (A') (A') (A') (A') (A') (A') (A') (A')
                 (A') (A') (A') (A') (A") (A') (A") (A') (A") (A")
                 (A') (A") (A') (A') (A') (A') (A") (A') (A") (A")
                 (A')
       Virtual   (A") (A") (A') (A') (A') (A') (A') (A") (A') (A')
                 (A') (A') (A') (A')
 Beta  Orbitals:
       Occupied  (A') (A') (A') (A') (A') (A') (A') (A') (A') (A')
                 (A') (A') (A') (A') (A") (A') (A") (A') (A") (A")
                 (A") (A') (A') (A') (A') (A') (A") (A") (A") (A')
       Virtual   (A") (A') (A") (A') (A') (A') (A') (A") (A') (A')
                 (A') (A') (A') (A') (A')
 Initial guess <Sx>= 0.0000 <Sy>= 0.0000 <Sz>= 0.5000 <S**2>= 0.8477 S= 0.5477
 Keep J ints in memory in canonical form, NReq=865560.
 Overlap will be assumed to be unity.
 Requested convergence on RMS density matrix=1.00D-08 within  32 cycles.
 Requested convergence on MAX density matrix=1.00D-06.
 Requested convergence on             energy=1.00D-06.
 No special actions if energy rises.
 Fock symm off for IB=2 I1=    1 I=   35 J=    4 Cut=1.00D-07 Err=1.17D-03
 Fock matrix is not symmetric: symmetry in diagonalization turned off.
 SCF Done:  E(UAM1) =  0.473678731300E-01 A.U. after   29 cycles
            NFock= 28  Conv=0.84D-08     -V/T= 1.0003
 <Sx>= 0.0000 <Sy>= 0.0000 <Sz>= 0.5000 <S**2>= 1.0031 S= 0.6194
 <L.S>=  0.00000000000    
 Annihilation of the first spin contaminant:
 S**2 before annihilation     1.0031,   after     0.7999
 QCSCF skips out because SCF is already converged.
 Calling FoFJK, ICntrl=      2127 FMM=F ISym2X=1 I1Cent= 0 IOpClX= 1 NMat=1 NMatS=1 NMatT=0.
 ***** Axes restored to original set *****
 -------------------------------------------------------------------
 Center     Atomic                   Forces (Hartrees/Bohr)
 Number     Number              X              Y              Z
 -------------------------------------------------------------------
      1        6           0.007914193   -0.004795414    0.000000000
      2        6           0.000099248   -0.007966367    0.000000000
      3        6           0.014025093    0.008620241    0.000000000
      4        6          -0.007062370    0.003685590    0.000000000
      5        6          -0.000704022    0.009225436   -0.000000000
      6        6           0.008358779    0.005136135    0.000000000
      7       17          -0.007604598   -0.004673559   -0.000000000
      8       17          -0.007540367    0.004606312   -0.000000000
      9       17           0.010989344   -0.006721770   -0.000000000
     10       17           0.000703562   -0.008805667   -0.000000000
     11       17          -0.001033097    0.012840790   -0.000000000
     12        1          -0.018145766   -0.011151726   -0.000000000
 -------------------------------------------------------------------
 Cartesian Forces:  Max     0.018145766 RMS     0.006844994

 GradGradGradGradGradGradGradGradGradGradGradGradGradGradGradGradGradGrad
 Berny optimization.
 Using GEDIIS/GDIIS optimizer.
 FormGI is forming the generalized inverse of G from B-inverse, IUseBI=4.
 Internal  Forces:  Max     0.021298587 RMS     0.004455894
 Search for a local minimum.
 Step number   3 out of a maximum of   64
 All quantities printed in internal units (Hartrees-Bohrs-Radians)
 Mixed Optimization -- RFO/linear search
 Update second derivatives using D2CorX and points    2    3
 DE= -8.42D-03 DEPred=-6.94D-03 R= 1.21D+00
 TightC=F SS=  1.41D+00  RLast= 4.12D-01 DXNew= 8.4853D-01 1.2356D+00
 Trust test= 1.21D+00 RLast= 4.12D-01 DXMaxT set to 8.49D-01
 ITU=  1  1  0
 Use linear search instead of GDIIS.
     Eigenvalues ---    0.01498   0.02011   0.02011   0.02011   0.02011
     Eigenvalues ---    0.02011   0.02011   0.02011   0.02011   0.02011
     Eigenvalues ---    0.16000   0.23729   0.24967   0.25000   0.25000
     Eigenvalues ---    0.25000   0.25000   0.25003   0.25064   0.28925
     Eigenvalues ---    0.29033   0.29033   0.29051   0.40492   0.41135
     Eigenvalues ---    0.44338   0.44656   0.44657   0.52202   0.71481
 RFO step:  Lambda=-3.01413087D-02 EMin= 1.49780149D-02
 Quartic linear search produced a step of  2.00000.
 Iteration  1 RMS(Cart)=  0.03154946 RMS(Int)=  0.14564264
 Iteration  2 RMS(Cart)=  0.02608104 RMS(Int)=  0.11842607
 Iteration  3 RMS(Cart)=  0.02605787 RMS(Int)=  0.09120952
 Iteration  4 RMS(Cart)=  0.02605787 RMS(Int)=  0.06399297
 Iteration  5 RMS(Cart)=  0.02605787 RMS(Int)=  0.03677642
 Iteration  6 RMS(Cart)=  0.02605787 RMS(Int)=  0.00955988
 Iteration  7 RMS(Cart)=  0.00915287 RMS(Int)=  0.00002144
 Iteration  8 RMS(Cart)=  0.00000001 RMS(Int)=  0.00002144
 ClnCor:  largest displacement from symmetrization is 1.17D-08 for atom     8.
 Variable       Old X    -DE/DX   Delta X   Delta X   Delta X     New X
                                 (Linear)    (Quad)   (Total)
    R1        2.65969  -0.00069   0.04509  -0.02437   0.02072   2.68042
    R2        2.66410   0.00063   0.06092  -0.02416   0.03680   2.70089
    R3        3.20517   0.00882  -0.10682   0.04437  -0.06246   3.14272
    R4        2.61469   0.00161   0.01573  -0.02246  -0.00676   2.60792
    R5        3.20144   0.01286  -0.08927   0.06083  -0.02843   3.17301
    R6        2.61468   0.00162   0.01573  -0.02245  -0.00676   2.60793
    R7        2.73624  -0.02130  -0.78373  -0.48652  -1.27025   1.46599
    R8        2.65969  -0.00069   0.04507  -0.02437   0.02071   2.68040
    R9        3.20145   0.01286  -0.08925   0.06083  -0.02842   3.17302
   R10        2.66410   0.00062   0.06093  -0.02416   0.03681   2.70090
   R11        3.20518   0.00882  -0.10680   0.04435  -0.06244   3.14274
   R12        3.19592   0.00893  -0.10706   0.04063  -0.06643   3.12949
    A1        2.07518   0.00022  -0.01702  -0.00008  -0.01706   2.05811
    A2        2.12302  -0.00096   0.02209  -0.00346   0.01861   2.14163
    A3        2.08498   0.00074  -0.00507   0.00354  -0.00154   2.08344
    A4        2.12555  -0.00244   0.01144  -0.00936   0.00205   2.12760
    A5        2.08537  -0.00011  -0.00165  -0.00405  -0.00568   2.07968
    A6        2.07227   0.00255  -0.00979   0.01341   0.00364   2.07590
    A7        2.07331   0.00324   0.00585   0.01367   0.01946   2.09277
    A8        2.10494  -0.00162  -0.00293  -0.00684  -0.00973   2.09521
    A9        2.10494  -0.00162  -0.00292  -0.00684  -0.00973   2.09521
   A10        2.12555  -0.00244   0.01144  -0.00936   0.00205   2.12760
   A11        2.07227   0.00255  -0.00980   0.01341   0.00363   2.07590
   A12        2.08537  -0.00011  -0.00164  -0.00405  -0.00568   2.07969
   A13        2.07518   0.00022  -0.01702  -0.00008  -0.01706   2.05811
   A14        2.12303  -0.00096   0.02210  -0.00346   0.01862   2.14164
   A15        2.08498   0.00074  -0.00508   0.00354  -0.00155   2.08343
   A16        2.09160   0.00120   0.00531   0.00520   0.01057   2.10217
   A17        2.09579  -0.00060  -0.00265  -0.00260  -0.00529   2.09051
   A18        2.09579  -0.00060  -0.00266  -0.00260  -0.00529   2.09051
    D1        0.00000  -0.00000   0.00000  -0.00000   0.00000   0.00000
    D2        3.14159  -0.00000   0.00000  -0.00000   0.00000   3.14159
    D3        3.14159   0.00000   0.00000   0.00000   0.00000   3.14159
    D4        0.00000  -0.00000   0.00000  -0.00000   0.00000   0.00000
    D5        0.00000  -0.00000   0.00000  -0.00000   0.00000   0.00000
    D6        3.14159   0.00000   0.00000   0.00000   0.00000   3.14159
    D7        3.14159  -0.00000   0.00000  -0.00000   0.00000   3.14159
    D8        0.00000  -0.00000   0.00000  -0.00000   0.00000   0.00000
    D9        0.00000  -0.00000   0.00000   0.00000   0.00000   0.00000
   D10        3.14159  -0.00000   0.00000  -0.00000   0.00000   3.14159
   D11        3.14159   0.00000   0.00000   0.00000   0.00000   3.14159
   D12        0.00000   0.00000   0.00000   0.00000   0.00000   0.00000
   D13        0.00000   0.00000   0.00000  -0.00000   0.00000   0.00000
   D14        3.14159  -0.00000   0.00000  -0.00000   0.00000   3.14159
   D15        3.14159   0.00000   0.00000   0.00000   0.00000   3.14159
   D16        0.00000   0.00000   0.00000   0.00000   0.00000   0.00000
   D17        0.00000  -0.00000   0.00000  -0.00000   0.00000   0.00000
   D18        3.14159  -0.00000   0.00000  -0.00000   0.00000   3.14159
   D19        3.14159   0.00000   0.00000  -0.00000   0.00000   3.14159
   D20        0.00000  -0.00000   0.00000  -0.00000   0.00000   0.00000
   D21        0.00000   0.00000   0.00000   0.00000   0.00000   0.00000
   D22        3.14159  -0.00000   0.00000  -0.00000   0.00000   3.14159
   D23        3.14159   0.00000   0.00000   0.00000   0.00000   3.14159
   D24        0.00000  -0.00000   0.00000  -0.00000   0.00000   0.00000
         Item               Value     Threshold  Converged?
 Maximum Force            0.021299     0.000450     NO 
 RMS     Force            0.004456     0.000300     NO 
 Maximum Displacement     1.007579     0.001800     NO 
 RMS     Displacement     0.168616     0.001200     NO 
 Predicted change in Energy=-1.209005D-02
 GradGradGradGradGradGradGradGradGradGradGradGradGradGradGradGradGradGrad

                          Input orientation:                          
 ---------------------------------------------------------------------
 Center     Atomic      Atomic             Coordinates (Angstroms)
 Number     Number       Type             X           Y           Z
 ---------------------------------------------------------------------
      1          6           0       -3.162914    0.254917   -0.000000
      2          6           0       -1.931050    0.958063   -0.000000
      3          6           0       -0.716857    0.302102   -0.000000
      4          6           0       -0.680083   -1.077464   -0.000000
      5          6           0       -1.863833   -1.858881   -0.000000
      6          6           0       -3.118109   -1.173632   -0.000000
      7         17           0       -4.529012   -2.040735   -0.000000
      8         17           0       -4.637042    1.024783   -0.000000
      9         17           0        0.810461   -1.850524   -0.000000
     10         17           0       -1.842859   -3.521813   -0.000000
     11         17           0       -1.947477    2.637068   -0.000000
     12          1           0       -0.055926    0.708288   -0.000000
 ---------------------------------------------------------------------
                    Distance matrix (angstroms):
                    1          2          3          4          5
     1  C    0.000000
     2  C    1.418415   0.000000
     3  C    2.446512   1.380054   0.000000
     4  C    2.817745   2.389202   1.380056   0.000000
     5  C    2.481079   2.817745   2.446508   1.418406   0.000000
     6  C    1.429252   2.439925   2.818475   2.439922   1.429256
     7  Cl   2.671375   3.967643   4.474529   3.967636   2.671376
     8  Cl   1.663053   2.706814   3.986241   4.480732   4.000775
     9  Cl   4.496731   3.924799   2.639412   1.679091   2.674307
    10  Cl   4.000779   4.480744   3.986252   2.706823   1.663065
    11  Cl   2.674309   1.679085   2.639411   3.924797   4.496727
    12  H    3.139891   1.891686   0.775769   1.891688   3.139886
                    6          7          8          9         10
     6  C    0.000000
     7  Cl   1.656054   0.000000
     8  Cl   2.672113   3.067421   0.000000
     9  Cl   3.986458   5.342860   6.159763   0.000000
    10  Cl   2.672119   3.067411   5.336571   3.135812   0.000000
    11  Cl   3.986454   5.342861   3.135797   5.267324   6.159770
    12  H    3.594244   5.250297   4.592035   2.701508   4.592046
                   11         12
    11  Cl   0.000000
    12  H    2.701509   0.000000
 Stoichiometry    C6HCl5(1-,2)
 Framework group  CS[SG(C6HCl5)]
 Deg. of freedom    21
 Full point group                 CS      NOp   2
 Largest Abelian subgroup         CS      NOp   2
 Largest concise Abelian subgroup C1      NOp   1
                         Standard orientation:                         
 ---------------------------------------------------------------------
 Center     Atomic      Atomic             Coordinates (Angstroms)
 Number     Number       Type             X           Y           Z
 ---------------------------------------------------------------------
      1          6           0       -1.240540   -0.300734    0.000000
      2          6           0       -1.194605    1.116938    0.000000
      3          6           0       -0.000005    1.807938    0.000000
      4          6           0        1.194597    1.116939    0.000000
      5          6           0        1.240539   -0.300723    0.000000
      6          6           0        0.000000   -1.010537    0.000000
      7         17           0        0.000009   -2.666591    0.000000
      8         17           0       -2.668283   -1.153550    0.000000
      9         17           0        2.633657    1.982070    0.000000
     10         17           0        2.668289   -1.153551    0.000000
     11         17           0       -2.633667    1.982056    0.000000
     12          1           0       -0.000006    2.583706    0.000000
 ---------------------------------------------------------------------
 Rotational constants (GHZ):           0.7150847           0.4793852           0.2869901
 Standard basis: VSTO-6G (5D, 7F)
 There are    34 symmetry adapted cartesian basis functions of A'  symmetry.
 There are    11 symmetry adapted cartesian basis functions of A"  symmetry.
 There are    34 symmetry adapted basis functions of A'  symmetry.
 There are    11 symmetry adapted basis functions of A"  symmetry.
    45 basis functions,   270 primitive gaussians,    45 cartesian basis functions
    31 alpha electrons       30 beta electrons
       nuclear repulsion energy       365.7183491299 Hartrees.



 Warning!  Cl atom    7 may be hypervalent but has no d functions.
 Warning!  Cl atom    8 may be hypervalent but has no d functions.
 Warning!  Cl atom   10 may be hypervalent but has no d functions.



 Integral buffers will be    131072 words long.
 Regular integral format.
 Two-electron integral symmetry is turned off.
 Do NDO integrals.
 One-electron integrals computed using PRISM.
 NBasis=    45 RedAO= T EigKep=  1.00D+00  NBF=    34    11
 NBsUse=    45 1.00D-06 EigRej= -1.00D+00 NBFU=    34    11
 Initial guess from the checkpoint file:  "geometry_chks/12345ClBzAnionRadical.chk"
 B after Tr=    -0.000000    0.000000    0.000000
         Rot=    0.707108    0.000000   -0.000000    0.707106 Ang=  90.00 deg.
 Initial guess orbital symmetries:
 Alpha Orbitals:
       Occupied  (A') (A') (A') (A') (A') (A') (A') (A') (A') (A')
                 (A') (A') (A') (A') (A") (A') (A") (A') (A") (A")
                 (A') (A") (A') (A') (A') (A') (A") (A') (A") (A")
                 (A')
       Virtual   (A") (A") (A') (A') (A') (A') (A') (A") (A') (A')
                 (A') (A') (A') (A')
 Beta  Orbitals:
       Occupied  (A') (A') (A') (A') (A') (A') (A') (A') (A') (A')
                 (A') (A') (A') (A') (A") (A') (A") (A') (A") (A")
                 (A") (A') (A') (A') (A') (A') (A") (A') (A") (A")
       Virtual   (A") (A") (A') (A') (A') (A') (A') (A") (A') (A')
                 (A') (A') (A') (A') (A')
 Initial guess <Sx>= 0.0000 <Sy>= 0.0000 <Sz>= 0.5000 <S**2>= 1.0031 S= 0.6194
 Keep J ints in memory in canonical form, NReq=865560.
 Overlap will be assumed to be unity.
 Requested convergence on RMS density matrix=1.00D-08 within  32 cycles.
 Requested convergence on MAX density matrix=1.00D-06.
 Requested convergence on             energy=1.00D-06.
 No special actions if energy rises.
 Fock symm off for IB=2 I1=    1 I=   35 J=   31 Cut=1.00D-07 Err=6.16D-03
 Fock matrix is not symmetric: symmetry in diagonalization turned off.
 Rare condition: small coef for last iteration:  0.000D+00
 Rare condition: small coef for last iteration:  0.000D+00
 Rare condition: small coef for last iteration:  0.000D+00
 Rare condition: small coef for last iteration:  0.000D+00
 Rare condition: small coef for last iteration:  0.000D+00
 Rare condition: small coef for last iteration:  0.000D+00
 Rare condition: small coef for last iteration:  0.000D+00
 Rare condition: small coef for last iteration:  0.000D+00
 Rare condition: small coef for last iteration:  0.000D+00
 Rare condition: small coef for last iteration:  0.000D+00
 >>>>>>>>>> Convergence criterion not met.
 SCF Done:  E(UAM1) =  0.118592764823     A.U. after   33 cycles
            NFock= 32  Conv=0.28D-03     -V/T= 1.0007
 <Sx>= 0.0000 <Sy>= 0.0000 <Sz>= 0.5000 <S**2>= 1.0268 S= 0.6300
 <L.S>=  0.00000000000    
 Annihilation of the first spin contaminant:
 S**2 before annihilation     1.0268,   after     0.8087
 Keep J ints in memory in canonical form, NReq=865960.
 LinEq1:  Iter=  0 NonCon=     1 RMS=3.02D-04 Max=8.12D-03 NDo=     1
 AX will form     1 AO Fock derivatives at one time.
 LinEq1:  Iter=  1 NonCon=     1 RMS=2.74D-05 Max=6.26D-04 NDo=     1
 LinEq1:  Iter=  2 NonCon=     1 RMS=1.26D-05 Max=1.86D-04 NDo=     1
 LinEq1:  Iter=  3 NonCon=     1 RMS=3.53D-06 Max=4.44D-05 NDo=     1
 LinEq1:  Iter=  4 NonCon=     1 RMS=6.91D-07 Max=8.11D-06 NDo=     1
 LinEq1:  Iter=  5 NonCon=     1 RMS=1.59D-07 Max=1.56D-06 NDo=     1
 LinEq1:  Iter=  6 NonCon=     1 RMS=4.09D-08 Max=3.66D-07 NDo=     1
 LinEq1:  Iter=  7 NonCon=     1 RMS=1.23D-08 Max=2.23D-07 NDo=     1
 LinEq1:  Iter=  8 NonCon=     1 RMS=3.78D-09 Max=3.32D-08 NDo=     1
 LinEq1:  Iter=  9 NonCon=     1 RMS=1.58D-09 Max=3.34D-08 NDo=     1
 LinEq1:  Iter= 10 NonCon=     0 RMS=5.08D-10 Max=4.08D-09 NDo=     1
 Linear equations converged to 2.973D-09 2.973D-08 after    10 iterations.
     Accept linear search using points  2 and  3.
 Gradient too large for Newton-Raphson -- use scaled steepest descent instead.
     Accept linear search using points  4 and  5.
 Gradient too large for Newton-Raphson -- use scaled steepest descent instead.
 Gradient too large for Newton-Raphson -- use scaled steepest descent instead.
     Accept linear search using points  1 and  2.
     Minimum is close to point  2 DX= -4.70D-02 DF= -1.57D-06 DXR=  3.03D-02 DFR=  1.88D-03 which will be used.
 Gradient too large for Newton-Raphson -- use scaled steepest descent instead.
     Accept linear search using points  1 and  2.
     Minimum is close to point  2 DX= -4.86D-02 DF= -7.49D-07 DXR=  3.13D-02 DFR=  1.97D-03 which will be used.
 LinEq1:  Iter=  0 NonCon=     1 RMS=6.18D-04 Max=1.08D-02 NDo=     1
 LinEq1:  Iter=  1 NonCon=     1 RMS=3.08D-04 Max=4.86D-03 NDo=     1
 LinEq1:  Iter=  2 NonCon=     1 RMS=5.59D-05 Max=1.25D-03 NDo=     1
 LinEq1:  Iter=  3 NonCon=     1 RMS=5.45D-06 Max=5.31D-05 NDo=     1
 LinEq1:  Iter=  4 NonCon=     1 RMS=1.49D-06 Max=2.10D-05 NDo=     1
 LinEq1:  Iter=  5 NonCon=     1 RMS=3.30D-07 Max=4.69D-06 NDo=     1
 LinEq1:  Iter=  6 NonCon=     1 RMS=8.05D-08 Max=1.46D-06 NDo=     1
 LinEq1:  Iter=  7 NonCon=     1 RMS=2.00D-08 Max=2.17D-07 NDo=     1
 LinEq1:  Iter=  8 NonCon=     1 RMS=4.31D-09 Max=3.93D-08 NDo=     1
 LinEq1:  Iter=  9 NonCon=     0 RMS=8.97D-10 Max=8.04D-09 NDo=     1
 Linear equations converged to 2.973D-09 2.973D-08 after     9 iterations.
 LinEq1:  Iter=  0 NonCon=     1 RMS=3.84D-04 Max=5.95D-03 NDo=     1
 LinEq1:  Iter=  1 NonCon=     1 RMS=1.72D-04 Max=2.77D-03 NDo=     1
 LinEq1:  Iter=  2 NonCon=     1 RMS=2.75D-05 Max=5.12D-04 NDo=     1
 LinEq1:  Iter=  3 NonCon=     1 RMS=3.70D-06 Max=2.90D-05 NDo=     1
 LinEq1:  Iter=  4 NonCon=     1 RMS=8.52D-07 Max=1.08D-05 NDo=     1
 LinEq1:  Iter=  5 NonCon=     1 RMS=2.18D-07 Max=2.86D-06 NDo=     1
 LinEq1:  Iter=  6 NonCon=     1 RMS=4.70D-08 Max=7.83D-07 NDo=     1
 LinEq1:  Iter=  7 NonCon=     1 RMS=1.12D-08 Max=1.41D-07 NDo=     1
 LinEq1:  Iter=  8 NonCon=     0 RMS=2.58D-09 Max=2.12D-08 NDo=     1
 Linear equations converged to 2.973D-09 2.973D-08 after     8 iterations.
     Accept linear search using points  1 and  2.
 LinEq1:  Iter=  0 NonCon=     1 RMS=4.39D-05 Max=8.34D-04 NDo=     1
 LinEq1:  Iter=  1 NonCon=     1 RMS=1.61D-05 Max=2.81D-04 NDo=     1
 LinEq1:  Iter=  2 NonCon=     1 RMS=2.40D-06 Max=2.84D-05 NDo=     1
 LinEq1:  Iter=  3 NonCon=     1 RMS=5.52D-07 Max=7.52D-06 NDo=     1
 LinEq1:  Iter=  4 NonCon=     1 RMS=1.18D-07 Max=1.11D-06 NDo=     1
 LinEq1:  Iter=  5 NonCon=     1 RMS=2.97D-08 Max=3.44D-07 NDo=     1
 LinEq1:  Iter=  6 NonCon=     1 RMS=6.39D-09 Max=9.95D-08 NDo=     1
 LinEq1:  Iter=  7 NonCon=     0 RMS=1.49D-09 Max=1.66D-08 NDo=     1
 Linear equations converged to 2.973D-09 2.973D-08 after     7 iterations.
     Minimum is close to point  2 DX=  6.99D-04 DF= -7.46D-13 DXR=  6.99D-04 DFR=  4.88D-07 which will be used.
 LinEq1:  Iter=  0 NonCon=     1 RMS=8.41D-07 Max=9.52D-06 NDo=     1
 LinEq1:  Iter=  1 NonCon=     1 RMS=2.82D-07 Max=4.60D-06 NDo=     1
 LinEq1:  Iter=  2 NonCon=     1 RMS=6.00D-08 Max=6.02D-07 NDo=     1
 LinEq1:  Iter=  3 NonCon=     1 RMS=1.49D-08 Max=1.64D-07 NDo=     1
 LinEq1:  Iter=  4 NonCon=     1 RMS=3.70D-09 Max=5.03D-08 NDo=     1
 LinEq1:  Iter=  5 NonCon=     1 RMS=8.02D-10 Max=9.52D-09 NDo=     1
 LinEq1:  Iter=  6 NonCon=     1 RMS=1.84D-10 Max=2.14D-09 NDo=     1
 LinEq1:  Iter=  7 NonCon=     0 RMS=4.41D-11 Max=5.26D-10 NDo=     1
 Linear equations converged to 1.636D-10 1.636D-09 after     7 iterations.
 LinEq1:  Iter=  0 NonCon=     1 RMS=2.04D-08 Max=2.43D-07 NDo=     1
 LinEq1:  Iter=  1 NonCon=     1 RMS=6.20D-09 Max=6.25D-08 NDo=     1
 LinEq1:  Iter=  2 NonCon=     1 RMS=1.28D-09 Max=1.34D-08 NDo=     1
 LinEq1:  Iter=  3 NonCon=     1 RMS=2.76D-10 Max=2.88D-09 NDo=     1
 LinEq1:  Iter=  4 NonCon=     1 RMS=7.81D-11 Max=1.03D-09 NDo=     1
 LinEq1:  Iter=  5 NonCon=     1 RMS=1.98D-11 Max=2.05D-10 NDo=     1
 LinEq1:  Iter=  6 NonCon=     1 RMS=4.67D-12 Max=7.05D-11 NDo=     1
 LinEq1:  Iter=  7 NonCon=     0 RMS=1.37D-12 Max=1.49D-11 NDo=     1
 Linear equations converged to 3.734D-12 3.734D-11 after     7 iterations.
 SCF Done:  E(UAM1) =  0.934441225819E-01 a.u. after   11 cycles
            Convg  =    0.1133D-07                    72 Fock formations.
              S**2 =  1.1092                  -V/T =  1.0006
 <Sx>= 0.0000 <Sy>= 0.0000 <Sz>= 0.5000 <S**2>= 1.1092 S= 0.6658
 <L.S>=  0.00000000000    
 Annihilation of the first spin contaminant:
 S**2 before annihilation     1.1092,   after     0.8523
 Calling FoFJK, ICntrl=      2127 FMM=F ISym2X=1 I1Cent= 0 IOpClX= 1 NMat=1 NMatS=1 NMatT=0.
 ***** Axes restored to original set *****
 -------------------------------------------------------------------
 Center     Atomic                   Forces (Hartrees/Bohr)
 Number     Number              X              Y              Z
 -------------------------------------------------------------------
      1        6           0.046259322   -0.023301236   -0.000000000
      2        6          -0.059844085   -0.006244008    0.000000000
      3        6          -0.331349977   -0.203636277    0.000000000
      4        6          -0.032594619   -0.050569558    0.000000000
      5        6           0.000098639    0.051787753    0.000000000
      6        6           0.051352090    0.031556991   -0.000000000
      7       17          -0.067306740   -0.041364523    0.000000000
      8       17          -0.015080048    0.013743473    0.000000000
      9       17           0.022921278   -0.009104984    0.000000000
     10       17           0.005450694   -0.019654517    0.000000000
     11       17           0.002230515    0.024564823    0.000000000
     12        1           0.377862930    0.232222063   -0.000000000
 -------------------------------------------------------------------
 Cartesian Forces:  Max     0.377862930 RMS     0.101720745

 GradGradGradGradGradGradGradGradGradGradGradGradGradGradGradGradGradGrad
 Berny optimization.
 Using GEDIIS/GDIIS optimizer.
 FormGI is forming the generalized inverse of G from B-inverse, IUseBI=4.
 Internal  Forces:  Max     0.443517171 RMS     0.062378664
 Search for a local minimum.
 Step number   4 out of a maximum of   64
 All quantities printed in internal units (Hartrees-Bohrs-Radians)
 Mixed Optimization -- RFO/linear search
 Update second derivatives using D2CorX and points    2    4    3
 DE=  4.61D-02 DEPred=-1.21D-02 R=-3.81D+00
 Trust test=-3.81D+00 RLast= 1.28D+00 DXMaxT set to 4.24D-01
 ITU= -1  1  1  0
 Use linear search instead of GDIIS.
     Eigenvalues ---    0.02011   0.02011   0.02011   0.02011   0.02011
     Eigenvalues ---    0.02011   0.02011   0.02011   0.02011   0.16000
     Eigenvalues ---    0.23552   0.24822   0.25000   0.25000   0.25000
     Eigenvalues ---    0.25000   0.25003   0.25058   0.27934   0.28934
     Eigenvalues ---    0.29033   0.29033   0.36990   0.41190   0.41219
     Eigenvalues ---    0.44656   0.44657   0.44753   0.51304   0.71884
 RFO step:  Lambda=-7.48574242D-03 EMin= 2.01065809D-02
 Quartic linear search produced a step of -0.40597.
 Iteration  1 RMS(Cart)=  0.04192367 RMS(Int)=  0.03906233
 Iteration  2 RMS(Cart)=  0.02607631 RMS(Int)=  0.01184545
 Iteration  3 RMS(Cart)=  0.01134114 RMS(Int)=  0.00000722
 Iteration  4 RMS(Cart)=  0.00000001 RMS(Int)=  0.00000722
 ClnCor:  largest displacement from symmetrization is 7.37D-09 for atom     3.
 Variable       Old X    -DE/DX   Delta X   Delta X   Delta X     New X
                                 (Linear)    (Quad)   (Total)
    R1        2.68042  -0.01272  -0.00841  -0.01199  -0.02040   2.66001
    R2        2.70089  -0.00234  -0.01494   0.00684  -0.00811   2.69279
    R3        3.14272   0.01973   0.02536  -0.00894   0.01642   3.15913
    R4        2.60792   0.03909   0.00275   0.04149   0.04424   2.65217
    R5        3.17301   0.02454   0.01154   0.02410   0.03565   3.20866
    R6        2.60793   0.03909   0.00274   0.04149   0.04424   2.65217
    R7        1.46599   0.44352   0.51568  -0.02869   0.48699   1.95298
    R8        2.68040  -0.01271  -0.00841  -0.01199  -0.02040   2.66000
    R9        3.17302   0.02454   0.01154   0.02410   0.03564   3.20866
   R10        2.70090  -0.00235  -0.01494   0.00684  -0.00811   2.69279
   R11        3.14274   0.01972   0.02535  -0.00894   0.01641   3.15915
   R12        3.12949   0.07900   0.02697   0.10494   0.13191   3.26140
    A1        2.05811   0.01697   0.00693   0.02171   0.02862   2.08674
    A2        2.14163  -0.01666  -0.00755  -0.02044  -0.02799   2.11364
    A3        2.08344  -0.00031   0.00063  -0.00127  -0.00063   2.08281
    A4        2.12760  -0.00357  -0.00083  -0.00094  -0.00176   2.12584
    A5        2.07968   0.00570   0.00231   0.00551   0.00781   2.08750
    A6        2.07590  -0.00214  -0.00148  -0.00457  -0.00605   2.06985
    A7        2.09277  -0.01647  -0.00790  -0.02062  -0.02850   2.06427
    A8        2.09521   0.00824   0.00395   0.01031   0.01425   2.10946
    A9        2.09521   0.00824   0.00395   0.01031   0.01425   2.10946
   A10        2.12760  -0.00357  -0.00083  -0.00094  -0.00176   2.12584
   A11        2.07590  -0.00213  -0.00147  -0.00457  -0.00605   2.06984
   A12        2.07969   0.00570   0.00231   0.00551   0.00781   2.08750
   A13        2.05811   0.01697   0.00693   0.02171   0.02862   2.08674
   A14        2.14164  -0.01666  -0.00756  -0.02044  -0.02799   2.11365
   A15        2.08343  -0.00031   0.00063  -0.00127  -0.00063   2.08280
   A16        2.10217  -0.01032  -0.00429  -0.02091  -0.02523   2.07694
   A17        2.09051   0.00516   0.00215   0.01046   0.01261   2.10312
   A18        2.09051   0.00516   0.00215   0.01046   0.01261   2.10312
    D1        0.00000   0.00000   0.00000  -0.00000   0.00000   0.00000
    D2        3.14159  -0.00000   0.00000  -0.00000   0.00000   3.14159
    D3        3.14159   0.00000   0.00000   0.00000   0.00000   3.14159
    D4        0.00000   0.00000   0.00000  -0.00000   0.00000   0.00000
    D5        0.00000   0.00000   0.00000   0.00000   0.00000   0.00000
    D6        3.14159   0.00000   0.00000   0.00000   0.00000   3.14159
    D7        3.14159   0.00000   0.00000  -0.00000   0.00000   3.14159
    D8        0.00000  -0.00000   0.00000   0.00000   0.00000   0.00000
    D9        0.00000  -0.00000   0.00000  -0.00000   0.00000   0.00000
   D10        3.14159  -0.00000   0.00000  -0.00000   0.00000   3.14159
   D11        3.14159  -0.00000   0.00000   0.00000   0.00000   3.14159
   D12        0.00000  -0.00000   0.00000  -0.00000   0.00000   0.00000
   D13        0.00000   0.00000   0.00000   0.00000   0.00000   0.00000
[...]
    D6        3.14159   0.00000   0.00000   0.00000   0.00000   3.14159
    D7        3.14159  -0.00000   0.00000  -0.00000   0.00000   3.14159
    D8        0.00000  -0.00000   0.00000   0.00000   0.00000   0.00000
    D9        0.00000  -0.00000   0.00000   0.00000   0.00000   0.00000
   D10        3.14159  -0.00000   0.00000  -0.00000   0.00000   3.14159
   D11        3.14159   0.00000   0.00000   0.00000   0.00000   3.14159
   D12        0.00000   0.00000   0.00000   0.00000   0.00000   0.00000
   D13        0.00000   0.00000   0.00000  -0.00000   0.00000   0.00000
   D14        3.14159  -0.00000   0.00000  -0.00000   0.00000   3.14159
   D15        3.14159   0.00000   0.00000   0.00000   0.00000   3.14159
   D16        0.00000   0.00000   0.00000  -0.00000   0.00000   0.00000
   D17        0.00000   0.00000   0.00000  -0.00000   0.00000   0.00000
   D18        3.14159  -0.00000   0.00000  -0.00000   0.00000   3.14159
   D19        3.14159   0.00000   0.00000   0.00000   0.00000   3.14159
   D20        0.00000   0.00000   0.00000  -0.00000   0.00000   0.00000
   D21        0.00000  -0.00000   0.00000   0.00000   0.00000   0.00000
   D22        3.14159  -0.00000   0.00000  -0.00000   0.00000   3.14159
   D23        3.14159   0.00000   0.00000   0.00000   0.00000   3.14159
   D24        0.00000   0.00000   0.00000  -0.00000   0.00000   0.00000
         Item               Value     Threshold  Converged?
 Maximum Force            0.000449     0.000450     YES
 RMS     Force            0.000079     0.000300     YES
 Maximum Displacement     0.000846     0.001800     YES
 RMS     Displacement     0.000246     0.001200     YES
 Predicted change in Energy=-4.745753D-07
 Optimization completed.
    -- Stationary point found.
                           ----------------------------
                           !   Optimized Parameters   !
                           ! (Angstroms and Degrees)  !
 --------------------------                            --------------------------
 ! Name  Definition              Value          Derivative Info.                !
 --------------------------------------------------------------------------------
 ! R1    R(1,2)                  1.4043         -DE/DX =    0.0001              !
 ! R2    R(1,6)                  1.4034         -DE/DX =   -0.0001              !
 ! R3    R(1,8)                  1.7012         -DE/DX =    0.0001              !
 ! R4    R(2,3)                  1.4004         -DE/DX =    0.0                 !
 ! R5    R(2,11)                 1.711          -DE/DX =    0.0001              !
 ! R6    R(3,4)                  1.4004         -DE/DX =    0.0                 !
 ! R7    R(3,12)                 1.0987         -DE/DX =   -0.0004              !
 ! R8    R(4,5)                  1.4043         -DE/DX =    0.0001              !
 ! R9    R(4,9)                  1.711          -DE/DX =    0.0001              !
 ! R10   R(5,6)                  1.4034         -DE/DX =   -0.0001              !
 ! R11   R(5,10)                 1.7012         -DE/DX =    0.0001              !
 ! R12   R(6,7)                  1.9024         -DE/DX =    0.0002              !
 ! A1    A(2,1,6)              120.6864         -DE/DX =    0.0                 !
 ! A2    A(2,1,8)              119.4196         -DE/DX =    0.0                 !
 ! A3    A(6,1,8)              119.894          -DE/DX =    0.0                 !
 ! A4    A(1,2,3)              120.4166         -DE/DX =    0.0                 !
 ! A5    A(1,2,11)             121.8903         -DE/DX =    0.0                 !
 ! A6    A(3,2,11)             117.6931         -DE/DX =    0.0                 !
 ! A7    A(2,3,4)              119.1365         -DE/DX =    0.0                 !
 ! A8    A(2,3,12)             120.4317         -DE/DX =    0.0                 !
 ! A9    A(4,3,12)             120.4317         -DE/DX =    0.0                 !
 ! A10   A(3,4,5)              120.4166         -DE/DX =    0.0                 !
 ! A11   A(3,4,9)              117.6931         -DE/DX =    0.0                 !
 ! A12   A(5,4,9)              121.8903         -DE/DX =    0.0                 !
 ! A13   A(4,5,6)              120.6864         -DE/DX =    0.0                 !
 ! A14   A(4,5,10)             119.4196         -DE/DX =    0.0                 !
 ! A15   A(6,5,10)             119.894          -DE/DX =    0.0                 !
 ! A16   A(1,6,5)              118.6575         -DE/DX =    0.0001              !
 ! A17   A(1,6,7)              120.6712         -DE/DX =    0.0                 !
 ! A18   A(5,6,7)              120.6712         -DE/DX =    0.0                 !
 ! D1    D(6,1,2,3)              0.0            -DE/DX =    0.0                 !
 ! D2    D(6,1,2,11)           180.0            -DE/DX =    0.0                 !
 ! D3    D(8,1,2,3)            180.0            -DE/DX =    0.0                 !
 ! D4    D(8,1,2,11)             0.0            -DE/DX =    0.0                 !
 ! D5    D(2,1,6,5)              0.0            -DE/DX =    0.0                 !
 ! D6    D(2,1,6,7)            180.0            -DE/DX =    0.0                 !
 ! D7    D(8,1,6,5)            180.0            -DE/DX =    0.0                 !
 ! D8    D(8,1,6,7)              0.0            -DE/DX =    0.0                 !
 ! D9    D(1,2,3,4)              0.0            -DE/DX =    0.0                 !
 ! D10   D(1,2,3,12)           180.0            -DE/DX =    0.0                 !
 ! D11   D(11,2,3,4)           180.0            -DE/DX =    0.0                 !
 ! D12   D(11,2,3,12)            0.0            -DE/DX =    0.0                 !
 ! D13   D(2,3,4,5)              0.0            -DE/DX =    0.0                 !
 ! D14   D(2,3,4,9)            180.0            -DE/DX =    0.0                 !
 ! D15   D(12,3,4,5)           180.0            -DE/DX =    0.0                 !
 ! D16   D(12,3,4,9)             0.0            -DE/DX =    0.0                 !
 ! D17   D(3,4,5,6)              0.0            -DE/DX =    0.0                 !
 ! D18   D(3,4,5,10)           180.0            -DE/DX =    0.0                 !
 ! D19   D(9,4,5,6)            180.0            -DE/DX =    0.0                 !
 ! D20   D(9,4,5,10)             0.0            -DE/DX =    0.0                 !
 ! D21   D(4,5,6,1)              0.0            -DE/DX =    0.0                 !
 ! D22   D(4,5,6,7)            180.0            -DE/DX =    0.0                 !
 ! D23   D(10,5,6,1)           180.0            -DE/DX =    0.0                 !
 ! D24   D(10,5,6,7)             0.0            -DE/DX =    0.0                 !
 --------------------------------------------------------------------------------
 GradGradGradGradGradGradGradGradGradGradGradGradGradGradGradGradGradGrad

                          Input orientation:                          
 ---------------------------------------------------------------------
 Center     Atomic      Atomic             Coordinates (Angstroms)
 Number     Number       Type             X           Y           Z
 ---------------------------------------------------------------------
      1          6           0       -3.154719    0.220699   -0.000000
      2          6           0       -1.958510    0.956287   -0.000000
      3          6           0       -0.721973    0.298956   -0.000000
      4          6           0       -0.694066   -1.101161   -0.000000
      5          6           0       -1.890664   -1.836117   -0.000000
      6          6           0       -3.132617   -1.182550   -0.000000
      7         17           0       -4.753384   -2.178623   -0.000000
      8         17           0       -4.642703    1.045219   -0.000000
      9         17           0        0.836514   -1.865992   -0.000000
     10         17           0       -1.827175   -3.536087   -0.000000
     11         17           0       -1.949505    2.667299   -0.000000
     12          1           0        0.214102    0.874239   -0.000000
 ---------------------------------------------------------------------
                    Distance matrix (angstroms):
                    1          2          3          4          5
     1  C    0.000000
     2  C    1.404281   0.000000
     3  C    2.434004   1.400395   0.000000
     4  C    2.793228   2.414935   1.400395   0.000000
     5  C    2.414192   2.793228   2.434004   1.404281   0.000000
     6  C    1.403423   2.439909   2.829500   2.439909   1.403423
     7  Cl   2.883137   4.199880   4.731879   4.199880   2.883137
     8  Cl   1.701155   2.685666   3.991119   4.494294   3.984446
     9  Cl   4.503800   3.972080   2.667561   1.711036   2.727342
    10  Cl   3.984446   4.494294   3.991119   2.685666   1.701155
    11  Cl   2.727342   1.711036   2.667561   3.972080   4.503800
    12  H    3.431627   2.174160   1.098720   2.174160   3.431627
                    6          7          8          9         10
     6  C    0.000000
     7  Cl   1.902380   0.000000
     8  Cl   2.691340   3.225741   0.000000
     9  Cl   4.027542   5.598634   6.204592   0.000000
    10  Cl   2.691340   3.225741   5.377319   3.143956   0.000000
    11  Cl   4.027542   5.598634   3.143956   5.320961   6.204592
    12  H    3.928220   5.830599   4.859813   2.810029   4.859813
                   11         12
    11  Cl   0.000000
    12  H    2.810029   0.000000
 Stoichiometry    C6HCl5(1-,2)
 Framework group  CS[SG(C6HCl5)]
 Deg. of freedom    21
 Full point group                 CS      NOp   2
 Largest Abelian subgroup         CS      NOp   2
 Largest concise Abelian subgroup C1      NOp   1
                         Standard orientation:                         
 ---------------------------------------------------------------------
 Center     Atomic      Atomic             Coordinates (Angstroms)
 Number     Number       Type             X           Y           Z
 ---------------------------------------------------------------------
      1          6           0       -0.278534    1.207096    0.000000
      2          6           0        1.125748    1.207467    0.000000
      3          6           0        1.835064   -0.000000    0.000000
      4          6           0        1.125748   -1.207467    0.000000
      5          6           0       -0.278534   -1.207096    0.000000
      6          6           0       -0.994436    0.000000    0.000000
      7         17           0       -2.896815   -0.000000    0.000000
      8         17           0       -1.114536    2.688659    0.000000
      9         17           0        2.029293   -2.660481    0.000000
     10         17           0       -1.114536   -2.688659    0.000000
     11         17           0        2.029293    2.660481    0.000000
     12          1           0        2.933784    0.000000    0.000000
 ---------------------------------------------------------------------
 Rotational constants (GHZ):           0.6636717           0.4720683           0.2758539

 **********************************************************************

            Population analysis using the SCF Density.

 **********************************************************************

 Orbital symmetries:
 Alpha Orbitals:
       Occupied  (A') (A') (A') (A') (A') (A') (A') (A') (A') (A')
                 (A') (A') (A') (A') (A") (A') (A") (A') (A') (A")
                 (A") (A') (A') (A') (A") (A') (A") (A") (A') (A")
                 (A')
       Virtual   (A") (A") (A') (A') (A') (A') (A") (A') (A') (A')
                 (A') (A') (A') (A')
 Beta  Orbitals:
       Occupied  (A') (A') (A') (A') (A') (A') (A') (A') (A') (A')
                 (A') (A') (A') (A') (A") (A') (A") (A') (A") (A')
                 (A") (A') (A') (A") (A') (A') (A") (A") (A') (A")
       Virtual   (A") (A") (A') (A') (A') (A') (A") (A') (A') (A')
                 (A') (A') (A') (A') (A')
 The electronic state is 2-A'.
 Alpha  occ. eigenvalues --   -1.32464  -1.27369  -1.25147  -1.24192  -1.21594
 Alpha  occ. eigenvalues --   -1.08829  -0.99816  -0.99655  -0.73194  -0.73167
 Alpha  occ. eigenvalues --   -0.54924  -0.50200  -0.49615  -0.44728  -0.43126
 Alpha  occ. eigenvalues --   -0.40089  -0.38497  -0.36638  -0.35450  -0.34985
 Alpha  occ. eigenvalues --   -0.33403  -0.31805  -0.31264  -0.29745  -0.28938
 Alpha  occ. eigenvalues --   -0.28749  -0.24009  -0.21557  -0.20334  -0.17934
 Alpha  occ. eigenvalues --   -0.08202
 Alpha virt. eigenvalues --    0.13696   0.14586   0.15448   0.16575   0.19197
 Alpha virt. eigenvalues --    0.20718   0.22871   0.26698   0.28302   0.29105
 Alpha virt. eigenvalues --    0.30114   0.30979   0.33039   0.33927
  Beta  occ. eigenvalues --   -1.32254  -1.27211  -1.25110  -1.24270  -1.21521
  Beta  occ. eigenvalues --   -1.05110  -0.99599  -0.98938  -0.73108  -0.71962
  Beta  occ. eigenvalues --   -0.54588  -0.49714  -0.49395  -0.44623  -0.42849
  Beta  occ. eigenvalues --   -0.39495  -0.38129  -0.36430  -0.35036  -0.34270
  Beta  occ. eigenvalues --   -0.33869  -0.31822  -0.30008  -0.29105  -0.28554
  Beta  occ. eigenvalues --   -0.27427  -0.23034  -0.21054  -0.19159  -0.18188
  Beta virt. eigenvalues --    0.13342   0.15937   0.16251   0.17600   0.18208
  Beta virt. eigenvalues --    0.20225   0.24464   0.25640   0.27560   0.28812
  Beta virt. eigenvalues --    0.30171   0.30196   0.31814   0.34221   0.35530
          Condensed to atoms (all electrons):
               1          2          3          4          5          6
     1  C    4.061746   0.000000   0.000000   0.000000   0.000000   0.000000
     2  C    0.000000   4.065274   0.000000   0.000000   0.000000   0.000000
     3  C    0.000000   0.000000   4.173263   0.000000   0.000000   0.000000
     4  C    0.000000   0.000000   0.000000   4.065274   0.000000   0.000000
     5  C    0.000000   0.000000   0.000000   0.000000   4.061747   0.000000
     6  C    0.000000   0.000000   0.000000   0.000000   0.000000   4.053412
     7  Cl   0.000000   0.000000   0.000000   0.000000   0.000000   0.000000
     8  Cl   0.000000   0.000000   0.000000   0.000000   0.000000   0.000000
     9  Cl   0.000000   0.000000   0.000000   0.000000   0.000000   0.000000
    10  Cl   0.000000   0.000000   0.000000   0.000000   0.000000   0.000000
    11  Cl   0.000000   0.000000   0.000000   0.000000   0.000000   0.000000
    12  H    0.000000   0.000000   0.000000   0.000000   0.000000   0.000000
               7          8          9         10         11         12
     1  C    0.000000   0.000000   0.000000   0.000000   0.000000   0.000000
     2  C    0.000000   0.000000   0.000000   0.000000   0.000000   0.000000
     3  C    0.000000   0.000000   0.000000   0.000000   0.000000   0.000000
     4  C    0.000000   0.000000   0.000000   0.000000   0.000000   0.000000
     5  C    0.000000   0.000000   0.000000   0.000000   0.000000   0.000000
     6  C    0.000000   0.000000   0.000000   0.000000   0.000000   0.000000
     7  Cl   7.462226   0.000000   0.000000   0.000000   0.000000   0.000000
     8  Cl   0.000000   7.027673   0.000000   0.000000   0.000000   0.000000
     9  Cl   0.000000   0.000000   7.068169   0.000000   0.000000   0.000000
    10  Cl   0.000000   0.000000   0.000000   7.027673   0.000000   0.000000
    11  Cl   0.000000   0.000000   0.000000   0.000000   7.068169   0.000000
    12  H    0.000000   0.000000   0.000000   0.000000   0.000000   0.865375
          Atomic-Atomic Spin Densities.
               1          2          3          4          5          6
     1  C   -0.355631   0.000000   0.000000   0.000000   0.000000   0.000000
     2  C    0.000000   0.377624   0.000000   0.000000   0.000000   0.000000
     3  C    0.000000   0.000000  -0.392748   0.000000   0.000000   0.000000
     4  C    0.000000   0.000000   0.000000   0.377624   0.000000   0.000000
     5  C    0.000000   0.000000   0.000000   0.000000  -0.355631   0.000000
     6  C    0.000000   0.000000   0.000000   0.000000   0.000000   0.826339
     7  Cl   0.000000   0.000000   0.000000   0.000000   0.000000   0.000000
     8  Cl   0.000000   0.000000   0.000000   0.000000   0.000000   0.000000
     9  Cl   0.000000   0.000000   0.000000   0.000000   0.000000   0.000000
    10  Cl   0.000000   0.000000   0.000000   0.000000   0.000000   0.000000
    11  Cl   0.000000   0.000000   0.000000   0.000000   0.000000   0.000000
    12  H    0.000000   0.000000   0.000000   0.000000   0.000000   0.000000
               7          8          9         10         11         12
     1  C    0.000000   0.000000   0.000000   0.000000   0.000000   0.000000
     2  C    0.000000   0.000000   0.000000   0.000000   0.000000   0.000000
     3  C    0.000000   0.000000   0.000000   0.000000   0.000000   0.000000
     4  C    0.000000   0.000000   0.000000   0.000000   0.000000   0.000000
     5  C    0.000000   0.000000   0.000000   0.000000   0.000000   0.000000
     6  C    0.000000   0.000000   0.000000   0.000000   0.000000   0.000000
     7  Cl   0.479889   0.000000   0.000000   0.000000   0.000000   0.000000
     8  Cl   0.000000   0.001153   0.000000   0.000000   0.000000   0.000000
     9  Cl   0.000000   0.000000   0.009314   0.000000   0.000000   0.000000
    10  Cl   0.000000   0.000000   0.000000   0.001153   0.000000   0.000000
    11  Cl   0.000000   0.000000   0.000000   0.000000   0.009314   0.000000
    12  H    0.000000   0.000000   0.000000   0.000000   0.000000   0.021600
 Mulliken charges and spin densities:
               1          2
     1  C   -0.061746  -0.355631
     2  C   -0.065274   0.377624
     3  C   -0.173263  -0.392748
     4  C   -0.065274   0.377624
     5  C   -0.061747  -0.355631
     6  C   -0.053412   0.826339
     7  Cl  -0.462226   0.479889
     8  Cl  -0.027673   0.001153
     9  Cl  -0.068169   0.009314
    10  Cl  -0.027673   0.001153
    11  Cl  -0.068169   0.009314
    12  H    0.134625   0.021600
 Sum of Mulliken charges =  -1.00000   1.00000
 Mulliken charges and spin densities with hydrogens summed into heavy atoms:
               1          2
     1  C   -0.061746  -0.355631
     2  C   -0.065274   0.377624
     3  C   -0.038638  -0.371147
     4  C   -0.065274   0.377624
     5  C   -0.061747  -0.355631
     6  C   -0.053412   0.826339
     7  Cl  -0.462226   0.479889
     8  Cl  -0.027673   0.001153
     9  Cl  -0.068169   0.009314
    10  Cl  -0.027673   0.001153
    11  Cl  -0.068169   0.009314
 Charge=             -1.0000 electrons
 Dipole moment (field-independent basis, Debye):
    X=              6.5799    Y=              0.0000    Z=              0.0000  Tot=              6.5799
 N-N= 3.605925921256D+02 E-N=-5.269886771356D+02  KE=-1.587188128311D+02
 Symmetry A'   KE=-1.215274190143D+02
 Symmetry A"   KE=-3.719139381679D+01
 Symmetry A'   SP= 1.000000000000D+00
 Symmetry A"   SP= 7.882583474839D-15
 1\1\GINC-SH02-02N41\FOpt\UAM1\ZDO\C6H1Cl5(1-,2)\JLAPIER\09-Dec-2025\0\
 \# opt am1 SCF=XQC\\5-Chloro-Benzene Anion Radical (12345)\\-1,2\C,-3.
 154718757,0.2206989283,0.\C,-1.9585096456,0.9562873123,0.\C,-0.7219729
 582,0.2989564523,0.\C,-0.6940662576,-1.1011606768,0.\C,-1.8906639592,-
 1.8361167563,0.\C,-3.1326171248,-1.1825502816,0.\Cl,-4.753384393,-2.17
 86233374,0.\Cl,-4.6427027248,1.045218649,0.\Cl,0.8365142539,-1.8659916
 615,0.\Cl,-1.8271752324,-3.5360868568,0.\Cl,-1.9495050556,2.6672993045
 ,0.\H,0.2141018523,0.8742389276,0.\\Version=ES64L-G16RevB.01\State=2-A
 '\HF=-0.0384062\S2=1.098011\S2-1=0.\S2A=0.846188\RMSD=6.582e-09\RMSF=1
 .434e-04\Dipole=2.2055125,1.3554394,0.\PG=CS [SG(C6H1Cl5)]\\@


 I FIND THAT THE THREE TRULY GREAT TIMES FOR THINKING THOUGHTS
 ARE WHEN I AM STANDING IN THE SHOWER, SITTING ON THE JOHN, OR WALKING.

                                    -- COLIN FLETCHER
 Job cpu time:       0 days  0 hours  0 minutes  9.9 seconds.
 Elapsed time:       0 days  0 hours  0 minutes 22.0 seconds.
 File lengths (MBytes):  RWF=     15 Int=      0 D2E=      0 Chk=      2 Scr=      1
 Normal termination of Gaussian 16 at Tue Dec  9 08:35:06 2025.
