 Entering Gaussian System, Link 0=g16
 Initial command:
 /share/software/user/restricted/gaussian/g16.B01/l1.exe "/home/users/jlapier/Chloroaromatics/Gau-23710.inp" -scrdir="/home/users/jlapier/Chloroaromatics/"
 Entering Link 1 = /share/software/user/restricted/gaussian/g16.B01/l1.exe PID=     23711.
  
 Copyright (c) 1988-2017, Gaussian, Inc.  All Rights Reserved.
  
 This is part of the Gaussian(R) 16 program.  It is based on
 the Gaussian(R) 09 system (copyright 2009, Gaussian, Inc.),
 the Gaussian(R) 03 system (copyright 2003, Gaussian, Inc.),
 the Gaussian(R) 98 system (copyright 1998, Gaussian, Inc.),
 the Gaussian(R) 94 system (copyright 1995, Gaussian, Inc.),
 the Gaussian 92(TM) system (copyright 1992, Gaussian, Inc.),
 the Gaussian 90(TM) system (copyright 1990, Gaussian, Inc.),
 the Gaussian 88(TM) system (copyright 1988, Gaussian, Inc.),
 the Gaussian 86(TM) system (copyright 1986, Carnegie Mellon
 University), and the Gaussian 82(TM) system (copyright 1983,
 Carnegie Mellon University). Gaussian is a federally registered
 trademark of Gaussian, Inc.
  
 This software contains proprietary and confidential information,
 including trade secrets, belonging to Gaussian, Inc.
  
 This software is provided under written license and may be
 used, copied, transmitted, or stored only in accord with that
 written license.
  
 The following legend is applicable only to US Government
 contracts under FAR:
  
                    RESTRICTED RIGHTS LEGEND
  
 Use, reproduction and disclosure by the US Government is
 subject to restrictions as set forth in subparagraphs (a)
 and (c) of the Commercial Computer Software - Restricted
 Rights clause in FAR 52.227-19.
  
 Gaussian, Inc.
 340 Quinnipiac St., Bldg. 40, Wallingford CT 06492
  
  
 ---------------------------------------------------------------
 Warning -- This program may not be used in any manner that
 competes with the business of Gaussian, Inc. or will provide
 assistance to any competitor of Gaussian, Inc.  The licensee
 of this program is prohibited from giving any competitor of
 Gaussian, Inc. access to this program.  By using this program,
 the user acknowledges that Gaussian, Inc. is engaged in the
 business of creating and licensing software in the field of
 computational chemistry and represents and warrants to the
 licensee that it is not a competitor of Gaussian, Inc. and that
 it will not use this program in any manner prohibited above.
 ---------------------------------------------------------------
  

 Cite this work as:
 Gaussian 16, Revision B.01,
 M. J. Frisch, G. W. Trucks, H. B. Schlegel, G. E. Scuseria, 
 M. A. Robb, J. R. Cheeseman, G. Scalmani, V. Barone, 
 G. A. Petersson, H. Nakatsuji, X. Li, M. Caricato, A. V. Marenich, 
 J. Bloino, B. G. Janesko, R. Gomperts, B. Mennucci, H. P. Hratchian, 
 J. V. Ortiz, A. F. Izmaylov, J. L. Sonnenberg, D. Williams-Young, 
 F. Ding, F. Lipparini, F. Egidi, J. Goings, B. Peng, A. Petrone, 
 T. Henderson, D. Ranasinghe, V. G. Zakrzewski, J. Gao, N. Rega, 
 G. Zheng, W. Liang, M. Hada, M. Ehara, K. Toyota, R. Fukuda, 
 J. Hasegawa, M. Ishida, T. Nakajima, Y. Honda, O. Kitao, H. Nakai, 
 T. Vreven, K. Throssell, J. A. Montgomery, Jr., J. E. Peralta, 
 F. Ogliaro, M. J. Bearpark, J. J. Heyd, E. N. Brothers, K. N. Kudin, 
 V. N. Staroverov, T. A. Keith, R. Kobayashi, J. Normand, 
 K. Raghavachari, A. P. Rendell, J. C. Burant, S. S. Iyengar, 
 J. Tomasi, M. Cossi, J. M. Millam, M. Klene, C. Adamo, R. Cammi, 
 J. W. Ochterski, R. L. Martin, K. Morokuma, O. Farkas, 
 J. B. Foresman, and D. J. Fox, Gaussian, Inc., Wallingford CT, 2016.
 
 ******************************************
 Gaussian 16:  ES64L-G16RevB.01 20-Dec-2017
                 9-Dec-2025 
 ******************************************
 %mem=2GB
 %nprocshare=1
 Will use up to    1 processors via shared memory.
 %chk=geometry_chks/1234ClBzAnionRadical.chk
 -----------------
 # opt am1 SCF=XQC
 -----------------
 1/18=20,19=15,26=1,38=1/1,3;
 2/9=110,12=2,17=6,18=5,40=1/2;
 3/5=2,25=1,41=700000,71=1/1,2,3;
 4/35=1/1;
 5/5=2,8=3,13=1,35=1,38=5/2,8;
 6/7=2,8=2,9=2,10=2,28=1/1;
 7//1,2,3,16;
 1/18=20,19=15,26=1/3(2);
 2/9=110/2;
 99//99;
 2/9=110/2;
 3/5=2,25=1,41=700000,71=1,135=20/1,2,3;
 4/5=5,16=3,35=1/1;
 5/5=2,8=3,13=1,35=1,38=5/2,8;
 7//1,2,3,16;
 1/18=20,19=15,26=1/3(-5);
 2/9=110/2;
 6/7=2,8=2,9=2,10=2,19=2,28=1/1;
 99/9=1/99;
 -------------------------------------
 4-Chloro-Benzene Anion Radical (1234)
 -------------------------------------
 Symbolic Z-matrix:
 Charge = -1 Multiplicity = 2
 C                    -3.20928   0.19943   0. 
 C                    -2.0115    0.93555   0. 
 C                    -0.77511   0.2663    0. 
 C                    -0.7365   -1.13907   0. 
 C                    -1.93429  -1.87519   0. 
 C                    -3.17067  -1.20594   0. 
 Cl                   -4.67483  -2.13035   0. 
 Cl                   -4.76193   1.03987   0. 
 Cl                   -2.05998   2.7004    0. 
 Cl                    0.72905   1.19071   0. 
 H                     0.81614  -1.97951   0. 
 H                    -1.8858   -3.64003   0. 
 
 Add virtual bond connecting atoms H12        and C5         Dist= 3.34D+00.
 Add virtual bond connecting atoms H11        and C4         Dist= 3.34D+00.

 GradGradGradGradGradGradGradGradGradGradGradGradGradGradGradGradGradGrad
 Berny optimization.
 Initialization pass.
                           ----------------------------
                           !    Initial Parameters    !
                           ! (Angstroms and Degrees)  !
 --------------------------                            --------------------------
 ! Name  Definition              Value          Derivative Info.                !
 --------------------------------------------------------------------------------
 ! R1    R(1,2)                  1.4059         estimate D2E/DX2                !
 ! R2    R(1,6)                  1.4059         estimate D2E/DX2                !
 ! R3    R(1,8)                  1.7655         estimate D2E/DX2                !
 ! R4    R(2,3)                  1.4059         estimate D2E/DX2                !
 ! R5    R(2,9)                  1.7655         estimate D2E/DX2                !
 ! R6    R(3,4)                  1.4059         estimate D2E/DX2                !
 ! R7    R(3,10)                 1.7655         estimate D2E/DX2                !
 ! R8    R(4,5)                  1.4059         estimate D2E/DX2                !
 ! R9    R(4,11)                 1.7655         estimate D2E/DX2                !
 ! R10   R(5,6)                  1.4059         estimate D2E/DX2                !
 ! R11   R(5,12)                 1.7655         estimate D2E/DX2                !
 ! R12   R(6,7)                  1.7655         estimate D2E/DX2                !
 ! A1    A(2,1,6)              119.9999         estimate D2E/DX2                !
 ! A2    A(2,1,8)              119.9999         estimate D2E/DX2                !
 ! A3    A(6,1,8)              120.0001         estimate D2E/DX2                !
 ! A4    A(1,2,3)              120.0            estimate D2E/DX2                !
 ! A5    A(1,2,9)              120.0001         estimate D2E/DX2                !
 ! A6    A(3,2,9)              119.9999         estimate D2E/DX2                !
 ! A7    A(2,3,4)              120.0001         estimate D2E/DX2                !
 ! A8    A(2,3,10)             120.0            estimate D2E/DX2                !
 ! A9    A(4,3,10)             119.9999         estimate D2E/DX2                !
 ! A10   A(3,4,5)              119.9997         estimate D2E/DX2                !
 ! A11   A(3,4,11)             120.0003         estimate D2E/DX2                !
 ! A12   A(5,4,11)             120.0            estimate D2E/DX2                !
 ! A13   A(4,5,6)              120.0            estimate D2E/DX2                !
 ! A14   A(4,5,12)             119.9996         estimate D2E/DX2                !
 ! A15   A(6,5,12)             120.0004         estimate D2E/DX2                !
 ! A16   A(1,6,5)              120.0003         estimate D2E/DX2                !
 ! A17   A(1,6,7)              119.9999         estimate D2E/DX2                !
 ! A18   A(5,6,7)              119.9998         estimate D2E/DX2                !
 ! D1    D(6,1,2,3)              0.0            estimate D2E/DX2                !
 ! D2    D(6,1,2,9)            180.0            estimate D2E/DX2                !
 ! D3    D(8,1,2,3)            180.0            estimate D2E/DX2                !
 ! D4    D(8,1,2,9)              0.0            estimate D2E/DX2                !
 ! D5    D(2,1,6,5)              0.0            estimate D2E/DX2                !
 ! D6    D(2,1,6,7)            180.0            estimate D2E/DX2                !
 ! D7    D(8,1,6,5)            180.0            estimate D2E/DX2                !
 ! D8    D(8,1,6,7)              0.0            estimate D2E/DX2                !
 ! D9    D(1,2,3,4)              0.0            estimate D2E/DX2                !
 ! D10   D(1,2,3,10)           180.0            estimate D2E/DX2                !
 ! D11   D(9,2,3,4)            180.0            estimate D2E/DX2                !
 ! D12   D(9,2,3,10)             0.0            estimate D2E/DX2                !
 ! D13   D(2,3,4,5)              0.0            estimate D2E/DX2                !
 ! D14   D(2,3,4,11)           180.0            estimate D2E/DX2                !
 ! D15   D(10,3,4,5)           180.0            estimate D2E/DX2                !
 ! D16   D(10,3,4,11)            0.0            estimate D2E/DX2                !
 ! D17   D(3,4,5,6)              0.0            estimate D2E/DX2                !
 ! D18   D(3,4,5,12)           180.0            estimate D2E/DX2                !
 ! D19   D(11,4,5,6)           180.0            estimate D2E/DX2                !
 ! D20   D(11,4,5,12)            0.0            estimate D2E/DX2                !
 ! D21   D(4,5,6,1)              0.0            estimate D2E/DX2                !
 ! D22   D(4,5,6,7)            180.0            estimate D2E/DX2                !
 ! D23   D(12,5,6,1)           180.0            estimate D2E/DX2                !
 ! D24   D(12,5,6,7)             0.0            estimate D2E/DX2                !
 --------------------------------------------------------------------------------
 Trust Radius=3.00D-01 FncErr=1.00D-07 GrdErr=1.00D-07 EigMax=2.50D+02 EigMin=1.00D-04
 Number of steps in this run=     64 maximum allowed number of steps=    100.
 GradGradGradGradGradGradGradGradGradGradGradGradGradGradGradGradGradGrad

                          Input orientation:                          
 ---------------------------------------------------------------------
 Center     Atomic      Atomic             Coordinates (Angstroms)
 Number     Number       Type             X           Y           Z
 ---------------------------------------------------------------------
      1          6           0       -3.209280    0.199430    0.000000
      2          6           0       -2.011500    0.935550    0.000000
      3          6           0       -0.775110    0.266300    0.000000
      4          6           0       -0.736500   -1.139070    0.000000
      5          6           0       -1.934290   -1.875190    0.000000
      6          6           0       -3.170670   -1.205940    0.000000
      7         17           0       -4.674830   -2.130350    0.000000
      8         17           0       -4.761930    1.039870    0.000000
      9         17           0       -2.059980    2.700400    0.000000
     10         17           0        0.729050    1.190710    0.000000
     11          1           0        0.816140   -1.979510    0.000000
     12          1           0       -1.885800   -3.640030    0.000000
 ---------------------------------------------------------------------
                    Distance matrix (angstroms):
                    1          2          3          4          5
     1  C    0.000000
     2  C    1.405898   0.000000
     3  C    2.435088   1.405900   0.000000
     4  C    2.811801   2.435092   1.405900   0.000000
     5  C    2.435087   2.811800   2.435093   1.405907   0.000000
     6  C    1.405900   2.435088   2.811796   2.435088   1.405892
     7  Cl   2.752401   4.061166   4.577308   4.061167   2.752393
     8  Cl   1.765520   2.752408   4.061175   4.577321   4.061173
     9  Cl   2.752406   1.765516   2.752405   4.061173   4.577316
    10  Cl   4.061167   2.752403   1.765512   2.752401   4.061173
    11  H    4.577312   4.061173   2.752406   1.765511   2.752408
    12  H    4.061164   4.577306   4.061163   2.752397   1.765506
                    6          7          8          9         10
     6  C    0.000000
     7  Cl   1.765512   0.000000
     8  Cl   2.752412   3.171416   0.000000
     9  Cl   4.061173   5.493049   3.171418   0.000000
    10  Cl   4.577308   6.342819   5.493051   3.171412   0.000000
    11  H    4.061165   5.493041   6.342832   5.493052   3.171416
    12  H    2.752396   3.171407   5.493049   6.342822   5.493040
                   11         12
    11  H    0.000000
    12  H    3.171404   0.000000
 Stoichiometry    C6H2Cl4(1-,2)
 Framework group  CS[SG(C6H2Cl4)]
 Deg. of freedom    21
 Full point group                 CS      NOp   2
 Largest Abelian subgroup         CS      NOp   2
 Largest concise Abelian subgroup C1      NOp   1
                         Standard orientation:                         
 ---------------------------------------------------------------------
 Center     Atomic      Atomic             Coordinates (Angstroms)
 Number     Number       Type             X           Y           Z
 ---------------------------------------------------------------------
      1          6           0        0.414570   -0.687843    0.000000
      2          6           0       -0.802974    0.015105    0.000000
      3          6           0       -0.802974    1.421006    0.000000
      4          6           0        0.414570    2.123958    0.000000
      5          6           0        1.632119    1.421001    0.000000
      6          6           0        1.632114    0.015110    0.000000
      7         17           0        3.161092   -0.867646    0.000000
      8         17           0        0.414570   -2.453363    0.000000
      9         17           0       -2.331957   -0.867650    0.000000
     10         17           0       -2.331952    2.303762    0.000000
     11          1           0        0.414575    3.889469    0.000000
     12          1           0        3.161088    2.303761    0.000000
 ---------------------------------------------------------------------
 Rotational constants (GHZ):           1.1200119           0.5289141           0.3592582
 Standard basis: VSTO-6G (5D, 7F)
 There are    32 symmetry adapted cartesian basis functions of A'  symmetry.
 There are    10 symmetry adapted cartesian basis functions of A"  symmetry.
 There are    32 symmetry adapted basis functions of A'  symmetry.
 There are    10 symmetry adapted basis functions of A"  symmetry.
    42 basis functions,   252 primitive gaussians,    42 cartesian basis functions
    28 alpha electrons       27 beta electrons
       nuclear repulsion energy       301.7400709876 Hartrees.
 Integral buffers will be    131072 words long.
 Regular integral format.
 Two-electron integral symmetry is turned off.
 Do NDO integrals.
 One-electron integrals computed using PRISM.
 NBasis=    42 RedAO= T EigKep=  1.00D+00  NBF=    32    10
 NBsUse=    42 1.00D-06 EigRej= -1.00D+00 NBFU=    32    10
 Simple Huckel Guess.
 Initial guess orbital symmetries:
 Alpha Orbitals:
       Occupied  (A') (A') (A') (A') (A') (A') (A') (A') (A') (A')
                 (A") (A') (A') (A') (A') (A") (A") (A') (A') (A")
                 (A") (A') (A') (A') (A') (A") (A") (A')
       Virtual   (A") (A") (A') (A") (A') (A') (A') (A') (A') (A')
                 (A') (A') (A') (A')
 Beta  Orbitals:
       Occupied  (A') (A') (A') (A') (A') (A') (A') (A') (A') (A')
                 (A") (A') (A') (A') (A') (A") (A") (A') (A') (A")
                 (A") (A') (A') (A') (A') (A") (A")
       Virtual   (A') (A") (A") (A') (A") (A') (A') (A') (A') (A')
                 (A') (A') (A') (A') (A')
 The electronic state of the initial guess is 2-A'.
 Initial guess <Sx>= 0.0000 <Sy>= 0.0000 <Sz>= 0.5000 <S**2>= 0.7500 S= 0.5000
 Keep J ints in memory in canonical form, NReq=864594.
 Overlap will be assumed to be unity.
 Requested convergence on RMS density matrix=1.00D-08 within  32 cycles.
 Requested convergence on MAX density matrix=1.00D-06.
 Requested convergence on             energy=1.00D-06.
 No special actions if energy rises.
 Fock symm off for IB=2 I1=    1 I=   33 J=   14 Cut=1.00D-07 Err=2.73D-03
 Fock matrix is not symmetric: symmetry in diagonalization turned off.
 SCF Done:  E(UAM1) =  0.204767183159     A.U. after   22 cycles
            NFock= 21  Conv=0.61D-08     -V/T= 1.0015
 <Sx>= 0.0000 <Sy>= 0.0000 <Sz>= 0.5000 <S**2>= 1.0627 S= 0.6457
 <L.S>=  0.00000000000    
 Annihilation of the first spin contaminant:
 S**2 before annihilation     1.0627,   after     0.7566
 QCSCF skips out because SCF is already converged.

 **********************************************************************

            Population analysis using the SCF Density.

 **********************************************************************

 Orbital symmetries:
 Alpha Orbitals:
       Occupied  (A') (A') (A') (A') (A') (A') (A') (A') (A') (A')
                 (A') (A') (A") (A') (A') (A") (A") (A") (A') (A')
                 (A') (A') (A") (A') (A') (A") (A") (A')
       Virtual   (A') (A") (A") (A') (A') (A') (A') (A") (A') (A')
                 (A') (A') (A') (A')
 Beta  Orbitals:
       Occupied  (A') (A') (A') (A') (A') (A') (A') (A') (A') (A')
                 (A') (A') (A") (A') (A') (A") (A") (A") (A') (A')
                 (A') (A') (A") (A') (A") (A') (A")
       Virtual   (A") (A") (A') (A') (A') (A') (A') (A") (A') (A')
                 (A') (A') (A') (A') (A')
 The electronic state is 2-A'.
 Alpha  occ. eigenvalues --   -1.29443  -1.24482  -1.23627  -1.22916  -1.20251
 Alpha  occ. eigenvalues --   -0.97523  -0.95709  -0.69824  -0.68493  -0.51598
 Alpha  occ. eigenvalues --   -0.47086  -0.45645  -0.41658  -0.41513  -0.37142
 Alpha  occ. eigenvalues --   -0.35775  -0.33969  -0.33035  -0.32388  -0.32258
 Alpha  occ. eigenvalues --   -0.30179  -0.29872  -0.28235  -0.26566  -0.23333
 Alpha  occ. eigenvalues --   -0.20265  -0.19531  -0.07427
 Alpha virt. eigenvalues --    0.13919   0.14981   0.14999   0.15355   0.16906
 Alpha virt. eigenvalues --    0.18805   0.19645   0.25457   0.29229   0.29308
 Alpha virt. eigenvalues --    0.30943   0.33242   0.34173   0.37973
  Beta  occ. eigenvalues --   -1.29539  -1.24502  -1.23625  -1.22799  -1.20244
  Beta  occ. eigenvalues --   -0.97721  -0.96087  -0.70015  -0.68985  -0.51670
  Beta  occ. eigenvalues --   -0.47276  -0.45864  -0.41677  -0.41660  -0.37204
  Beta  occ. eigenvalues --   -0.35757  -0.33979  -0.33019  -0.32369  -0.32327
  Beta  occ. eigenvalues --   -0.30010  -0.29872  -0.28310  -0.23670  -0.20232
  Beta  occ. eigenvalues --   -0.20130  -0.20021
  Beta virt. eigenvalues --    0.14728   0.14774   0.15221   0.16936   0.17887
  Beta virt. eigenvalues --    0.19529   0.24456   0.24647   0.24867   0.29352
  Beta virt. eigenvalues --    0.29414   0.30743   0.32425   0.34359   0.36518
          Condensed to atoms (all electrons):
               1          2          3          4          5          6
     1  C    4.069947   0.000000   0.000000   0.000000   0.000000   0.000000
     2  C    0.000000   4.069943   0.000000   0.000000   0.000000   0.000000
     3  C    0.000000   0.000000   4.028472   0.000000   0.000000   0.000000
     4  C    0.000000   0.000000   0.000000   4.166273   0.000000   0.000000
     5  C    0.000000   0.000000   0.000000   0.000000   4.166269   0.000000
     6  C    0.000000   0.000000   0.000000   0.000000   0.000000   4.028467
     7  Cl   0.000000   0.000000   0.000000   0.000000   0.000000   0.000000
     8  Cl   0.000000   0.000000   0.000000   0.000000   0.000000   0.000000
     9  Cl   0.000000   0.000000   0.000000   0.000000   0.000000   0.000000
    10  Cl   0.000000   0.000000   0.000000   0.000000   0.000000   0.000000
    11  H    0.000000   0.000000   0.000000   0.000000   0.000000   0.000000
    12  H    0.000000   0.000000   0.000000   0.000000   0.000000   0.000000
               7          8          9         10         11         12
     1  C    0.000000   0.000000   0.000000   0.000000   0.000000   0.000000
     2  C    0.000000   0.000000   0.000000   0.000000   0.000000   0.000000
     3  C    0.000000   0.000000   0.000000   0.000000   0.000000   0.000000
     4  C    0.000000   0.000000   0.000000   0.000000   0.000000   0.000000
     5  C    0.000000   0.000000   0.000000   0.000000   0.000000   0.000000
     6  C    0.000000   0.000000   0.000000   0.000000   0.000000   0.000000
     7  Cl   7.103582   0.000000   0.000000   0.000000   0.000000   0.000000
     8  Cl   0.000000   7.075892   0.000000   0.000000   0.000000   0.000000
     9  Cl   0.000000   0.000000   7.075890   0.000000   0.000000   0.000000
    10  Cl   0.000000   0.000000   0.000000   7.103580   0.000000   0.000000
    11  H    0.000000   0.000000   0.000000   0.000000   1.055849   0.000000
    12  H    0.000000   0.000000   0.000000   0.000000   0.000000   1.055835
          Atomic-Atomic Spin Densities.
               1          2          3          4          5          6
     1  C   -0.000410   0.000000   0.000000   0.000000   0.000000   0.000000
     2  C    0.000000  -0.000411   0.000000   0.000000   0.000000   0.000000
     3  C    0.000000   0.000000  -0.021204   0.000000   0.000000   0.000000
     4  C    0.000000   0.000000   0.000000  -0.170697   0.000000   0.000000
     5  C    0.000000   0.000000   0.000000   0.000000  -0.170728   0.000000
     6  C    0.000000   0.000000   0.000000   0.000000   0.000000  -0.021202
     7  Cl   0.000000   0.000000   0.000000   0.000000   0.000000   0.000000
     8  Cl   0.000000   0.000000   0.000000   0.000000   0.000000   0.000000
     9  Cl   0.000000   0.000000   0.000000   0.000000   0.000000   0.000000
    10  Cl   0.000000   0.000000   0.000000   0.000000   0.000000   0.000000
    11  H    0.000000   0.000000   0.000000   0.000000   0.000000   0.000000
    12  H    0.000000   0.000000   0.000000   0.000000   0.000000   0.000000
               7          8          9         10         11         12
     1  C    0.000000   0.000000   0.000000   0.000000   0.000000   0.000000
     2  C    0.000000   0.000000   0.000000   0.000000   0.000000   0.000000
     3  C    0.000000   0.000000   0.000000   0.000000   0.000000   0.000000
     4  C    0.000000   0.000000   0.000000   0.000000   0.000000   0.000000
     5  C    0.000000   0.000000   0.000000   0.000000   0.000000   0.000000
     6  C    0.000000   0.000000   0.000000   0.000000   0.000000   0.000000
     7  Cl   0.022347   0.000000   0.000000   0.000000   0.000000   0.000000
     8  Cl   0.000000  -0.007647   0.000000   0.000000   0.000000   0.000000
     9  Cl   0.000000   0.000000  -0.007647   0.000000   0.000000   0.000000
    10  Cl   0.000000   0.000000   0.000000   0.022346   0.000000   0.000000
    11  H    0.000000   0.000000   0.000000   0.000000   0.677638   0.000000
    12  H    0.000000   0.000000   0.000000   0.000000   0.000000   0.677615
 Mulliken charges and spin densities:
               1          2
     1  C   -0.069947  -0.000410
     2  C   -0.069943  -0.000411
     3  C   -0.028472  -0.021204
     4  C   -0.166273  -0.170697
     5  C   -0.166269  -0.170728
     6  C   -0.028467  -0.021202
     7  Cl  -0.103582   0.022347
     8  Cl  -0.075892  -0.007647
     9  Cl  -0.075890  -0.007647
    10  Cl  -0.103580   0.022346
    11  H   -0.055849   0.677638
    12  H   -0.055835   0.677615
 Sum of Mulliken charges =  -1.00000   1.00000
 Mulliken charges and spin densities with hydrogens summed into heavy atoms:
               1          2
     1  C   -0.069947  -0.000410
     2  C   -0.069943  -0.000411
     3  C   -0.028472  -0.021204
     4  C   -0.222123   0.506941
     5  C   -0.222104   0.506888
     6  C   -0.028467  -0.021202
     7  Cl  -0.103582   0.022347
     8  Cl  -0.075892  -0.007647
     9  Cl  -0.075890  -0.007647
    10  Cl  -0.103580   0.022346
 Charge=             -1.0000 electrons
 Dipole moment (field-independent basis, Debye):
    X=             -2.9782    Y=             -5.1587    Z=              0.0000  Tot=              5.9567
 N-N= 3.017400709876D+02 E-N=-4.359959596858D+02  KE=-1.357915795913D+02
 Symmetry A'   KE=-1.041266319684D+02
 Symmetry A"   KE=-3.166494762295D+01
 Symmetry A'   SP= 1.000000000000D+00
 Symmetry A"   SP= 2.109423746788D-15
 Calling FoFJK, ICntrl=      2127 FMM=F ISym2X=1 I1Cent= 0 IOpClX= 1 NMat=1 NMatS=1 NMatT=0.
 ***** Axes restored to original set *****
 -------------------------------------------------------------------
 Center     Atomic                   Forces (Hartrees/Bohr)
 Number     Number              X              Y              Z
 -------------------------------------------------------------------
      1        6          -0.014100039    0.012588847    0.000000000
      2        6          -0.004860958    0.018264202    0.000000000
      3        6           0.023891625   -0.026332791   -0.000000000
      4        6          -0.024514639   -0.021246516   -0.000000000
      5        6           0.030036314    0.012268684    0.000000000
      6        6           0.012693598   -0.033207671   -0.000000000
      7       17           0.022850940    0.014115806    0.000000000
      8       17           0.026629447   -0.013314973   -0.000000000
      9       17          -0.000149916   -0.029770269   -0.000000000
     10       17          -0.022916239   -0.014011654    0.000000000
     11        1          -0.048322110    0.025852606   -0.000000000
     12        1          -0.001238023    0.054793729   -0.000000000
 -------------------------------------------------------------------
 Cartesian Forces:  Max     0.054793729 RMS     0.020118098

 GradGradGradGradGradGradGradGradGradGradGradGradGradGradGradGradGradGrad
 Berny optimization.
 FormGI is forming the generalized inverse of G from B-inverse, IUseBI=4.
 Internal  Forces:  Max     0.073200845 RMS     0.018985371
 Search for a local minimum.
 Step number   1 out of a maximum of   64
 All quantities printed in internal units (Hartrees-Bohrs-Radians)
 Mixed Optimization -- RFO/linear search
 Second derivative matrix not updated -- first step.
 ITU=  0
     Eigenvalues ---    0.02011   0.02011   0.02011   0.02011   0.02011
     Eigenvalues ---    0.02011   0.02011   0.02011   0.02011   0.06524
     Eigenvalues ---    0.06524   0.16000   0.16000   0.22488   0.24492
     Eigenvalues ---    0.25000   0.25000   0.25000   0.25000   0.25000
     Eigenvalues ---    0.29033   0.29033   0.29033   0.29033   0.40956
     Eigenvalues ---    0.41136   0.44656   0.44657   0.44657   0.44657
 RFO step:  Lambda=-7.27499161D-02 EMin= 2.01065826D-02
 Linear search not attempted -- first point.
 Maximum step size (   0.300) exceeded in Quadratic search.
    -- Step size scaled by   0.486
 Iteration  1 RMS(Cart)=  0.05168632 RMS(Int)=  0.00013549
 Iteration  2 RMS(Cart)=  0.00027793 RMS(Int)=  0.00004152
 Iteration  3 RMS(Cart)=  0.00000005 RMS(Int)=  0.00004152
 ClnCor:  largest displacement from symmetrization is 2.20D-10 for atom    10.
 Variable       Old X    -DE/DX   Delta X   Delta X   Delta X     New X
                                 (Linear)    (Quad)   (Total)
    R1        2.65676  -0.01703   0.00000  -0.01373  -0.01380   2.64296
    R2        2.65677  -0.00958   0.00000  -0.00787  -0.00790   2.64886
    R3        3.33635  -0.02976   0.00000  -0.03986  -0.03986   3.29649
    R4        2.65677  -0.00958   0.00000  -0.00787  -0.00790   2.64886
    R5        3.33634  -0.02975   0.00000  -0.03985  -0.03985   3.29649
    R6        2.65677  -0.04321   0.00000  -0.04157  -0.04153   2.61524
    R7        3.33633  -0.02686   0.00000  -0.03597  -0.03597   3.30036
    R8        2.65678  -0.07320   0.00000  -0.07076  -0.07069   2.58609
    R9        3.33633  -0.05480   0.00000  -0.19313  -0.19313   3.14320
   R10        2.65675  -0.04320   0.00000  -0.04156  -0.04152   2.61523
   R11        3.33632  -0.05481   0.00000  -0.19315  -0.19315   3.14318
   R12        3.33633  -0.02686   0.00000  -0.03597  -0.03597   3.30036
    A1        2.09439  -0.00745   0.00000  -0.00617  -0.00628   2.08811
    A2        2.09439   0.00211   0.00000   0.00065   0.00071   2.09511
    A3        2.09440   0.00534   0.00000   0.00551   0.00557   2.09997
    A4        2.09439  -0.00745   0.00000  -0.00617  -0.00628   2.08811
    A5        2.09440   0.00211   0.00000   0.00065   0.00071   2.09511
    A6        2.09439   0.00534   0.00000   0.00552   0.00557   2.09997
    A7        2.09440  -0.00462   0.00000  -0.00738  -0.00738   2.08702
    A8        2.09440   0.00221   0.00000   0.00353   0.00353   2.09793
    A9        2.09439   0.00241   0.00000   0.00384   0.00384   2.09824
   A10        2.09439   0.01206   0.00000   0.01355   0.01366   2.10805
   A11        2.09440  -0.00559   0.00000  -0.00584  -0.00590   2.08850
   A12        2.09440  -0.00648   0.00000  -0.00771  -0.00776   2.08663
   A13        2.09439   0.01207   0.00000   0.01355   0.01366   2.10806
   A14        2.09439  -0.00648   0.00000  -0.00771  -0.00776   2.08663
   A15        2.09440  -0.00559   0.00000  -0.00584  -0.00590   2.08850
   A16        2.09440  -0.00462   0.00000  -0.00738  -0.00738   2.08702
   A17        2.09439   0.00221   0.00000   0.00354   0.00353   2.09793
   A18        2.09439   0.00241   0.00000   0.00384   0.00384   2.09824
    D1        0.00000  -0.00000   0.00000  -0.00000   0.00000   0.00000
    D2        3.14159  -0.00000   0.00000  -0.00000   0.00000   3.14159
    D3        3.14159   0.00000   0.00000   0.00000   0.00000   3.14159
    D4        0.00000   0.00000   0.00000   0.00000   0.00000   0.00000
    D5        0.00000   0.00000   0.00000   0.00000   0.00000   0.00000
    D6        3.14159   0.00000   0.00000   0.00000   0.00000   3.14159
    D7        3.14159  -0.00000   0.00000  -0.00000   0.00000   3.14159
    D8        0.00000  -0.00000   0.00000  -0.00000   0.00000   0.00000
    D9        0.00000   0.00000   0.00000   0.00000   0.00000   0.00000
   D10        3.14159  -0.00000   0.00000  -0.00000   0.00000   3.14159
   D11        3.14159   0.00000   0.00000   0.00000   0.00000   3.14159
   D12        0.00000   0.00000   0.00000   0.00000   0.00000   0.00000
   D13        0.00000  -0.00000   0.00000   0.00000   0.00000   0.00000
   D14        3.14159  -0.00000   0.00000  -0.00000   0.00000   3.14159
   D15        3.14159   0.00000   0.00000   0.00000   0.00000   3.14159
   D16        0.00000  -0.00000   0.00000  -0.00000   0.00000   0.00000
   D17        0.00000   0.00000   0.00000   0.00000   0.00000   0.00000
   D18        3.14159  -0.00000   0.00000  -0.00000   0.00000   3.14159
   D19        3.14159   0.00000   0.00000   0.00000   0.00000   3.14159
   D20        0.00000  -0.00000   0.00000  -0.00000   0.00000   0.00000
   D21        0.00000  -0.00000   0.00000  -0.00000   0.00000   0.00000
   D22        3.14159  -0.00000   0.00000  -0.00000   0.00000   3.14159
   D23        3.14159   0.00000   0.00000   0.00000   0.00000   3.14159
   D24        0.00000   0.00000   0.00000   0.00000   0.00000   0.00000
         Item               Value     Threshold  Converged?
 Maximum Force            0.073201     0.000450     NO 
 RMS     Force            0.018985     0.000300     NO 
 Maximum Displacement     0.230266     0.001800     NO 
 RMS     Displacement     0.051686     0.001200     NO 
 Predicted change in Energy=-3.005080D-02
 GradGradGradGradGradGradGradGradGradGradGradGradGradGradGradGradGradGrad

                          Input orientation:                          
 ---------------------------------------------------------------------
 Center     Atomic      Atomic             Coordinates (Angstroms)
 Number     Number       Type             X           Y           Z
 ---------------------------------------------------------------------
      1          6           0       -3.197423    0.187110    0.000000
      2          6           0       -2.005865    0.919405    0.000000
      3          6           0       -0.777370    0.244413    0.000000
      4          6           0       -0.758262   -1.139379    0.000000
      5          6           0       -1.924183   -1.855913    0.000000
      6          6           0       -3.150126   -1.213809    0.000000
      7         17           0       -4.629020   -2.142814    0.000000
      8         17           0       -4.732115    1.016421    0.000000
      9         17           0       -2.052527    2.663207    0.000000
     10         17           0        0.719476    1.144205    0.000000
     11          1           0        0.698310   -1.942497    0.000000
     12          1           0       -1.865595   -3.518178    0.000000
 ---------------------------------------------------------------------
                    Distance matrix (angstroms):
                    1          2          3          4          5
     1  C    0.000000
     2  C    1.398594   0.000000
     3  C    2.420731   1.401718   0.000000
     4  C    2.776523   2.407302   1.383925   0.000000
     5  C    2.407298   2.776520   2.393021   1.368499   0.000000
     6  C    1.401718   2.420730   2.785029   2.393022   1.383920
     7  Cl   2.734596   4.032136   4.531452   3.998705   2.720010
     8  Cl   1.744430   2.727975   4.029392   4.520948   4.016813
     9  Cl   2.727974   1.744427   2.734335   4.016813   4.520943
    10  Cl   4.032137   2.734597   1.746474   2.720012   3.998704
    11  H    4.439816   3.937391   2.638221   1.663311   2.623922
    12  H    3.937376   4.439799   3.916801   2.623904   1.663297
                    6          7          8          9         10
     6  C    0.000000
     7  Cl   1.746475   0.000000
     8  Cl   2.734339   3.160916   0.000000
     9  Cl   4.029390   5.453087   3.145171   0.000000
    10  Cl   4.531451   6.277810   5.453088   3.160913   0.000000
    11  H    3.916816   5.331095   6.184231   5.364664   3.086775
    12  H    2.638207   3.086769   5.364655   6.184212   5.331079
                   11         12
    11  H    0.000000
    12  H    3.009382   0.000000
 Stoichiometry    C6H2Cl4(1-,2)
 Framework group  CS[SG(C6H2Cl4)]
 Deg. of freedom    21
 Full point group                 CS      NOp   2
 Largest Abelian subgroup         CS      NOp   2
 Largest concise Abelian subgroup C1      NOp   1
                         Standard orientation:                         
 ---------------------------------------------------------------------
 Center     Atomic      Atomic             Coordinates (Angstroms)
 Number     Number       Type             X           Y           Z
 ---------------------------------------------------------------------
      1          6           0       -0.395064   -0.699297    0.000000
      2          6           0       -0.395064    0.699296    0.000000
      3          6           0        0.823239    1.392514    0.000000
      4          6           0        2.012191    0.684249    0.000000
      5          6           0        2.012187   -0.684250    0.000000
      6          6           0        0.823239   -1.392514    0.000000
      7         17           0        0.840383   -3.138905    0.000000
      8         17           0       -1.905165   -1.572585    0.000000
      9         17           0       -1.905161    1.572586    0.000000
     10         17           0        0.840384    3.138905    0.000000
     11          1           0        3.459074    1.504695    0.000000
     12          1           0        3.459060   -1.504687    0.000000
 ---------------------------------------------------------------------
 Rotational constants (GHZ):           1.1378004           0.5398716           0.3661420
 Standard basis: VSTO-6G (5D, 7F)
 There are    32 symmetry adapted cartesian basis functions of A'  symmetry.
 There are    10 symmetry adapted cartesian basis functions of A"  symmetry.
 There are    32 symmetry adapted basis functions of A'  symmetry.
 There are    10 symmetry adapted basis functions of A"  symmetry.
    42 basis functions,   252 primitive gaussians,    42 cartesian basis functions
    28 alpha electrons       27 beta electrons
       nuclear repulsion energy       303.9233902011 Hartrees.
 Integral buffers will be    131072 words long.
 Regular integral format.
 Two-electron integral symmetry is turned off.
 Do NDO integrals.
 One-electron integrals computed using PRISM.
 NBasis=    42 RedAO= T EigKep=  1.00D+00  NBF=    32    10
 NBsUse=    42 1.00D-06 EigRej= -1.00D+00 NBFU=    32    10
 Initial guess from the checkpoint file:  "geometry_chks/1234ClBzAnionRadical.chk"
 B after Tr=     0.000000    0.000000    0.000000
         Rot=    0.866025    0.000000    0.000000    0.500000 Ang=  60.00 deg.
 Initial guess orbital symmetries:
 Alpha Orbitals:
       Occupied  (A') (A') (A') (A') (A') (A') (A') (A') (A') (A')
                 (A') (A') (A") (A') (A') (A") (A") (A") (A') (A')
                 (A') (A') (A") (A') (A') (A") (A") (A')
       Virtual   (A') (A") (A") (A') (A') (A') (A') (A") (A') (A')
                 (A') (A') (A') (A')
 Beta  Orbitals:
       Occupied  (A') (A') (A') (A') (A') (A') (A') (A') (A') (A')
                 (A') (A') (A") (A') (A') (A") (A") (A") (A') (A')
                 (A') (A') (A") (A') (A") (A') (A")
       Virtual   (A") (A") (A') (A') (A') (A') (A') (A") (A') (A')
                 (A') (A') (A') (A') (A')
 Initial guess <Sx>= 0.0000 <Sy>= 0.0000 <Sz>= 0.5000 <S**2>= 1.0627 S= 0.6457
 Keep J ints in memory in canonical form, NReq=864594.
 Overlap will be assumed to be unity.
 Requested convergence on RMS density matrix=1.00D-08 within  32 cycles.
 Requested convergence on MAX density matrix=1.00D-06.
 Requested convergence on             energy=1.00D-06.
 No special actions if energy rises.
 Fock symm off for IB=2 I1=    1 I=   33 J=   25 Cut=1.00D-07 Err=1.35D-03
 Fock matrix is not symmetric: symmetry in diagonalization turned off.
 SCF Done:  E(UAM1) =  0.171500808682     A.U. after   15 cycles
            NFock= 14  Conv=0.92D-08     -V/T= 1.0013
 <Sx>= 0.0000 <Sy>= 0.0000 <Sz>= 0.5000 <S**2>= 0.9185 S= 0.5809
 <L.S>=  0.00000000000    
 Annihilation of the first spin contaminant:
 S**2 before annihilation     0.9185,   after     0.7522
 QCSCF skips out because SCF is already converged.
 Calling FoFJK, ICntrl=      2127 FMM=F ISym2X=1 I1Cent= 0 IOpClX= 1 NMat=1 NMatS=1 NMatT=0.
 ***** Axes restored to original set *****
 -------------------------------------------------------------------
 Center     Atomic                   Forces (Hartrees/Bohr)
 Number     Number              X              Y              Z
 -------------------------------------------------------------------
      1        6          -0.017950460    0.011932184    0.000000000
      2        6          -0.002535580    0.021403691    0.000000000
      3        6           0.024302728   -0.006314520   -0.000000000
      4        6           0.027266964   -0.032013768   -0.000000000
      5        6           0.016250622   -0.038803759    0.000000000
      6        6          -0.005351716   -0.024534580   -0.000000000
      7       17           0.013214141    0.009067506    0.000000000
      8       17           0.016936815   -0.008622364   -0.000000000
      9       17           0.000041500   -0.019003319   -0.000000000
     10       17          -0.014059042   -0.007693786   -0.000000000
     11        1          -0.056120129    0.030649263   -0.000000000
     12        1          -0.001995844    0.063933451   -0.000000000
 -------------------------------------------------------------------
 Cartesian Forces:  Max     0.063933451 RMS     0.020510659

 GradGradGradGradGradGradGradGradGradGradGradGradGradGradGradGradGradGrad
 Berny optimization.
 Using GEDIIS/GDIIS optimizer.
 FormGI is forming the generalized inverse of G from B-inverse, IUseBI=4.
 Internal  Forces:  Max     0.063964078 RMS     0.014041475
 Search for a local minimum.
 Step number   2 out of a maximum of   64
 All quantities printed in internal units (Hartrees-Bohrs-Radians)
 Mixed Optimization -- RFO/linear search
 Update second derivatives using D2CorX and points    1    2
 DE= -3.33D-02 DEPred=-3.01D-02 R= 1.11D+00
 TightC=F SS=  1.41D+00  RLast= 3.00D-01 DXNew= 5.0454D-01 9.0000D-01
 Trust test= 1.11D+00 RLast= 3.00D-01 DXMaxT set to 5.05D-01
 ITU=  1  0
 Use linear search instead of GDIIS.
 Linear search step of   0.600 exceeds DXMaxT=   0.505 but not scaled.
 Quartic linear search produced a step of  2.00000.
 Iteration  1 RMS(Cart)=  0.07413194 RMS(Int)=  0.03593092
 Iteration  2 RMS(Cart)=  0.03351153 RMS(Int)=  0.00025539
 Iteration  3 RMS(Cart)=  0.00002934 RMS(Int)=  0.00025493
 Iteration  4 RMS(Cart)=  0.00000000 RMS(Int)=  0.00025493
 ClnCor:  largest displacement from symmetrization is 1.33D-15 for atom    10.
 Variable       Old X    -DE/DX   Delta X   Delta X   Delta X     New X
                                 (Linear)    (Quad)   (Total)
    R1        2.64296   0.00116  -0.02761   0.00000  -0.02807   2.61489
    R2        2.64886   0.00392  -0.01581   0.00000  -0.01603   2.63283
    R3        3.29649  -0.01900  -0.07971   0.00000  -0.07971   3.21678
    R4        2.64886   0.00392  -0.01581   0.00000  -0.01603   2.63283
    R5        3.29649  -0.01900  -0.07970   0.00000  -0.07970   3.21678
    R6        2.61524  -0.01231  -0.08306   0.00000  -0.08281   2.53243
    R7        3.30036  -0.01601  -0.07195   0.00000  -0.07195   3.22841
    R8        2.58609  -0.02593  -0.14138   0.00000  -0.14091   2.44518
    R9        3.14320  -0.06394  -0.38626   0.00000  -0.38626   2.75694
   R10        2.61523  -0.01230  -0.08304   0.00000  -0.08279   2.53244
   R11        3.14318  -0.06396  -0.38629   0.00000  -0.38629   2.75688
   R12        3.30036  -0.01601  -0.07195   0.00000  -0.07195   3.22841
    A1        2.08811  -0.00274  -0.01257   0.00000  -0.01326   2.07485
    A2        2.09511   0.00060   0.00142   0.00000   0.00177   2.09688
    A3        2.09997   0.00214   0.01114   0.00000   0.01149   2.11146
    A4        2.08811  -0.00274  -0.01256   0.00000  -0.01326   2.07485
    A5        2.09511   0.00060   0.00142   0.00000   0.00177   2.09688
    A6        2.09997   0.00214   0.01115   0.00000   0.01149   2.11146
    A7        2.08702  -0.00415  -0.01475   0.00000  -0.01473   2.07229
    A8        2.09793   0.00101   0.00707   0.00000   0.00706   2.10499
    A9        2.09824   0.00315   0.00768   0.00000   0.00768   2.10591
   A10        2.10805   0.00689   0.02732   0.00000   0.02800   2.13605
   A11        2.08850  -0.00304  -0.01180   0.00000  -0.01214   2.07637
   A12        2.08663  -0.00385  -0.01552   0.00000  -0.01586   2.07077
   A13        2.10806   0.00689   0.02732   0.00000   0.02800   2.13606
   A14        2.08663  -0.00385  -0.01552   0.00000  -0.01586   2.07076
   A15        2.08850  -0.00304  -0.01180   0.00000  -0.01214   2.07637
   A16        2.08702  -0.00416  -0.01476   0.00000  -0.01474   2.07228
   A17        2.09793   0.00101   0.00707   0.00000   0.00706   2.10499
   A18        2.09824   0.00315   0.00769   0.00000   0.00768   2.10592
    D1        0.00000   0.00000   0.00000   0.00000   0.00000   0.00000
    D2        3.14159  -0.00000   0.00000   0.00000   0.00000   3.14159
    D3        3.14159   0.00000   0.00000   0.00000   0.00000   3.14159
    D4        0.00000   0.00000   0.00000   0.00000   0.00000   0.00000
    D5        0.00000   0.00000   0.00000   0.00000   0.00000   0.00000
    D6        3.14159   0.00000   0.00000   0.00000   0.00000   3.14159
    D7        3.14159  -0.00000   0.00000   0.00000   0.00000   3.14159
    D8        0.00000  -0.00000   0.00000   0.00000   0.00000   0.00000
    D9        0.00000  -0.00000   0.00000   0.00000   0.00000   0.00000
   D10        3.14159  -0.00000   0.00000   0.00000   0.00000   3.14159
   D11        3.14159   0.00000   0.00000   0.00000   0.00000   3.14159
   D12        0.00000   0.00000   0.00000   0.00000   0.00000   0.00000
   D13        0.00000  -0.00000   0.00000   0.00000   0.00000   0.00000
   D14        3.14159  -0.00000   0.00000   0.00000   0.00000   3.14159
   D15        3.14159  -0.00000   0.00000   0.00000   0.00000   3.14159
   D16        0.00000  -0.00000   0.00000   0.00000   0.00000   0.00000
   D17        0.00000   0.00000   0.00000   0.00000   0.00000   0.00000
   D18        3.14159  -0.00000   0.00000   0.00000   0.00000   3.14159
   D19        3.14159   0.00000   0.00000   0.00000   0.00000   3.14159
   D20        0.00000  -0.00000   0.00000   0.00000   0.00000   0.00000
   D21        0.00000  -0.00000   0.00000   0.00000   0.00000   0.00000
   D22        3.14159  -0.00000   0.00000   0.00000   0.00000   3.14159
   D23        3.14159   0.00000   0.00000   0.00000   0.00000   3.14159
   D24        0.00000   0.00000   0.00000   0.00000   0.00000   0.00000
         Item               Value     Threshold  Converged?
 Maximum Force            0.063964     0.000450     NO 
 RMS     Force            0.014041     0.000300     NO 
 Maximum Displacement     0.460164     0.001800     NO 
 RMS     Displacement     0.103363     0.001200     NO 
 Predicted change in Energy=-5.158186D-02
 GradGradGradGradGradGradGradGradGradGradGradGradGradGradGradGradGradGrad

                          Input orientation:                          
 ---------------------------------------------------------------------
 Center     Atomic      Atomic             Coordinates (Angstroms)
 Number     Number       Type             X           Y           Z
 ---------------------------------------------------------------------
      1          6           0       -3.173456    0.162295    0.000000
      2          6           0       -1.994553    0.886810    0.000000
      3          6           0       -0.782500    0.199766    0.000000
      4          6           0       -0.801516   -1.140204    0.000000
      5          6           0       -1.903906   -1.817694    0.000000
      6          6           0       -3.107984   -1.229399    0.000000
      7         17           0       -4.535872   -2.167362    0.000000
      8         17           0       -4.672468    0.968901    0.000000
      9         17           0       -2.037074    2.588528    0.000000
     10         17           0        0.699299    1.050005    0.000000
     11          1           0        0.464726   -1.864805    0.000000
     12          1           0       -1.829396   -3.274670    0.000000
 ---------------------------------------------------------------------
                    Distance matrix (angstroms):
                    1          2          3          4          5
     1  C    0.000000
     2  C    1.383738   0.000000
     3  C    2.391250   1.393235   0.000000
     4  C    2.706030   2.352046   1.340105   0.000000
     5  C    2.352045   2.706022   2.308181   1.293931   0.000000
     6  C    1.393234   2.391248   2.729541   2.308192   1.340109
     7  Cl   2.698793   3.973194   4.437466   3.873044   2.655092
     8  Cl   1.702248   2.679173   3.965277   4.408241   3.928109
     9  Cl   2.679173   1.702249   2.698173   3.928109   4.408234
    10  Cl   3.973192   2.698791   1.708400   2.655081   3.873032
    11  H    4.164793   3.690452   2.412059   1.458910   2.369101
    12  H    3.690424   4.164756   3.628733   2.369068   1.458880
                    6          7          8          9         10
     6  C    0.000000
     7  Cl   1.708403   0.000000
     8  Cl   2.698172   3.139236   0.000000
     9  Cl   3.965276   5.372381   3.093298   0.000000
    10  Cl   4.437464   6.144792   5.372379   3.139234   0.000000
    11  H    3.628774   5.009743   5.866911   5.107952   2.924233
    12  H    2.412036   2.924234   5.107930   5.866875   5.009702
                   11         12
    11  H    0.000000
    12  H    2.692716   0.000000
 Stoichiometry    C6H2Cl4(1-,2)
 Framework group  CS[SG(C6H2Cl4)]
 Deg. of freedom    21
 Full point group                 CS      NOp   2
 Largest Abelian subgroup         CS      NOp   2
 Largest concise Abelian subgroup C1      NOp   1
                         Standard orientation:                         
 ---------------------------------------------------------------------
 Center     Atomic      Atomic             Coordinates (Angstroms)
 Number     Number       Type             X           Y           Z
 ---------------------------------------------------------------------
      1          6           0       -0.703530   -0.388079    0.000000
      2          6           0        0.000000    0.803465    0.000000
      3          6           0        1.392636    0.762644   -0.000000
      4          6           0        2.002163   -0.430822   -0.000000
      5          6           0        1.344292   -1.545031   -0.000000
      6          6           0        0.004864   -1.587778   -0.000000
      7         17           0       -0.819006   -3.084400   -0.000000
      8         17           0       -2.405733   -0.375692    0.000000
      9         17           0       -0.833018    2.287963    0.000000
     10         17           0        2.305169    2.206913    0.000000
     11          1           0        3.460259   -0.479517   -0.000000
     12          1           0        2.091191   -2.798217   -0.000000
 ---------------------------------------------------------------------
 Rotational constants (GHZ):           1.1740415           0.5631750           0.3806036
 Standard basis: VSTO-6G (5D, 7F)
 There are    32 symmetry adapted cartesian basis functions of A'  symmetry.
 There are    10 symmetry adapted cartesian basis functions of A"  symmetry.
 There are    32 symmetry adapted basis functions of A'  symmetry.
 There are    10 symmetry adapted basis functions of A"  symmetry.
    42 basis functions,   252 primitive gaussians,    42 cartesian basis functions
    28 alpha electrons       27 beta electrons
       nuclear repulsion energy       308.5120039076 Hartrees.
 Integral buffers will be    131072 words long.
 Regular integral format.
 Two-electron integral symmetry is turned off.
 Do NDO integrals.
 One-electron integrals computed using PRISM.
 NBasis=    42 RedAO= T EigKep=  1.00D+00  NBF=    32    10
 NBsUse=    42 1.00D-06 EigRej= -1.00D+00 NBFU=    32    10
 Initial guess from the checkpoint file:  "geometry_chks/1234ClBzAnionRadical.chk"
 B after Tr=     0.000000   -0.000000   -0.000000
         Rot=    0.964652   -0.000000    0.000000    0.263528 Ang=  30.56 deg.
 Initial guess orbital symmetries:
 Alpha Orbitals:
       Occupied  (A') (A') (A') (A') (A') (A') (A') (A') (A') (A')
                 (A') (A') (A") (A') (A') (A") (A") (A") (A') (A')
                 (A') (A') (A") (A') (A') (A") (A") (A')
       Virtual   (A") (A") (A') (A') (A') (A') (A') (A") (A') (A')
                 (A') (A') (A') (A')
 Beta  Orbitals:
       Occupied  (A') (A') (A') (A') (A') (A') (A') (A') (A') (A')
                 (A') (A') (A") (A') (A') (A") (A") (A") (A') (A')
                 (A') (A') (A") (A') (A') (A") (A")
       Virtual   (A") (A") (A') (A') (A') (A') (A") (A') (A') (A')
                 (A') (A') (A') (A') (A')
 Initial guess <Sx>= 0.0000 <Sy>= 0.0000 <Sz>= 0.5000 <S**2>= 0.9185 S= 0.5809
 Keep J ints in memory in canonical form, NReq=864594.
 Overlap will be assumed to be unity.
 Requested convergence on RMS density matrix=1.00D-08 within  32 cycles.
 Requested convergence on MAX density matrix=1.00D-06.
 Requested convergence on             energy=1.00D-06.
 No special actions if energy rises.
 Fock symm off for IB=2 I1=    1 I=   33 J=    4 Cut=1.00D-07 Err=1.78D-03
 Fock matrix is not symmetric: symmetry in diagonalization turned off.
 >>>>>>>>>> Convergence criterion not met.
 SCF Done:  E(UAM1) =  0.128427196270     A.U. after   33 cycles
            NFock= 32  Conv=0.57D-06     -V/T= 1.0009
 <Sx>= 0.0000 <Sy>= 0.0000 <Sz>= 0.5000 <S**2>= 0.7928 S= 0.5212
 <L.S>=  0.00000000000    
 Annihilation of the first spin contaminant:
 S**2 before annihilation     0.7928,   after     0.7508
 Keep J ints in memory in canonical form, NReq=864994.
 LinEq1:  Iter=  0 NonCon=     1 RMS=1.88D-07 Max=3.20D-06 NDo=     1
 AX will form     1 AO Fock derivatives at one time.
 LinEq1:  Iter=  1 NonCon=     1 RMS=7.12D-09 Max=5.49D-08 NDo=     1
 LinEq1:  Iter=  2 NonCon=     1 RMS=2.21D-09 Max=2.79D-08 NDo=     1
 LinEq1:  Iter=  3 NonCon=     1 RMS=7.81D-10 Max=8.02D-09 NDo=     1
 LinEq1:  Iter=  4 NonCon=     1 RMS=2.04D-10 Max=2.54D-09 NDo=     1
 LinEq1:  Iter=  5 NonCon=     1 RMS=5.70D-11 Max=8.21D-10 NDo=     1
 LinEq1:  Iter=  6 NonCon=     1 RMS=1.50D-11 Max=1.98D-10 NDo=     1
 LinEq1:  Iter=  7 NonCon=     0 RMS=8.17D-12 Max=1.51D-10 NDo=     1
 Linear equations converged to 1.688D-11 1.688D-10 after     7 iterations.
 LinEq1:  Iter=  0 NonCon=     1 RMS=1.38D-06 Max=2.54D-05 NDo=     1
 LinEq1:  Iter=  1 NonCon=     1 RMS=5.96D-07 Max=8.51D-06 NDo=     1
 LinEq1:  Iter=  2 NonCon=     1 RMS=2.54D-07 Max=4.39D-06 NDo=     1
 LinEq1:  Iter=  3 NonCon=     1 RMS=6.82D-08 Max=9.70D-07 NDo=     1
 LinEq1:  Iter=  4 NonCon=     1 RMS=1.94D-08 Max=1.32D-07 NDo=     1
 LinEq1:  Iter=  5 NonCon=     1 RMS=5.54D-09 Max=5.58D-08 NDo=     1
 LinEq1:  Iter=  6 NonCon=     1 RMS=1.86D-09 Max=1.32D-08 NDo=     1
 LinEq1:  Iter=  7 NonCon=     1 RMS=4.19D-10 Max=3.36D-09 NDo=     1
 LinEq1:  Iter=  8 NonCon=     1 RMS=1.37D-10 Max=1.79D-09 NDo=     1
 LinEq1:  Iter=  9 NonCon=     0 RMS=3.98D-11 Max=5.60D-10 NDo=     1
 Linear equations converged to 1.669D-10 1.669D-09 after     9 iterations.
 LinEq1:  Iter=  0 NonCon=     1 RMS=3.53D-07 Max=4.96D-06 NDo=     1
 LinEq1:  Iter=  1 NonCon=     1 RMS=1.31D-07 Max=1.92D-06 NDo=     1
 LinEq1:  Iter=  2 NonCon=     1 RMS=4.12D-08 Max=3.67D-07 NDo=     1
 LinEq1:  Iter=  3 NonCon=     1 RMS=1.04D-08 Max=1.12D-07 NDo=     1
 LinEq1:  Iter=  4 NonCon=     1 RMS=3.26D-09 Max=2.99D-08 NDo=     1
 LinEq1:  Iter=  5 NonCon=     1 RMS=8.32D-10 Max=1.05D-08 NDo=     1
 LinEq1:  Iter=  6 NonCon=     1 RMS=3.16D-10 Max=5.36D-09 NDo=     1
 LinEq1:  Iter=  7 NonCon=     1 RMS=1.04D-10 Max=1.08D-09 NDo=     1
 LinEq1:  Iter=  8 NonCon=     1 RMS=4.22D-11 Max=6.50D-10 NDo=     1
 LinEq1:  Iter=  9 NonCon=     0 RMS=1.52D-11 Max=1.89D-10 NDo=     1
 Linear equations converged to 5.615D-11 5.615D-10 after     9 iterations.
 LinEq1:  Iter=  0 NonCon=     1 RMS=5.11D-07 Max=6.33D-06 NDo=     1
 LinEq1:  Iter=  1 NonCon=     1 RMS=2.98D-07 Max=6.22D-06 NDo=     1
 LinEq1:  Iter=  2 NonCon=     1 RMS=8.56D-08 Max=8.10D-07 NDo=     1
 LinEq1:  Iter=  3 NonCon=     1 RMS=3.34D-08 Max=4.48D-07 NDo=     1
 LinEq1:  Iter=  4 NonCon=     1 RMS=1.10D-08 Max=1.37D-07 NDo=     1
 LinEq1:  Iter=  5 NonCon=     1 RMS=2.75D-09 Max=2.73D-08 NDo=     1
 LinEq1:  Iter=  6 NonCon=     1 RMS=8.10D-10 Max=1.18D-08 NDo=     1
 LinEq1:  Iter=  7 NonCon=     1 RMS=2.57D-10 Max=2.92D-09 NDo=     1
 LinEq1:  Iter=  8 NonCon=     1 RMS=8.33D-11 Max=1.16D-09 NDo=     1
 LinEq1:  Iter=  9 NonCon=     0 RMS=3.16D-11 Max=4.86D-10 NDo=     1
 Linear equations converged to 8.381D-11 8.381D-10 after     9 iterations.
 LinEq1:  Iter=  0 NonCon=     1 RMS=9.72D-07 Max=1.42D-05 NDo=     1
 LinEq1:  Iter=  1 NonCon=     1 RMS=5.04D-07 Max=9.33D-06 NDo=     1
 LinEq1:  Iter=  2 NonCon=     1 RMS=1.98D-07 Max=2.44D-06 NDo=     1
 LinEq1:  Iter=  3 NonCon=     1 RMS=6.49D-08 Max=6.93D-07 NDo=     1
 LinEq1:  Iter=  4 NonCon=     1 RMS=2.69D-08 Max=4.64D-07 NDo=     1
 LinEq1:  Iter=  5 NonCon=     1 RMS=9.96D-09 Max=1.26D-07 NDo=     1
 LinEq1:  Iter=  6 NonCon=     1 RMS=3.18D-09 Max=2.64D-08 NDo=     1
 LinEq1:  Iter=  7 NonCon=     1 RMS=1.16D-09 Max=1.38D-08 NDo=     1
 LinEq1:  Iter=  8 NonCon=     1 RMS=4.48D-10 Max=5.13D-09 NDo=     1
 LinEq1:  Iter=  9 NonCon=     0 RMS=1.06D-10 Max=1.07D-09 NDo=     1
 Linear equations converged to 1.372D-10 1.372D-09 after     9 iterations.
 Incorrect curvature in search direction -- initial direction reversed.
     Minimum is close to point  3 DX= -3.95D-04 DF= -2.50D-16 DXR=  4.60D-03 DFR=  2.07D-05 which will be used.
 LinEq1:  Iter=  0 NonCon=     1 RMS=1.07D-06 Max=1.55D-05 NDo=     1
 LinEq1:  Iter=  1 NonCon=     1 RMS=5.57D-07 Max=1.02D-05 NDo=     1
 LinEq1:  Iter=  2 NonCon=     1 RMS=2.19D-07 Max=2.76D-06 NDo=     1
 LinEq1:  Iter=  3 NonCon=     1 RMS=7.24D-08 Max=7.21D-07 NDo=     1
 LinEq1:  Iter=  4 NonCon=     1 RMS=3.02D-08 Max=5.63D-07 NDo=     1
 LinEq1:  Iter=  5 NonCon=     1 RMS=1.09D-08 Max=1.34D-07 NDo=     1
 LinEq1:  Iter=  6 NonCon=     1 RMS=3.84D-09 Max=3.48D-08 NDo=     1
 LinEq1:  Iter=  7 NonCon=     1 RMS=1.18D-09 Max=1.05D-08 NDo=     1
 LinEq1:  Iter=  8 NonCon=     1 RMS=4.49D-10 Max=5.30D-09 NDo=     1
 LinEq1:  Iter=  9 NonCon=     0 RMS=1.22D-10 Max=1.15D-09 NDo=     1
 Linear equations converged to 1.590D-10 1.590D-09 after     9 iterations.
 LinEq1:  Iter=  0 NonCon=     1 RMS=8.28D-07 Max=9.34D-06 NDo=     1
 LinEq1:  Iter=  1 NonCon=     1 RMS=4.02D-07 Max=7.18D-06 NDo=     1
 LinEq1:  Iter=  2 NonCon=     1 RMS=1.56D-07 Max=2.00D-06 NDo=     1
 LinEq1:  Iter=  3 NonCon=     1 RMS=5.41D-08 Max=4.54D-07 NDo=     1
 LinEq1:  Iter=  4 NonCon=     1 RMS=2.22D-08 Max=3.51D-07 NDo=     1
 LinEq1:  Iter=  5 NonCon=     1 RMS=6.03D-09 Max=6.57D-08 NDo=     1
 LinEq1:  Iter=  6 NonCon=     1 RMS=3.18D-09 Max=3.68D-08 NDo=     1
 LinEq1:  Iter=  7 NonCon=     1 RMS=8.77D-10 Max=1.18D-08 NDo=     1
 LinEq1:  Iter=  8 NonCon=     1 RMS=2.56D-10 Max=2.56D-09 NDo=     1
 LinEq1:  Iter=  9 NonCon=     0 RMS=6.52D-11 Max=7.92D-10 NDo=     1
 Linear equations converged to 1.686D-10 1.686D-09 after     9 iterations.
 LinEq1:  Iter=  0 NonCon=     1 RMS=5.06D-07 Max=5.11D-06 NDo=     1
 LinEq1:  Iter=  1 NonCon=     1 RMS=2.41D-07 Max=3.73D-06 NDo=     1
 LinEq1:  Iter=  2 NonCon=     1 RMS=9.02D-08 Max=1.08D-06 NDo=     1
 LinEq1:  Iter=  3 NonCon=     1 RMS=3.20D-08 Max=3.62D-07 NDo=     1
 LinEq1:  Iter=  4 NonCon=     1 RMS=1.34D-08 Max=1.31D-07 NDo=     1
 LinEq1:  Iter=  5 NonCon=     1 RMS=3.44D-09 Max=4.44D-08 NDo=     1
 LinEq1:  Iter=  6 NonCon=     1 RMS=1.41D-09 Max=1.72D-08 NDo=     1
 LinEq1:  Iter=  7 NonCon=     1 RMS=5.94D-10 Max=9.78D-09 NDo=     1
 LinEq1:  Iter=  8 NonCon=     1 RMS=2.09D-10 Max=2.24D-09 NDo=     1
 LinEq1:  Iter=  9 NonCon=     0 RMS=3.94D-11 Max=2.93D-10 NDo=     1
 Linear equations converged to 9.708D-11 9.708D-10 after     9 iterations.
 Incorrect curvature in search direction -- initial direction reversed.
     Minimum is close to point  3 DX= -9.09D-04 DF= -2.27D-13 DXR=  1.11D-02 DFR=  1.24D-04 which will be used.
 LinEq1:  Iter=  0 NonCon=     1 RMS=2.08D-06 Max=1.52D-05 NDo=     1
 LinEq1:  Iter=  1 NonCon=     1 RMS=1.01D-06 Max=2.35D-05 NDo=     1
 LinEq1:  Iter=  2 NonCon=     1 RMS=3.71D-07 Max=3.55D-06 NDo=     1
 LinEq1:  Iter=  3 NonCon=     1 RMS=1.26D-07 Max=1.23D-06 NDo=     1
 LinEq1:  Iter=  4 NonCon=     1 RMS=5.27D-08 Max=1.10D-06 NDo=     1
 LinEq1:  Iter=  5 NonCon=     1 RMS=2.13D-08 Max=2.45D-07 NDo=     1
 LinEq1:  Iter=  6 NonCon=     1 RMS=4.97D-09 Max=4.37D-08 NDo=     1
 LinEq1:  Iter=  7 NonCon=     1 RMS=1.78D-09 Max=1.84D-08 NDo=     1
 LinEq1:  Iter=  8 NonCon=     1 RMS=4.73D-10 Max=5.44D-09 NDo=     1
 LinEq1:  Iter=  9 NonCon=     0 RMS=1.80D-10 Max=2.11D-09 NDo=     1
 Linear equations converged to 3.767D-10 3.767D-09 after     9 iterations.
 LinEq1:  Iter=  0 NonCon=     1 RMS=2.19D-07 Max=2.56D-06 NDo=     1
 LinEq1:  Iter=  1 NonCon=     1 RMS=9.42D-08 Max=9.29D-07 NDo=     1
 LinEq1:  Iter=  2 NonCon=     1 RMS=2.85D-08 Max=3.96D-07 NDo=     1
 LinEq1:  Iter=  3 NonCon=     1 RMS=1.19D-08 Max=1.58D-07 NDo=     1
 LinEq1:  Iter=  4 NonCon=     1 RMS=3.89D-09 Max=4.80D-08 NDo=     1
 LinEq1:  Iter=  5 NonCon=     1 RMS=1.30D-09 Max=1.09D-08 NDo=     1
 LinEq1:  Iter=  6 NonCon=     1 RMS=3.23D-10 Max=2.81D-09 NDo=     1
 LinEq1:  Iter=  7 NonCon=     1 RMS=1.17D-10 Max=2.30D-09 NDo=     1
 LinEq1:  Iter=  8 NonCon=     1 RMS=6.43D-11 Max=9.57D-10 NDo=     1
 LinEq1:  Iter=  9 NonCon=     0 RMS=2.31D-11 Max=1.69D-10 NDo=     1
 Linear equations converged to 3.899D-11 3.899D-10 after     9 iterations.
 LinEq1:  Iter=  0 NonCon=     1 RMS=1.20D-06 Max=8.79D-06 NDo=     1
 LinEq1:  Iter=  1 NonCon=     1 RMS=5.05D-07 Max=7.97D-06 NDo=     1
 LinEq1:  Iter=  2 NonCon=     1 RMS=2.61D-07 Max=4.40D-06 NDo=     1
 LinEq1:  Iter=  3 NonCon=     1 RMS=1.02D-07 Max=1.15D-06 NDo=     1
 LinEq1:  Iter=  4 NonCon=     1 RMS=3.11D-08 Max=2.30D-07 NDo=     1
 LinEq1:  Iter=  5 NonCon=     1 RMS=1.06D-08 Max=1.20D-07 NDo=     1
 LinEq1:  Iter=  6 NonCon=     1 RMS=3.40D-09 Max=3.52D-08 NDo=     1
 LinEq1:  Iter=  7 NonCon=     1 RMS=1.27D-09 Max=1.22D-08 NDo=     1
 LinEq1:  Iter=  8 NonCon=     1 RMS=4.45D-10 Max=4.85D-09 NDo=     1
 LinEq1:  Iter=  9 NonCon=     0 RMS=1.46D-10 Max=1.44D-09 NDo=     1
 Linear equations converged to 1.974D-10 1.974D-09 after     9 iterations.
 LinEq1:  Iter=  0 NonCon=     1 RMS=4.00D-07 Max=3.94D-06 NDo=     1
 LinEq1:  Iter=  1 NonCon=     1 RMS=1.94D-07 Max=3.06D-06 NDo=     1
 LinEq1:  Iter=  2 NonCon=     1 RMS=6.32D-08 Max=7.94D-07 NDo=     1
 LinEq1:  Iter=  3 NonCon=     1 RMS=2.40D-08 Max=3.21D-07 NDo=     1
 LinEq1:  Iter=  4 NonCon=     1 RMS=7.03D-09 Max=7.38D-08 NDo=     1
 LinEq1:  Iter=  5 NonCon=     1 RMS=2.43D-09 Max=3.22D-08 NDo=     1
 LinEq1:  Iter=  6 NonCon=     1 RMS=1.18D-09 Max=1.90D-08 NDo=     1
 LinEq1:  Iter=  7 NonCon=     1 RMS=4.10D-10 Max=5.41D-09 NDo=     1
 LinEq1:  Iter=  8 NonCon=     1 RMS=1.71D-10 Max=2.49D-09 NDo=     1
 LinEq1:  Iter=  9 NonCon=     1 RMS=6.59D-11 Max=8.21D-10 NDo=     1
 LinEq1:  Iter= 10 NonCon=     0 RMS=2.03D-11 Max=2.50D-10 NDo=     1
 Linear equations converged to 7.521D-11 7.521D-10 after    10 iterations.
 LinEq1:  Iter=  0 NonCon=     1 RMS=2.57D-07 Max=2.80D-06 NDo=     1
 LinEq1:  Iter=  1 NonCon=     1 RMS=1.25D-07 Max=2.01D-06 NDo=     1
 LinEq1:  Iter=  2 NonCon=     1 RMS=4.13D-08 Max=4.93D-07 NDo=     1
 LinEq1:  Iter=  3 NonCon=     1 RMS=1.61D-08 Max=1.85D-07 NDo=     1
 LinEq1:  Iter=  4 NonCon=     1 RMS=5.37D-09 Max=6.21D-08 NDo=     1
 LinEq1:  Iter=  5 NonCon=     1 RMS=1.46D-09 Max=2.35D-08 NDo=     1
 LinEq1:  Iter=  6 NonCon=     1 RMS=6.49D-10 Max=8.58D-09 NDo=     1
 LinEq1:  Iter=  7 NonCon=     1 RMS=2.22D-10 Max=2.27D-09 NDo=     1
 LinEq1:  Iter=  8 NonCon=     1 RMS=8.82D-11 Max=1.04D-09 NDo=     1
 LinEq1:  Iter=  9 NonCon=     0 RMS=2.83D-11 Max=2.46D-10 NDo=     1
 Linear equations converged to 4.906D-11 4.906D-10 after     9 iterations.
 LinEq1:  Iter=  0 NonCon=     1 RMS=3.00D-07 Max=2.60D-06 NDo=     1
 LinEq1:  Iter=  1 NonCon=     1 RMS=1.40D-07 Max=2.57D-06 NDo=     1
 LinEq1:  Iter=  2 NonCon=     1 RMS=5.08D-08 Max=5.29D-07 NDo=     1
 LinEq1:  Iter=  3 NonCon=     1 RMS=1.54D-08 Max=1.63D-07 NDo=     1
 LinEq1:  Iter=  4 NonCon=     1 RMS=6.53D-09 Max=9.75D-08 NDo=     1
 LinEq1:  Iter=  5 NonCon=     1 RMS=2.13D-09 Max=2.88D-08 NDo=     1
 LinEq1:  Iter=  6 NonCon=     1 RMS=5.86D-10 Max=6.96D-09 NDo=     1
 LinEq1:  Iter=  7 NonCon=     1 RMS=2.57D-10 Max=2.14D-09 NDo=     1
 LinEq1:  Iter=  8 NonCon=     1 RMS=7.57D-11 Max=8.27D-10 NDo=     1
 LinEq1:  Iter=  9 NonCon=     0 RMS=2.74D-11 Max=3.00D-10 NDo=     1
 Linear equations converged to 4.667D-11 4.667D-10 after     9 iterations.
 LinEq1:  Iter=  0 NonCon=     1 RMS=2.27D-07 Max=2.49D-06 NDo=     1
 LinEq1:  Iter=  1 NonCon=     1 RMS=1.16D-07 Max=1.77D-06 NDo=     1
 LinEq1:  Iter=  2 NonCon=     1 RMS=3.64D-08 Max=4.58D-07 NDo=     1
 LinEq1:  Iter=  3 NonCon=     1 RMS=1.47D-08 Max=1.50D-07 NDo=     1
 LinEq1:  Iter=  4 NonCon=     1 RMS=4.26D-09 Max=4.64D-08 NDo=     1
 LinEq1:  Iter=  5 NonCon=     1 RMS=1.26D-09 Max=2.00D-08 NDo=     1
 LinEq1:  Iter=  6 NonCon=     1 RMS=5.01D-10 Max=7.02D-09 NDo=     1
 LinEq1:  Iter=  7 NonCon=     1 RMS=2.01D-10 Max=1.95D-09 NDo=     1
 LinEq1:  Iter=  8 NonCon=     1 RMS=7.44D-11 Max=9.94D-10 NDo=     1
 LinEq1:  Iter=  9 NonCon=     0 RMS=2.61D-11 Max=2.79D-10 NDo=     1
 Linear equations converged to 3.964D-11 3.964D-10 after     9 iterations.
 LinEq1:  Iter=  0 NonCon=     1 RMS=2.58D-07 Max=2.77D-06 NDo=     1
 LinEq1:  Iter=  1 NonCon=     1 RMS=1.44D-07 Max=3.04D-06 NDo=     1
 LinEq1:  Iter=  2 NonCon=     1 RMS=4.49D-08 Max=4.58D-07 NDo=     1
 LinEq1:  Iter=  3 NonCon=     1 RMS=1.60D-08 Max=1.72D-07 NDo=     1
 LinEq1:  Iter=  4 NonCon=     1 RMS=6.37D-09 Max=8.85D-08 NDo=     1
 LinEq1:  Iter=  5 NonCon=     1 RMS=1.93D-09 Max=2.88D-08 NDo=     1
 LinEq1:  Iter=  6 NonCon=     1 RMS=5.96D-10 Max=7.37D-09 NDo=     1
 LinEq1:  Iter=  7 NonCon=     1 RMS=2.22D-10 Max=2.41D-09 NDo=     1
 LinEq1:  Iter=  8 NonCon=     1 RMS=5.68D-11 Max=6.94D-10 NDo=     1
 LinEq1:  Iter=  9 NonCon=     0 RMS=2.30D-11 Max=2.97D-10 NDo=     1
 Linear equations converged to 3.792D-11 3.792D-10 after     9 iterations.
 LinEq1:  Iter=  0 NonCon=     1 RMS=2.97D-07 Max=3.84D-06 NDo=     1
 LinEq1:  Iter=  1 NonCon=     1 RMS=1.68D-07 Max=2.91D-06 NDo=     1
 LinEq1:  Iter=  2 NonCon=     1 RMS=4.65D-08 Max=4.99D-07 NDo=     1
 LinEq1:  Iter=  3 NonCon=     1 RMS=1.69D-08 Max=1.50D-07 NDo=     1
 LinEq1:  Iter=  4 NonCon=     1 RMS=4.62D-09 Max=5.53D-08 NDo=     1
 LinEq1:  Iter=  5 NonCon=     1 RMS=1.47D-09 Max=2.42D-08 NDo=     1
 LinEq1:  Iter=  6 NonCon=     1 RMS=6.79D-10 Max=8.48D-09 NDo=     1
 LinEq1:  Iter=  7 NonCon=     1 RMS=2.93D-10 Max=3.08D-09 NDo=     1
 LinEq1:  Iter=  8 NonCon=     1 RMS=9.80D-11 Max=1.00D-09 NDo=     1
 LinEq1:  Iter=  9 NonCon=     1 RMS=3.87D-11 Max=5.81D-10 NDo=     1
 LinEq1:  Iter= 10 NonCon=     0 RMS=1.10D-11 Max=1.69D-10 NDo=     1
 Linear equations converged to 4.669D-11 4.669D-10 after    10 iterations.
 Incorrect curvature in search direction -- initial direction reversed.
 LinEq1:  Iter=  0 NonCon=     1 RMS=8.73D-07 Max=1.31D-05 NDo=     1
 LinEq1:  Iter=  1 NonCon=     1 RMS=4.65D-07 Max=9.44D-06 NDo=     1
 LinEq1:  Iter=  2 NonCon=     1 RMS=1.56D-07 Max=1.30D-06 NDo=     1
 LinEq1:  Iter=  3 NonCon=     1 RMS=5.35D-08 Max=5.32D-07 NDo=     1
 LinEq1:  Iter=  4 NonCon=     1 RMS=2.16D-08 Max=3.41D-07 NDo=     1
 LinEq1:  Iter=  5 NonCon=     1 RMS=9.46D-09 Max=1.54D-07 NDo=     1
 LinEq1:  Iter=  6 NonCon=     1 RMS=3.45D-09 Max=3.69D-08 NDo=     1
 LinEq1:  Iter=  7 NonCon=     1 RMS=1.22D-09 Max=1.54D-08 NDo=     1
 LinEq1:  Iter=  8 NonCon=     1 RMS=3.50D-10 Max=4.19D-09 NDo=     1
 LinEq1:  Iter=  9 NonCon=     1 RMS=8.93D-11 Max=1.34D-09 NDo=     1
 LinEq1:  Iter= 10 NonCon=     0 RMS=3.58D-11 Max=5.53D-10 NDo=     1
 Linear equations converged to 1.072D-10 1.072D-09 after    10 iterations.
 Incorrect curvature in search direction -- initial direction reversed.
     Note:  rotation exceeds Pi/2.
     Minimum is close to point 11 DX=  0.00D+00 DF=  0.00D+00 DXR=  0.00D+00 DFR=  0.00D+00 which will be used.
 LinEq1:  Iter=  0 NonCon=     1 RMS=5.60D-04 Max=7.81D-03 NDo=     1
 LinEq1:  Iter=  1 NonCon=     1 RMS=2.66D-04 Max=4.73D-03 NDo=     1
 LinEq1:  Iter=  2 NonCon=     1 RMS=9.25D-05 Max=9.50D-04 NDo=     1
 LinEq1:  Iter=  3 NonCon=     1 RMS=3.67D-05 Max=3.53D-04 NDo=     1
 LinEq1:  Iter=  4 NonCon=     1 RMS=1.37D-05 Max=2.21D-04 NDo=     1
 LinEq1:  Iter=  5 NonCon=     1 RMS=6.26D-06 Max=8.57D-05 NDo=     1
 LinEq1:  Iter=  6 NonCon=     1 RMS=1.72D-06 Max=2.11D-05 NDo=     1
 LinEq1:  Iter=  7 NonCon=     1 RMS=6.76D-07 Max=1.25D-05 NDo=     1
 LinEq1:  Iter=  8 NonCon=     1 RMS=2.45D-07 Max=3.14D-06 NDo=     1
 LinEq1:  Iter=  9 NonCon=     1 RMS=9.06D-08 Max=9.96D-07 NDo=     1
 LinEq1:  Iter= 10 NonCon=     1 RMS=1.84D-08 Max=2.28D-07 NDo=     1
 LinEq1:  Iter= 11 NonCon=     1 RMS=3.51D-09 Max=4.00D-08 NDo=     1
 LinEq1:  Iter= 12 NonCon=     0 RMS=8.31D-10 Max=9.21D-09 NDo=     1
 Linear equations converged to 2.823D-09 2.823D-08 after    12 iterations.
 Incorrect curvature in search direction -- initial direction reversed.
 Gradient too large for Newton-Raphson -- use scaled steepest descent instead.
 Gradient too large for Newton-Raphson -- use scaled steepest descent instead.
     Accept linear search using points  3 and  4.
     Minimum is close to point  4 DX= -2.38D-01 DF= -4.70D-05 DXR=  9.68D-02 DFR=  1.05D-02 which will be used.
 Gradient too large for Newton-Raphson -- use scaled steepest descent instead.
     Accept linear search using points  1 and  2.
 Gradient too large for Newton-Raphson -- use scaled steepest descent instead.
     Accept linear search using points  1 and  2.
 Gradient too large for Newton-Raphson -- use scaled steepest descent instead.
     Accept linear search using points  1 and  2.
 Gradient too large for Newton-Raphson -- use scaled steepest descent instead.
     Accept linear search using points  1 and  2.
     Minimum is close to point  2 DX= -5.54D-02 DF= -2.94D-06 DXR=  3.37D-02 DFR=  2.53D-03 which will be used.
 Gradient too large for Newton-Raphson -- use scaled steepest descent instead.
     Minimum is close to point  2 DX= -5.64D-02 DF= -9.68D-07 DXR=  3.43D-02 DFR=  1.18D-03 which will be used.
 Gradient too large for Newton-Raphson -- use scaled steepest descent instead.
 Gradient too large for Newton-Raphson -- use scaled steepest descent instead.
     Minimum is close to point  2 DX=  4.31D-03 DF= -3.54D-09 DXR=  2.39D-03 DFR=  5.72D-06 which will be used.
 Gradient too large for Newton-Raphson -- use scaled steepest descent instead.
 Gradient too large for Newton-Raphson -- use scaled steepest descent instead.
 Gradient too large for Newton-Raphson -- use scaled steepest descent instead.
 Gradient too large for Newton-Raphson -- use scaled steepest descent instead.
 Gradient too large for Newton-Raphson -- use scaled steepest descent instead.
 Gradient too large for Newton-Raphson -- use scaled steepest descent instead.
 Gradient too large for Newton-Raphson -- use scaled steepest descent instead.
 Gradient too large for Newton-Raphson -- use scaled steepest descent instead.
 Gradient too large for Newton-Raphson -- use scaled steepest descent instead.
     Minimum is close to point  2 DX=  4.92D-02 DF= -3.05D-06 DXR=  2.52D-02 DFR=  6.37D-04 which will be used.
 Gradient too large for Newton-Raphson -- use scaled steepest descent instead.
     Minimum is close to point  2 DX= -4.29D-02 DF= -2.46D-06 DXR=  2.44D-02 DFR=  5.97D-04 which will be used.
 Gradient too large for Newton-Raphson -- use scaled steepest descent instead.
 Gradient too large for Newton-Raphson -- use scaled steepest descent instead.
     Minimum is close to point  2 DX=  1.82D-01 DF= -1.86D-05 DXR=  9.66D-02 DFR=  9.41D-03 which will be used.
 Gradient too large for Newton-Raphson -- use scaled steepest descent instead.
     Minimum is close to point  2 DX=  1.02D-01 DF= -3.86D-06 DXR=  5.64D-02 DFR=  3.19D-03 which will be used.
 Gradient too large for Newton-Raphson -- use scaled steepest descent instead.
     Minimum is close to point  2 DX= -2.41D-02 DF= -1.31D-07 DXR=  1.36D-02 DFR=  1.84D-04 which will be used.
 Gradient too large for Newton-Raphson -- use scaled steepest descent instead.
     Accept linear search using points  1 and  2.
     Minimum is close to point  2 DX= -8.24D-02 DF= -2.15D-06 DXR=  4.80D-02 DFR=  5.35D-03 which will be used.
 LinEq1:  Iter=  0 NonCon=     1 RMS=7.70D-04 Max=8.19D-03 NDo=     1
 LinEq1:  Iter=  1 NonCon=     1 RMS=3.36D-04 Max=3.71D-03 NDo=     1
 LinEq1:  Iter=  2 NonCon=     1 RMS=1.51D-05 Max=1.22D-04 NDo=     1
 LinEq1:  Iter=  3 NonCon=     1 RMS=4.13D-06 Max=5.67D-05 NDo=     1
 LinEq1:  Iter=  4 NonCon=     1 RMS=1.15D-06 Max=1.29D-05 NDo=     1
 LinEq1:  Iter=  5 NonCon=     1 RMS=2.97D-07 Max=3.10D-06 NDo=     1
 LinEq1:  Iter=  6 NonCon=     1 RMS=7.86D-08 Max=7.51D-07 NDo=     1
 LinEq1:  Iter=  7 NonCon=     1 RMS=1.64D-08 Max=1.49D-07 NDo=     1
 LinEq1:  Iter=  8 NonCon=     1 RMS=3.81D-09 Max=3.57D-08 NDo=     1
 LinEq1:  Iter=  9 NonCon=     0 RMS=8.45D-10 Max=9.33D-09 NDo=     1
 Linear equations converged to 2.823D-09 2.823D-08 after     9 iterations.
     Accept linear search using points  1 and  2.
     Minimum is close to point  2 DX= -1.31D-02 DF= -1.00D-07 DXR=  1.32D-02 DFR=  1.77D-04 which will be used.
 LinEq1:  Iter=  0 NonCon=     1 RMS=6.21D-05 Max=7.45D-04 NDo=     1
 LinEq1:  Iter=  1 NonCon=     1 RMS=2.16D-05 Max=3.63D-04 NDo=     1
 LinEq1:  Iter=  2 NonCon=     1 RMS=5.36D-06 Max=6.86D-05 NDo=     1
 LinEq1:  Iter=  3 NonCon=     1 RMS=1.38D-06 Max=1.59D-05 NDo=     1
 LinEq1:  Iter=  4 NonCon=     1 RMS=4.26D-07 Max=5.22D-06 NDo=     1
 LinEq1:  Iter=  5 NonCon=     1 RMS=1.13D-07 Max=1.23D-06 NDo=     1
 LinEq1:  Iter=  6 NonCon=     1 RMS=3.05D-08 Max=3.30D-07 NDo=     1
 LinEq1:  Iter=  7 NonCon=     1 RMS=8.19D-09 Max=8.50D-08 NDo=     1
 LinEq1:  Iter=  8 NonCon=     0 RMS=1.79D-09 Max=8.67D-09 NDo=     1
 Linear equations converged to 2.823D-09 2.823D-08 after     8 iterations.
     Accept linear search using points  1 and  2.
 LinEq1:  Iter=  0 NonCon=     1 RMS=4.02D-05 Max=2.33D-04 NDo=     1
 LinEq1:  Iter=  1 NonCon=     1 RMS=1.22D-05 Max=1.58D-04 NDo=     1
 LinEq1:  Iter=  2 NonCon=     1 RMS=3.07D-06 Max=4.08D-05 NDo=     1
 LinEq1:  Iter=  3 NonCon=     1 RMS=8.33D-07 Max=1.03D-05 NDo=     1
 LinEq1:  Iter=  4 NonCon=     1 RMS=2.66D-07 Max=3.85D-06 NDo=     1
 LinEq1:  Iter=  5 NonCon=     1 RMS=7.11D-08 Max=8.91D-07 NDo=     1
 LinEq1:  Iter=  6 NonCon=     1 RMS=1.76D-08 Max=2.17D-07 NDo=     1
 LinEq1:  Iter=  7 NonCon=     1 RMS=4.33D-09 Max=4.51D-08 NDo=     1
 LinEq1:  Iter=  8 NonCon=     0 RMS=1.29D-09 Max=1.51D-08 NDo=     1
 Linear equations converged to 2.823D-09 2.823D-08 after     8 iterations.
     Accept linear search using points  1 and  2.
     Minimum is close to point  2 DX= -1.16D-02 DF= -3.07D-10 DXR=  1.18D-02 DFR=  1.39D-04 which will be used.
 LinEq1:  Iter=  0 NonCon=     1 RMS=1.11D-05 Max=1.30D-04 NDo=     1
 LinEq1:  Iter=  1 NonCon=     1 RMS=3.93D-06 Max=5.36D-05 NDo=     1
 LinEq1:  Iter=  2 NonCon=     1 RMS=9.38D-07 Max=1.13D-05 NDo=     1
 LinEq1:  Iter=  3 NonCon=     1 RMS=2.35D-07 Max=2.77D-06 NDo=     1
 LinEq1:  Iter=  4 NonCon=     1 RMS=6.59D-08 Max=9.05D-07 NDo=     1
 LinEq1:  Iter=  5 NonCon=     1 RMS=2.05D-08 Max=2.51D-07 NDo=     1
 LinEq1:  Iter=  6 NonCon=     1 RMS=5.45D-09 Max=6.54D-08 NDo=     1
 LinEq1:  Iter=  7 NonCon=     0 RMS=1.32D-09 Max=1.34D-08 NDo=     1
 Linear equations converged to 1.834D-09 1.834D-08 after     7 iterations.
     Accept linear search using points  1 and  2.
 LinEq1:  Iter=  0 NonCon=     1 RMS=8.40D-06 Max=1.08D-04 NDo=     1
 LinEq1:  Iter=  1 NonCon=     1 RMS=2.90D-06 Max=3.70D-05 NDo=     1
 LinEq1:  Iter=  2 NonCon=     1 RMS=5.49D-07 Max=5.72D-06 NDo=     1
 LinEq1:  Iter=  3 NonCon=     1 RMS=1.56D-07 Max=2.37D-06 NDo=     1
 LinEq1:  Iter=  4 NonCon=     1 RMS=4.58D-08 Max=5.21D-07 NDo=     1
 LinEq1:  Iter=  5 NonCon=     1 RMS=1.09D-08 Max=1.15D-07 NDo=     1
 LinEq1:  Iter=  6 NonCon=     1 RMS=2.70D-09 Max=2.31D-08 NDo=     1
 LinEq1:  Iter=  7 NonCon=     0 RMS=6.97D-10 Max=1.01D-08 NDo=     1
 Linear equations converged to 1.376D-09 1.376D-08 after     7 iterations.
     Accept linear search using points  1 and  2.
     Minimum is close to point  2 DX= -3.50D-03 DF= -1.61D-12 DXR=  3.51D-03 DFR=  1.23D-05 which will be used.
 LinEq1:  Iter=  0 NonCon=     1 RMS=2.73D-06 Max=3.92D-05 NDo=     1
 LinEq1:  Iter=  1 NonCon=     1 RMS=1.07D-06 Max=1.39D-05 NDo=     1
 LinEq1:  Iter=  2 NonCon=     1 RMS=2.29D-07 Max=3.09D-06 NDo=     1
 LinEq1:  Iter=  3 NonCon=     1 RMS=6.25D-08 Max=9.00D-07 NDo=     1
 LinEq1:  Iter=  4 NonCon=     1 RMS=1.77D-08 Max=2.36D-07 NDo=     1
 LinEq1:  Iter=  5 NonCon=     1 RMS=4.98D-09 Max=5.32D-08 NDo=     1
 LinEq1:  Iter=  6 NonCon=     1 RMS=1.18D-09 Max=1.35D-08 NDo=     1
 LinEq1:  Iter=  7 NonCon=     0 RMS=3.17D-10 Max=2.83D-09 NDo=     1
 Linear equations converged to 5.475D-10 5.475D-09 after     7 iterations.
 LinEq1:  Iter=  0 NonCon=     1 RMS=2.68D-06 Max=2.41D-05 NDo=     1
 LinEq1:  Iter=  1 NonCon=     1 RMS=9.26D-07 Max=8.81D-06 NDo=     1
 LinEq1:  Iter=  2 NonCon=     1 RMS=1.89D-07 Max=1.71D-06 NDo=     1
 LinEq1:  Iter=  3 NonCon=     1 RMS=5.17D-08 Max=5.25D-07 NDo=     1
 LinEq1:  Iter=  4 NonCon=     1 RMS=1.32D-08 Max=1.86D-07 NDo=     1
 LinEq1:  Iter=  5 NonCon=     1 RMS=4.31D-09 Max=5.07D-08 NDo=     1
 LinEq1:  Iter=  6 NonCon=     1 RMS=1.15D-09 Max=1.35D-08 NDo=     1
 LinEq1:  Iter=  7 NonCon=     0 RMS=3.25D-10 Max=3.54D-09 NDo=     1
 Linear equations converged to 4.716D-10 4.716D-09 after     7 iterations.
 LinEq1:  Iter=  0 NonCon=     1 RMS=4.63D-07 Max=5.04D-06 NDo=     1
 LinEq1:  Iter=  1 NonCon=     1 RMS=1.75D-07 Max=2.39D-06 NDo=     1
 LinEq1:  Iter=  2 NonCon=     1 RMS=4.55D-08 Max=5.79D-07 NDo=     1
 LinEq1:  Iter=  3 NonCon=     1 RMS=1.41D-08 Max=1.72D-07 NDo=     1
 LinEq1:  Iter=  4 NonCon=     1 RMS=3.36D-09 Max=3.47D-08 NDo=     1
 LinEq1:  Iter=  5 NonCon=     1 RMS=9.00D-10 Max=8.69D-09 NDo=     1
 LinEq1:  Iter=  6 NonCon=     1 RMS=2.07D-10 Max=2.44D-09 NDo=     1
 LinEq1:  Iter=  7 NonCon=     0 RMS=6.48D-11 Max=5.03D-10 NDo=     1
 Linear equations converged to 9.723D-11 9.723D-10 after     7 iterations.
 LinEq1:  Iter=  0 NonCon=     1 RMS=7.51D-07 Max=5.86D-06 NDo=     1
 LinEq1:  Iter=  1 NonCon=     1 RMS=2.61D-07 Max=2.49D-06 NDo=     1
 LinEq1:  Iter=  2 NonCon=     1 RMS=5.61D-08 Max=7.71D-07 NDo=     1
 LinEq1:  Iter=  3 NonCon=     1 RMS=1.56D-08 Max=1.70D-07 NDo=     1
 LinEq1:  Iter=  4 NonCon=     1 RMS=3.54D-09 Max=3.00D-08 NDo=     1
 LinEq1:  Iter=  5 NonCon=     1 RMS=9.75D-10 Max=1.24D-08 NDo=     1
 LinEq1:  Iter=  6 NonCon=     1 RMS=1.99D-10 Max=1.81D-09 NDo=     1
 LinEq1:  Iter=  7 NonCon=     0 RMS=4.97D-11 Max=4.60D-10 NDo=     1
 Linear equations converged to 1.356D-10 1.356D-09 after     7 iterations.
 SCF Done:  E(UAM1) =  0.709963045616E-01 a.u. after   53 cycles
            Convg  =    0.2154D-06                   365 Fock formations.
              S**2 =  0.8090                  -V/T =  1.0005
 <Sx>= 0.0000 <Sy>= 0.0000 <Sz>= 0.5000 <S**2>= 0.8090 S= 0.5291
 <L.S>=  0.00000000000    
 Annihilation of the first spin contaminant:
 S**2 before annihilation     0.8090,   after     0.7506
 Calling FoFJK, ICntrl=      2127 FMM=F ISym2X=1 I1Cent= 0 IOpClX= 1 NMat=1 NMatS=1 NMatT=0.
 ***** Axes restored to original set *****
 -------------------------------------------------------------------
 Center     Atomic                   Forces (Hartrees/Bohr)
 Number     Number              X              Y              Z
 -------------------------------------------------------------------
      1        6          -0.005811546    0.033326252   -0.000000000
      2        6          -0.027113937    0.020243466    0.000000000
      3        6           0.041443367    0.079508769    0.000000000
      4        6           0.180876129   -0.100750980    0.000000000
      5        6           0.008186267   -0.206886082    0.000000000
      6        6          -0.089654946   -0.001052113    0.000000000
      7       17          -0.003671252   -0.003458527    0.000000000
      8       17          -0.007079327    0.001749627   -0.000000000
      9       17           0.001636769    0.007105537   -0.000000000
     10       17           0.004745651    0.001714902    0.000000000
     11        1          -0.096242340    0.056924743   -0.000000000
     12        1          -0.007314834    0.111574406   -0.000000000
 -------------------------------------------------------------------
 Cartesian Forces:  Max     0.206886082 RMS     0.059922660

[...]
    D3        3.14159   0.00000   0.00000   0.00000   0.00000   3.14159
    D4        0.00000   0.00000   0.00000   0.00000   0.00000   0.00000
    D5        0.00000   0.00000   0.00000   0.00000  -0.00000   0.00000
    D6        3.14159   0.00000   0.00000   0.00000   0.00000   3.14159
    D7        3.14159  -0.00000   0.00000  -0.00000   0.00000   3.14159
    D8       -0.00000  -0.00000   0.00000  -0.00000   0.00000   0.00000
    D9       -0.00000  -0.00000   0.00000   0.00000   0.00000   0.00000
   D10        3.14159  -0.00000   0.00000  -0.00000   0.00000   3.14159
   D11        3.14159   0.00000   0.00000   0.00000   0.00000   3.14159
   D12        0.00000  -0.00000   0.00000  -0.00000  -0.00000   0.00000
   D13        0.00000   0.00000   0.00000   0.00000   0.00000   0.00000
   D14        3.14159  -0.00000   0.00000  -0.00000   0.00000   3.14159
   D15        3.14159   0.00000   0.00000   0.00000   0.00000   3.14159
   D16        0.00000   0.00000   0.00000   0.00000  -0.00000   0.00000
   D17        0.00000  -0.00000   0.00000  -0.00000  -0.00000   0.00000
   D18        3.14159  -0.00000   0.00000  -0.00000   0.00000   3.14159
   D19        3.14159   0.00000   0.00000   0.00000   0.00000   3.14159
   D20       -0.00000   0.00000   0.00000   0.00000   0.00000   0.00000
   D21       -0.00000   0.00000   0.00000   0.00000   0.00000   0.00000
   D22        3.14159  -0.00000   0.00000  -0.00000   0.00000   3.14159
   D23        3.14159   0.00000   0.00000   0.00000   0.00000   3.14159
   D24       -0.00000  -0.00000   0.00000  -0.00000   0.00000   0.00000
         Item               Value     Threshold  Converged?
 Maximum Force            0.000117     0.000450     YES
 RMS     Force            0.000037     0.000300     YES
 Maximum Displacement     0.000619     0.001800     YES
 RMS     Displacement     0.000202     0.001200     YES
 Predicted change in Energy=-9.714287D-08
 Optimization completed.
    -- Stationary point found.
                           ----------------------------
                           !   Optimized Parameters   !
                           ! (Angstroms and Degrees)  !
 --------------------------                            --------------------------
 ! Name  Definition              Value          Derivative Info.                !
 --------------------------------------------------------------------------------
 ! R1    R(1,2)                  1.3832         -DE/DX =   -0.0001              !
 ! R2    R(1,6)                  1.4155         -DE/DX =   -0.0001              !
 ! R3    R(1,8)                  1.7144         -DE/DX =   -0.0001              !
 ! R4    R(2,3)                  1.4155         -DE/DX =   -0.0001              !
 ! R5    R(2,9)                  1.7145         -DE/DX =   -0.0001              !
 ! R6    R(3,4)                  1.4185         -DE/DX =   -0.0001              !
 ! R7    R(3,10)                 1.7068         -DE/DX =    0.0                 !
 ! R8    R(4,5)                  1.3687         -DE/DX =    0.0001              !
 ! R9    R(4,11)                 1.0982         -DE/DX =    0.0                 !
 ! R10   R(5,6)                  1.4185         -DE/DX =   -0.0001              !
 ! R11   R(5,12)                 1.0982         -DE/DX =    0.0                 !
 ! R12   R(6,7)                  1.7068         -DE/DX =    0.0                 !
 ! A1    A(2,1,6)              120.1327         -DE/DX =    0.0                 !
 ! A2    A(2,1,8)              120.5616         -DE/DX =   -0.0001              !
 ! A3    A(6,1,8)              119.3056         -DE/DX =    0.0                 !
 ! A4    A(1,2,3)              120.1343         -DE/DX =    0.0                 !
 ! A5    A(1,2,9)              120.5603         -DE/DX =   -0.0001              !
 ! A6    A(3,2,9)              119.3053         -DE/DX =    0.0                 !
 ! A7    A(2,3,4)              119.4648         -DE/DX =    0.0                 !
 ! A8    A(2,3,10)             121.5472         -DE/DX =    0.0001              !
 ! A9    A(4,3,10)             118.988          -DE/DX =    0.0                 !
 ! A10   A(3,4,5)              120.4008         -DE/DX =    0.0                 !
 ! A11   A(3,4,11)             118.8297         -DE/DX =    0.0                 !
 ! A12   A(5,4,11)             120.7695         -DE/DX =    0.0                 !
 ! A13   A(4,5,6)              120.4029         -DE/DX =    0.0                 !
 ! A14   A(4,5,12)             120.7676         -DE/DX =    0.0                 !
 ! A15   A(6,5,12)             118.8296         -DE/DX =    0.0                 !
 ! A16   A(1,6,5)              119.4645         -DE/DX =    0.0                 !
 ! A17   A(1,6,7)              121.5463         -DE/DX =    0.0001              !
 ! A18   A(5,6,7)              118.9893         -DE/DX =    0.0                 !
 ! D1    D(6,1,2,3)              0.0            -DE/DX =    0.0                 !
 ! D2    D(6,1,2,9)            180.0            -DE/DX =    0.0                 !
 ! D3    D(8,1,2,3)            180.0            -DE/DX =    0.0                 !
 ! D4    D(8,1,2,9)              0.0            -DE/DX =    0.0                 !
 ! D5    D(2,1,6,5)              0.0            -DE/DX =    0.0                 !
 ! D6    D(2,1,6,7)            180.0            -DE/DX =    0.0                 !
 ! D7    D(8,1,6,5)            180.0            -DE/DX =    0.0                 !
 ! D8    D(8,1,6,7)              0.0            -DE/DX =    0.0                 !
 ! D9    D(1,2,3,4)              0.0            -DE/DX =    0.0                 !
 ! D10   D(1,2,3,10)           180.0            -DE/DX =    0.0                 !
 ! D11   D(9,2,3,4)            180.0            -DE/DX =    0.0                 !
 ! D12   D(9,2,3,10)             0.0            -DE/DX =    0.0                 !
 ! D13   D(2,3,4,5)              0.0            -DE/DX =    0.0                 !
 ! D14   D(2,3,4,11)           180.0            -DE/DX =    0.0                 !
 ! D15   D(10,3,4,5)           180.0            -DE/DX =    0.0                 !
 ! D16   D(10,3,4,11)            0.0            -DE/DX =    0.0                 !
 ! D17   D(3,4,5,6)              0.0            -DE/DX =    0.0                 !
 ! D18   D(3,4,5,12)           180.0            -DE/DX =    0.0                 !
 ! D19   D(11,4,5,6)           180.0            -DE/DX =    0.0                 !
 ! D20   D(11,4,5,12)            0.0            -DE/DX =    0.0                 !
 ! D21   D(4,5,6,1)              0.0            -DE/DX =    0.0                 !
 ! D22   D(4,5,6,7)            180.0            -DE/DX =    0.0                 !
 ! D23   D(12,5,6,1)           180.0            -DE/DX =    0.0                 !
 ! D24   D(12,5,6,7)             0.0            -DE/DX =    0.0                 !
 --------------------------------------------------------------------------------
 GradGradGradGradGradGradGradGradGradGradGradGradGradGradGradGradGradGrad

                          Input orientation:                          
 ---------------------------------------------------------------------
 Center     Atomic      Atomic             Coordinates (Angstroms)
 Number     Number       Type             X           Y           Z
 ---------------------------------------------------------------------
      1          6           0       -3.160157    0.141178   -0.000000
      2          6           0       -1.981709    0.865399    0.000000
      3          6           0       -0.735329    0.194499    0.000000
      4          6           0       -0.706311   -1.223736    0.000000
      5          6           0       -1.872393   -1.940356    0.000000
      6          6           0       -3.124578   -1.273880   -0.000000
      7         17           0       -4.556212   -2.203117   -0.000000
      8         17           0       -4.675811    0.942502   -0.000000
      9         17           0       -2.012011    2.579588    0.000000
     10         17           0        0.740385    1.052012    0.000000
     11          1           0        0.266383   -1.733493    0.000000
     12          1           0       -1.856957   -3.038425    0.000000
 ---------------------------------------------------------------------
                    Distance matrix (angstroms):
                    1          2          3          4          5
     1  C    0.000000
     2  C    1.383197   0.000000
     3  C    2.425414   1.415476   0.000000
     4  C    2.807908   2.447678   1.418532   0.000000
     5  C    2.447676   2.807884   2.418785   1.368683   0.000000
     6  C    1.415505   2.425420   2.804398   2.418787   1.418505
     7  Cl   2.728496   4.005478   4.510844   3.972521   2.696651
     8  Cl   1.714447   2.695205   4.010849   4.522115   4.021197
     9  Cl   2.695196   1.714456   2.705285   4.021209   4.522099
    10  Cl   4.005477   2.728484   1.706769   2.696657   3.972515
    11  H    3.905837   3.436300   2.172689   1.098174   2.148757
    12  H    3.436307   3.905817   3.421966   2.148740   1.098178
                    6          7          8          9         10
     6  C    0.000000
     7  Cl   1.706768   0.000000
     8  Cl   2.705305   3.147892   0.000000
     9  Cl   4.010862   5.417308   3.126640   0.000000
    10  Cl   4.510844   6.216897   5.417303   3.147883   0.000000
    11  H    3.421967   4.845407   5.620163   4.877883   2.825547
    12  H    2.172667   2.825548   4.877881   5.620152   4.845396
                   11         12
    11  H    0.000000
    12  H    2.492272   0.000000
 Stoichiometry    C6H2Cl4(1-,2)
 Framework group  CS[SG(C6H2Cl4)]
 Deg. of freedom    21
 Full point group                 CS      NOp   2
 Largest Abelian subgroup         CS      NOp   2
 Largest concise Abelian subgroup C1      NOp   1
                         Standard orientation:                         
 ---------------------------------------------------------------------
 Center     Atomic      Atomic             Coordinates (Angstroms)
 Number     Number       Type             X           Y           Z
 ---------------------------------------------------------------------
      1          6           0       -0.708301   -0.382912    0.000000
      2          6           0        0.000000    0.805173   -0.000000
      3          6           0        1.415380    0.788675   -0.000000
      4          6           0        2.098696   -0.454431   -0.000000
      5          6           0        1.397826   -1.630047   -0.000000
      6          6           0       -0.020644   -1.620160    0.000000
      7         17           0       -0.858209   -3.107286    0.000000
      8         17           0       -2.422733   -0.375714    0.000000
      9         17           0       -0.821681    2.309899    0.000000
     10         17           0        2.325255    2.232692   -0.000000
     11          1           0        3.196870   -0.455059   -0.000000
     12          1           0        1.920655   -2.595782   -0.000000
 ---------------------------------------------------------------------
 Rotational constants (GHZ):           1.1554730           0.5494848           0.3723933

 **********************************************************************

            Population analysis using the SCF Density.

 **********************************************************************

 Orbital symmetries:
 Alpha Orbitals:
       Occupied  (A') (A') (A') (A') (A') (A') (A') (A') (A') (A')
                 (A') (A') (A") (A') (A') (A") (A') (A') (A") (A")
                 (A') (A') (A') (A') (A") (A") (A") (A")
       Virtual   (A") (A') (A') (A') (A') (A") (A') (A') (A') (A')
                 (A') (A') (A') (A')
 Beta  Orbitals:
       Occupied  (A') (A') (A') (A') (A') (A') (A') (A') (A') (A')
                 (A') (A') (A') (A') (A") (A") (A') (A') (A") (A")
                 (A') (A') (A') (A') (A") (A") (A")
       Virtual   (A") (A') (A") (A') (A') (A') (A") (A') (A') (A')
                 (A') (A') (A') (A') (A')
 The electronic state is 2-A".
 Alpha  occ. eigenvalues --   -1.28562  -1.22966  -1.22387  -1.21445  -1.18808
 Alpha  occ. eigenvalues --   -0.98739  -0.95255  -0.71163  -0.69696  -0.52159
 Alpha  occ. eigenvalues --   -0.47470  -0.46003  -0.40021  -0.39860  -0.39210
 Alpha  occ. eigenvalues --   -0.34528  -0.33209  -0.33165  -0.32838  -0.31112
 Alpha  occ. eigenvalues --   -0.28631  -0.27976  -0.27765  -0.27066  -0.26875
 Alpha  occ. eigenvalues --   -0.19932  -0.19428  -0.07530
 Alpha virt. eigenvalues --    0.18464   0.19360   0.20830   0.21872   0.22707
 Alpha virt. eigenvalues --    0.22914   0.30249   0.31002   0.33019   0.34099
 Alpha virt. eigenvalues --    0.34659   0.35229   0.36627   0.37779
  Beta  occ. eigenvalues --   -1.27919  -1.22864  -1.22285  -1.21437  -1.18650
  Beta  occ. eigenvalues --   -0.98627  -0.93566  -0.69696  -0.69507  -0.51962
  Beta  occ. eigenvalues --   -0.46972  -0.45768  -0.39546  -0.39193  -0.39051
  Beta  occ. eigenvalues --   -0.33540  -0.33108  -0.33073  -0.32123  -0.30943
  Beta  occ. eigenvalues --   -0.28518  -0.27967  -0.27776  -0.27011  -0.26014
  Beta  occ. eigenvalues --   -0.18911  -0.14305
  Beta virt. eigenvalues --    0.17322   0.19509   0.20208   0.21389   0.22779
  Beta virt. eigenvalues --    0.24092   0.27553   0.30530   0.31388   0.33942
  Beta virt. eigenvalues --    0.34807   0.35245   0.36145   0.37084   0.38450
          Condensed to atoms (all electrons):
               1          2          3          4          5          6
     1  C    4.046582   0.000000   0.000000   0.000000   0.000000   0.000000
     2  C    0.000000   4.046386   0.000000   0.000000   0.000000   0.000000
     3  C    0.000000   0.000000   4.241358   0.000000   0.000000   0.000000
     4  C    0.000000   0.000000   0.000000   4.130083   0.000000   0.000000
     5  C    0.000000   0.000000   0.000000   0.000000   4.129906   0.000000
     6  C    0.000000   0.000000   0.000000   0.000000   0.000000   4.241366
     7  Cl   0.000000   0.000000   0.000000   0.000000   0.000000   0.000000
     8  Cl   0.000000   0.000000   0.000000   0.000000   0.000000   0.000000
     9  Cl   0.000000   0.000000   0.000000   0.000000   0.000000   0.000000
    10  Cl   0.000000   0.000000   0.000000   0.000000   0.000000   0.000000
    11  H    0.000000   0.000000   0.000000   0.000000   0.000000   0.000000
    12  H    0.000000   0.000000   0.000000   0.000000   0.000000   0.000000
               7          8          9         10         11         12
     1  C    0.000000   0.000000   0.000000   0.000000   0.000000   0.000000
     2  C    0.000000   0.000000   0.000000   0.000000   0.000000   0.000000
     3  C    0.000000   0.000000   0.000000   0.000000   0.000000   0.000000
     4  C    0.000000   0.000000   0.000000   0.000000   0.000000   0.000000
     5  C    0.000000   0.000000   0.000000   0.000000   0.000000   0.000000
     6  C    0.000000   0.000000   0.000000   0.000000   0.000000   0.000000
     7  Cl   7.099155   0.000000   0.000000   0.000000   0.000000   0.000000
     8  Cl   0.000000   7.083061   0.000000   0.000000   0.000000   0.000000
     9  Cl   0.000000   0.000000   7.083065   0.000000   0.000000   0.000000
    10  Cl   0.000000   0.000000   0.000000   7.099153   0.000000   0.000000
    11  H    0.000000   0.000000   0.000000   0.000000   0.899938   0.000000
    12  H    0.000000   0.000000   0.000000   0.000000   0.000000   0.899947
          Atomic-Atomic Spin Densities.
               1          2          3          4          5          6
     1  C   -0.035034   0.000000   0.000000   0.000000   0.000000   0.000000
     2  C    0.000000  -0.035560   0.000000   0.000000   0.000000   0.000000
     3  C    0.000000   0.000000   0.554870   0.000000   0.000000   0.000000
     4  C    0.000000   0.000000   0.000000  -0.004330   0.000000   0.000000
     5  C    0.000000   0.000000   0.000000   0.000000  -0.004824   0.000000
     6  C    0.000000   0.000000   0.000000   0.000000   0.000000   0.554895
     7  Cl   0.000000   0.000000   0.000000   0.000000   0.000000   0.000000
     8  Cl   0.000000   0.000000   0.000000   0.000000   0.000000   0.000000
     9  Cl   0.000000   0.000000   0.000000   0.000000   0.000000   0.000000
    10  Cl   0.000000   0.000000   0.000000   0.000000   0.000000   0.000000
    11  H    0.000000   0.000000   0.000000   0.000000   0.000000   0.000000
    12  H    0.000000   0.000000   0.000000   0.000000   0.000000   0.000000
               7          8          9         10         11         12
     1  C    0.000000   0.000000   0.000000   0.000000   0.000000   0.000000
     2  C    0.000000   0.000000   0.000000   0.000000   0.000000   0.000000
     3  C    0.000000   0.000000   0.000000   0.000000   0.000000   0.000000
     4  C    0.000000   0.000000   0.000000   0.000000   0.000000   0.000000
     5  C    0.000000   0.000000   0.000000   0.000000   0.000000   0.000000
     6  C    0.000000   0.000000   0.000000   0.000000   0.000000   0.000000
     7  Cl  -0.010342   0.000000   0.000000   0.000000   0.000000   0.000000
     8  Cl   0.000000  -0.002546   0.000000   0.000000   0.000000   0.000000
     9  Cl   0.000000   0.000000  -0.002541   0.000000   0.000000   0.000000
    10  Cl   0.000000   0.000000   0.000000  -0.010341   0.000000   0.000000
    11  H    0.000000   0.000000   0.000000   0.000000  -0.002136   0.000000
    12  H    0.000000   0.000000   0.000000   0.000000   0.000000  -0.002110
 Mulliken charges and spin densities:
               1          2
     1  C   -0.046582  -0.035034
     2  C   -0.046386  -0.035560
     3  C   -0.241358   0.554870
     4  C   -0.130083  -0.004330
     5  C   -0.129906  -0.004824
     6  C   -0.241366   0.554895
     7  Cl  -0.099155  -0.010342
     8  Cl  -0.083061  -0.002546
     9  Cl  -0.083065  -0.002541
    10  Cl  -0.099153  -0.010341
    11  H    0.100062  -0.002136
    12  H    0.100053  -0.002110
 Sum of Mulliken charges =  -1.00000   1.00000
 Mulliken charges and spin densities with hydrogens summed into heavy atoms:
               1          2
     1  C   -0.046582  -0.035034
     2  C   -0.046386  -0.035560
     3  C   -0.241358   0.554870
     4  C   -0.030021  -0.006466
     5  C   -0.029853  -0.006934
     6  C   -0.241366   0.554895
     7  Cl  -0.099155  -0.010342
     8  Cl  -0.083061  -0.002546
     9  Cl  -0.083065  -0.002541
    10  Cl  -0.099153  -0.010341
 Charge=             -1.0000 electrons
 Dipole moment (field-independent basis, Debye):
    X=             -0.7252    Y=              0.4326    Z=              0.0000  Tot=              0.8444
 N-N= 3.069330077976D+02 E-N=-4.463373303471D+02  KE=-1.365890751013D+02
 Symmetry A'   KE=-1.035213151700D+02
 Symmetry A"   KE=-3.306775993131D+01
 Symmetry A'   SP=-2.109423746788D-15
 Symmetry A"   SP= 1.000000000000D+00
 1\1\GINC-SH02-01N33\FOpt\UAM1\ZDO\C6H2Cl4(1-,2)\JLAPIER\09-Dec-2025\0\
 \# opt am1 SCF=XQC\\4-Chloro-Benzene Anion Radical (1234)\\-1,2\C,-3.1
 601567542,0.1411777774,0.\C,-1.9817094722,0.8653988994,0.\C,-0.7353285
 859,0.1944988935,0.\C,-0.7063109815,-1.2237361458,0.\C,-1.8723933236,-
 1.9403561282,0.\C,-3.1245776917,-1.2738800401,0.\Cl,-4.5562121871,-2.2
 031168304,0.\Cl,-4.6758111482,0.9425023148,0.\Cl,-2.0120108025,2.57958
 75453,0.\Cl,0.7403850177,1.0520121334,0.\H,0.2663828235,-1.7334932615,
 0.\H,-1.8569568945,-3.0384251579,0.\\Version=ES64L-G16RevB.01\State=2-
 A"\HF=-0.0508522\S2=0.823965\S2-1=0.\S2A=0.750796\RMSD=1.871e-09\RMSF=
 3.489e-05\Dipole=-0.173873,0.2830737,0.\PG=CS [SG(C6H2Cl4)]\\@


 THE POLHOLDE ROLLS WITHOUT SLIPPING ON THE HERPOLHOLDE LYING IN
 THE INVARIABLE PLANE.
 H.GOLDSTEIN, "CLASSICAL MECHANICS", PG 161
 Job cpu time:       0 days  0 hours  0 minutes 10.4 seconds.
 Elapsed time:       0 days  0 hours  0 minutes 21.9 seconds.
 File lengths (MBytes):  RWF=     15 Int=      0 D2E=      0 Chk=      2 Scr=      1
 Normal termination of Gaussian 16 at Tue Dec  9 09:59:01 2025.
