 Entering Gaussian System, Link 0=g16
 Initial command:
 /share/software/user/restricted/gaussian/g16.B01/l1.exe "/home/users/jlapier/Chloroaromatics/Gau-16459.inp" -scrdir="/home/users/jlapier/Chloroaromatics/"
 Entering Link 1 = /share/software/user/restricted/gaussian/g16.B01/l1.exe PID=     16460.
  
 Copyright (c) 1988-2017, Gaussian, Inc.  All Rights Reserved.
  
 This is part of the Gaussian(R) 16 program.  It is based on
 the Gaussian(R) 09 system (copyright 2009, Gaussian, Inc.),
 the Gaussian(R) 03 system (copyright 2003, Gaussian, Inc.),
 the Gaussian(R) 98 system (copyright 1998, Gaussian, Inc.),
 the Gaussian(R) 94 system (copyright 1995, Gaussian, Inc.),
 the Gaussian 92(TM) system (copyright 1992, Gaussian, Inc.),
 the Gaussian 90(TM) system (copyright 1990, Gaussian, Inc.),
 the Gaussian 88(TM) system (copyright 1988, Gaussian, Inc.),
 the Gaussian 86(TM) system (copyright 1986, Carnegie Mellon
 University), and the Gaussian 82(TM) system (copyright 1983,
 Carnegie Mellon University). Gaussian is a federally registered
 trademark of Gaussian, Inc.
  
 This software contains proprietary and confidential information,
 including trade secrets, belonging to Gaussian, Inc.
  
 This software is provided under written license and may be
 used, copied, transmitted, or stored only in accord with that
 written license.
  
 The following legend is applicable only to US Government
 contracts under FAR:
  
                    RESTRICTED RIGHTS LEGEND
  
 Use, reproduction and disclosure by the US Government is
 subject to restrictions as set forth in subparagraphs (a)
 and (c) of the Commercial Computer Software - Restricted
 Rights clause in FAR 52.227-19.
  
 Gaussian, Inc.
 340 Quinnipiac St., Bldg. 40, Wallingford CT 06492
  
  
 ---------------------------------------------------------------
 Warning -- This program may not be used in any manner that
 competes with the business of Gaussian, Inc. or will provide
 assistance to any competitor of Gaussian, Inc.  The licensee
 of this program is prohibited from giving any competitor of
 Gaussian, Inc. access to this program.  By using this program,
 the user acknowledges that Gaussian, Inc. is engaged in the
 business of creating and licensing software in the field of
 computational chemistry and represents and warrants to the
 licensee that it is not a competitor of Gaussian, Inc. and that
 it will not use this program in any manner prohibited above.
 ---------------------------------------------------------------
  

 Cite this work as:
 Gaussian 16, Revision B.01,
 M. J. Frisch, G. W. Trucks, H. B. Schlegel, G. E. Scuseria, 
 M. A. Robb, J. R. Cheeseman, G. Scalmani, V. Barone, 
 G. A. Petersson, H. Nakatsuji, X. Li, M. Caricato, A. V. Marenich, 
 J. Bloino, B. G. Janesko, R. Gomperts, B. Mennucci, H. P. Hratchian, 
 J. V. Ortiz, A. F. Izmaylov, J. L. Sonnenberg, D. Williams-Young, 
 F. Ding, F. Lipparini, F. Egidi, J. Goings, B. Peng, A. Petrone, 
 T. Henderson, D. Ranasinghe, V. G. Zakrzewski, J. Gao, N. Rega, 
 G. Zheng, W. Liang, M. Hada, M. Ehara, K. Toyota, R. Fukuda, 
 J. Hasegawa, M. Ishida, T. Nakajima, Y. Honda, O. Kitao, H. Nakai, 
 T. Vreven, K. Throssell, J. A. Montgomery, Jr., J. E. Peralta, 
 F. Ogliaro, M. J. Bearpark, J. J. Heyd, E. N. Brothers, K. N. Kudin, 
 V. N. Staroverov, T. A. Keith, R. Kobayashi, J. Normand, 
 K. Raghavachari, A. P. Rendell, J. C. Burant, S. S. Iyengar, 
 J. Tomasi, M. Cossi, J. M. Millam, M. Klene, C. Adamo, R. Cammi, 
 J. W. Ochterski, R. L. Martin, K. Morokuma, O. Farkas, 
 J. B. Foresman, and D. J. Fox, Gaussian, Inc., Wallingford CT, 2016.
 
 ******************************************
 Gaussian 16:  ES64L-G16RevB.01 20-Dec-2017
                 9-Dec-2025 
 ******************************************
 %mem=2GB
 %nprocshare=1
 Will use up to    1 processors via shared memory.
 %chk=geometry_chks/1234ClBz.chk
 -----------------
 # opt am1 SCF=XQC
 -----------------
 1/18=20,19=15,26=1,38=1/1,3;
 2/9=110,12=2,17=6,18=5,40=1/2;
 3/5=2,25=1,41=700000,71=1/1,2,3;
 4/35=1/1;
 5/5=2,8=3,13=1,35=1,38=5/2,8;
 6/7=2,8=2,9=2,10=2,28=1/1;
 7//1,2,3,16;
 1/18=20,19=15,26=1/3(2);
 2/9=110/2;
 99//99;
 2/9=110/2;
 3/5=2,25=1,41=700000,71=1,135=20/1,2,3;
 4/5=5,16=3,35=1/1;
 5/5=2,8=3,13=1,35=1,38=5/2,8;
 7//1,2,3,16;
 1/18=20,19=15,26=1/3(-5);
 2/9=110/2;
 6/7=2,8=2,9=2,10=2,19=2,28=1/1;
 99/9=1/99;
 -----------------------
 4-Chloro-Benzene (1234)
 -----------------------
 Symbolic Z-matrix:
 Charge =  0 Multiplicity = 1
 C                    -3.20928   0.19943   0. 
 C                    -2.0115    0.93555   0. 
 C                    -0.77511   0.2663    0. 
 C                    -0.7365   -1.13907   0. 
 C                    -1.93429  -1.87519   0. 
 C                    -3.17067  -1.20594   0. 
 Cl                   -4.67483  -2.13035   0. 
 Cl                   -4.76193   1.03987   0. 
 Cl                   -2.05998   2.7004    0. 
 Cl                    0.72905   1.19071   0. 
 H                     0.81614  -1.97951   0. 
 H                    -1.8858   -3.64003   0. 
 
 Add virtual bond connecting atoms H12        and C5         Dist= 3.34D+00.
 Add virtual bond connecting atoms H11        and C4         Dist= 3.34D+00.

 GradGradGradGradGradGradGradGradGradGradGradGradGradGradGradGradGradGrad
 Berny optimization.
 Initialization pass.
                           ----------------------------
                           !    Initial Parameters    !
                           ! (Angstroms and Degrees)  !
 --------------------------                            --------------------------
 ! Name  Definition              Value          Derivative Info.                !
 --------------------------------------------------------------------------------
 ! R1    R(1,2)                  1.4059         estimate D2E/DX2                !
 ! R2    R(1,6)                  1.4059         estimate D2E/DX2                !
 ! R3    R(1,8)                  1.7655         estimate D2E/DX2                !
 ! R4    R(2,3)                  1.4059         estimate D2E/DX2                !
 ! R5    R(2,9)                  1.7655         estimate D2E/DX2                !
 ! R6    R(3,4)                  1.4059         estimate D2E/DX2                !
 ! R7    R(3,10)                 1.7655         estimate D2E/DX2                !
 ! R8    R(4,5)                  1.4059         estimate D2E/DX2                !
 ! R9    R(4,11)                 1.7655         estimate D2E/DX2                !
 ! R10   R(5,6)                  1.4059         estimate D2E/DX2                !
 ! R11   R(5,12)                 1.7655         estimate D2E/DX2                !
 ! R12   R(6,7)                  1.7655         estimate D2E/DX2                !
 ! A1    A(2,1,6)              119.9999         estimate D2E/DX2                !
 ! A2    A(2,1,8)              119.9999         estimate D2E/DX2                !
 ! A3    A(6,1,8)              120.0001         estimate D2E/DX2                !
 ! A4    A(1,2,3)              120.0            estimate D2E/DX2                !
 ! A5    A(1,2,9)              120.0001         estimate D2E/DX2                !
 ! A6    A(3,2,9)              119.9999         estimate D2E/DX2                !
 ! A7    A(2,3,4)              120.0001         estimate D2E/DX2                !
 ! A8    A(2,3,10)             120.0            estimate D2E/DX2                !
 ! A9    A(4,3,10)             119.9999         estimate D2E/DX2                !
 ! A10   A(3,4,5)              119.9997         estimate D2E/DX2                !
 ! A11   A(3,4,11)             120.0003         estimate D2E/DX2                !
 ! A12   A(5,4,11)             120.0            estimate D2E/DX2                !
 ! A13   A(4,5,6)              120.0            estimate D2E/DX2                !
 ! A14   A(4,5,12)             119.9996         estimate D2E/DX2                !
 ! A15   A(6,5,12)             120.0004         estimate D2E/DX2                !
 ! A16   A(1,6,5)              120.0003         estimate D2E/DX2                !
 ! A17   A(1,6,7)              119.9999         estimate D2E/DX2                !
 ! A18   A(5,6,7)              119.9998         estimate D2E/DX2                !
 ! D1    D(6,1,2,3)              0.0            estimate D2E/DX2                !
 ! D2    D(6,1,2,9)            180.0            estimate D2E/DX2                !
 ! D3    D(8,1,2,3)            180.0            estimate D2E/DX2                !
 ! D4    D(8,1,2,9)              0.0            estimate D2E/DX2                !
 ! D5    D(2,1,6,5)              0.0            estimate D2E/DX2                !
 ! D6    D(2,1,6,7)            180.0            estimate D2E/DX2                !
 ! D7    D(8,1,6,5)            180.0            estimate D2E/DX2                !
 ! D8    D(8,1,6,7)              0.0            estimate D2E/DX2                !
 ! D9    D(1,2,3,4)              0.0            estimate D2E/DX2                !
 ! D10   D(1,2,3,10)           180.0            estimate D2E/DX2                !
 ! D11   D(9,2,3,4)            180.0            estimate D2E/DX2                !
 ! D12   D(9,2,3,10)             0.0            estimate D2E/DX2                !
 ! D13   D(2,3,4,5)              0.0            estimate D2E/DX2                !
 ! D14   D(2,3,4,11)           180.0            estimate D2E/DX2                !
 ! D15   D(10,3,4,5)           180.0            estimate D2E/DX2                !
 ! D16   D(10,3,4,11)            0.0            estimate D2E/DX2                !
 ! D17   D(3,4,5,6)              0.0            estimate D2E/DX2                !
 ! D18   D(3,4,5,12)           180.0            estimate D2E/DX2                !
 ! D19   D(11,4,5,6)           180.0            estimate D2E/DX2                !
 ! D20   D(11,4,5,12)            0.0            estimate D2E/DX2                !
 ! D21   D(4,5,6,1)              0.0            estimate D2E/DX2                !
 ! D22   D(4,5,6,7)            180.0            estimate D2E/DX2                !
 ! D23   D(12,5,6,1)           180.0            estimate D2E/DX2                !
 ! D24   D(12,5,6,7)             0.0            estimate D2E/DX2                !
 --------------------------------------------------------------------------------
 Trust Radius=3.00D-01 FncErr=1.00D-07 GrdErr=1.00D-07 EigMax=2.50D+02 EigMin=1.00D-04
 Number of steps in this run=     64 maximum allowed number of steps=    100.
 GradGradGradGradGradGradGradGradGradGradGradGradGradGradGradGradGradGrad

                          Input orientation:                          
 ---------------------------------------------------------------------
 Center     Atomic      Atomic             Coordinates (Angstroms)
 Number     Number       Type             X           Y           Z
 ---------------------------------------------------------------------
      1          6           0       -3.209280    0.199430    0.000000
      2          6           0       -2.011500    0.935550    0.000000
      3          6           0       -0.775110    0.266300    0.000000
      4          6           0       -0.736500   -1.139070    0.000000
      5          6           0       -1.934290   -1.875190    0.000000
      6          6           0       -3.170670   -1.205940    0.000000
      7         17           0       -4.674830   -2.130350    0.000000
      8         17           0       -4.761930    1.039870    0.000000
      9         17           0       -2.059980    2.700400    0.000000
     10         17           0        0.729050    1.190710    0.000000
     11          1           0        0.816140   -1.979510    0.000000
     12          1           0       -1.885800   -3.640030    0.000000
 ---------------------------------------------------------------------
                    Distance matrix (angstroms):
                    1          2          3          4          5
     1  C    0.000000
     2  C    1.405898   0.000000
     3  C    2.435088   1.405900   0.000000
     4  C    2.811801   2.435092   1.405900   0.000000
     5  C    2.435087   2.811800   2.435093   1.405907   0.000000
     6  C    1.405900   2.435088   2.811796   2.435088   1.405892
     7  Cl   2.752401   4.061166   4.577308   4.061167   2.752393
     8  Cl   1.765520   2.752408   4.061175   4.577321   4.061173
     9  Cl   2.752406   1.765516   2.752405   4.061173   4.577316
    10  Cl   4.061167   2.752403   1.765512   2.752401   4.061173
    11  H    4.577312   4.061173   2.752406   1.765511   2.752408
    12  H    4.061164   4.577306   4.061163   2.752397   1.765506
                    6          7          8          9         10
     6  C    0.000000
     7  Cl   1.765512   0.000000
     8  Cl   2.752412   3.171416   0.000000
     9  Cl   4.061173   5.493049   3.171418   0.000000
    10  Cl   4.577308   6.342819   5.493051   3.171412   0.000000
    11  H    4.061165   5.493041   6.342832   5.493052   3.171416
    12  H    2.752396   3.171407   5.493049   6.342822   5.493040
                   11         12
    11  H    0.000000
    12  H    3.171404   0.000000
 Stoichiometry    C6H2Cl4
 Framework group  CS[SG(C6H2Cl4)]
 Deg. of freedom    21
 Full point group                 CS      NOp   2
 Largest Abelian subgroup         CS      NOp   2
 Largest concise Abelian subgroup C1      NOp   1
                         Standard orientation:                         
 ---------------------------------------------------------------------
 Center     Atomic      Atomic             Coordinates (Angstroms)
 Number     Number       Type             X           Y           Z
 ---------------------------------------------------------------------
      1          6           0        0.414570   -0.687843    0.000000
      2          6           0       -0.802974    0.015105    0.000000
      3          6           0       -0.802974    1.421006    0.000000
      4          6           0        0.414570    2.123958    0.000000
      5          6           0        1.632119    1.421001    0.000000
      6          6           0        1.632114    0.015110    0.000000
      7         17           0        3.161092   -0.867646    0.000000
      8         17           0        0.414570   -2.453363    0.000000
      9         17           0       -2.331957   -0.867650    0.000000
     10         17           0       -2.331952    2.303762    0.000000
     11          1           0        0.414575    3.889469    0.000000
     12          1           0        3.161088    2.303761    0.000000
 ---------------------------------------------------------------------
 Rotational constants (GHZ):           1.1200119           0.5289141           0.3592582
 Standard basis: VSTO-6G (5D, 7F)
 There are    32 symmetry adapted cartesian basis functions of A'  symmetry.
 There are    10 symmetry adapted cartesian basis functions of A"  symmetry.
 There are    32 symmetry adapted basis functions of A'  symmetry.
 There are    10 symmetry adapted basis functions of A"  symmetry.
    42 basis functions,   252 primitive gaussians,    42 cartesian basis functions
    27 alpha electrons       27 beta electrons
       nuclear repulsion energy       301.7400709876 Hartrees.
 Integral buffers will be    131072 words long.
 Regular integral format.
 Two-electron integral symmetry is turned off.
 Do NDO integrals.
 One-electron integrals computed using PRISM.
 NBasis=    42 RedAO= T EigKep=  1.00D+00  NBF=    32    10
 NBsUse=    42 1.00D-06 EigRej= -1.00D+00 NBFU=    32    10
 Simple Huckel Guess.
 Initial guess orbital symmetries:
       Occupied  (A') (A') (A') (A') (A') (A') (A') (A') (A') (A')
                 (A") (A') (A') (A') (A') (A") (A") (A') (A') (A")
                 (A") (A') (A') (A') (A') (A") (A")
       Virtual   (A') (A") (A") (A') (A") (A') (A') (A') (A') (A')
                 (A') (A') (A') (A') (A')
 The electronic state of the initial guess is 1-A'.
 Keep J ints in memory in canonical form, NReq=864594.
 Overlap will be assumed to be unity.
 Requested convergence on RMS density matrix=1.00D-08 within  32 cycles.
 Requested convergence on MAX density matrix=1.00D-06.
 Requested convergence on             energy=1.00D-06.
 No special actions if energy rises.
 Fock symm off for IB=2 I1=    1 I=   33 J=   25 Cut=1.00D-07 Err=3.32D-03
 Fock matrix is not symmetric: symmetry in diagonalization turned off.
 SCF Done:  E(RAM1) =  0.252808085483     A.U. after   15 cycles
            NFock= 14  Conv=0.31D-08     -V/T= 1.0019
 QCSCF skips out because SCF is already converged.

 **********************************************************************

            Population analysis using the SCF Density.

 **********************************************************************

 Orbital symmetries:
       Occupied  (A') (A') (A') (A') (A') (A') (A') (A') (A') (A')
                 (A') (A') (A") (A') (A') (A") (A") (A') (A') (A")
                 (A') (A") (A') (A') (A') (A") (A")
       Virtual   (A") (A') (A") (A') (A') (A') (A') (A') (A") (A')
                 (A') (A') (A') (A') (A')
 The electronic state is 1-A'.
 Alpha  occ. eigenvalues --   -1.45194  -1.38820  -1.37895  -1.37109  -1.35449
 Alpha  occ. eigenvalues --   -1.13810  -1.12681  -0.86319  -0.85184  -0.66626
 Alpha  occ. eigenvalues --   -0.63481  -0.61213  -0.56581  -0.56416  -0.53065
 Alpha  occ. eigenvalues --   -0.49988  -0.47809  -0.46401  -0.46140  -0.46034
 Alpha  occ. eigenvalues --   -0.44743  -0.43292  -0.43223  -0.43037  -0.40672
 Alpha  occ. eigenvalues --   -0.36193  -0.35728
 Alpha virt. eigenvalues --   -0.01751  -0.01620  -0.01214  -0.00419   0.01630
 Alpha virt. eigenvalues --    0.02240   0.03875   0.04453   0.07372   0.13227
 Alpha virt. eigenvalues --    0.13429   0.15067   0.15315   0.16860   0.18019
          Condensed to atoms (all electrons):
               1          2          3          4          5          6
     1  C    4.040685   0.000000   0.000000   0.000000   0.000000   0.000000
     2  C    0.000000   4.040685   0.000000   0.000000   0.000000   0.000000
     3  C    0.000000   0.000000   4.034900   0.000000   0.000000   0.000000
     4  C    0.000000   0.000000   0.000000   4.138532   0.000000   0.000000
     5  C    0.000000   0.000000   0.000000   0.000000   4.138534   0.000000
     6  C    0.000000   0.000000   0.000000   0.000000   0.000000   4.034898
     7  Cl   0.000000   0.000000   0.000000   0.000000   0.000000   0.000000
     8  Cl   0.000000   0.000000   0.000000   0.000000   0.000000   0.000000
     9  Cl   0.000000   0.000000   0.000000   0.000000   0.000000   0.000000
    10  Cl   0.000000   0.000000   0.000000   0.000000   0.000000   0.000000
    11  H    0.000000   0.000000   0.000000   0.000000   0.000000   0.000000
    12  H    0.000000   0.000000   0.000000   0.000000   0.000000   0.000000
               7          8          9         10         11         12
     1  C    0.000000   0.000000   0.000000   0.000000   0.000000   0.000000
     2  C    0.000000   0.000000   0.000000   0.000000   0.000000   0.000000
     3  C    0.000000   0.000000   0.000000   0.000000   0.000000   0.000000
     4  C    0.000000   0.000000   0.000000   0.000000   0.000000   0.000000
     5  C    0.000000   0.000000   0.000000   0.000000   0.000000   0.000000
     6  C    0.000000   0.000000   0.000000   0.000000   0.000000   0.000000
     7  Cl   7.011969   0.000000   0.000000   0.000000   0.000000   0.000000
     8  Cl   0.000000   6.991312   0.000000   0.000000   0.000000   0.000000
     9  Cl   0.000000   0.000000   6.991310   0.000000   0.000000   0.000000
    10  Cl   0.000000   0.000000   0.000000   7.011968   0.000000   0.000000
    11  H    0.000000   0.000000   0.000000   0.000000   0.782603   0.000000
    12  H    0.000000   0.000000   0.000000   0.000000   0.000000   0.782604
 Mulliken charges:
               1
     1  C   -0.040685
     2  C   -0.040685
     3  C   -0.034900
     4  C   -0.138532
     5  C   -0.138534
     6  C   -0.034898
     7  Cl  -0.011969
     8  Cl   0.008688
     9  Cl   0.008690
    10  Cl  -0.011968
    11  H    0.217397
    12  H    0.217396
 Sum of Mulliken charges =  -0.00000
 Mulliken charges with hydrogens summed into heavy atoms:
               1
     1  C   -0.040685
     2  C   -0.040685
     3  C   -0.034900
     4  C    0.078865
     5  C    0.078861
     6  C   -0.034898
     7  Cl  -0.011969
     8  Cl   0.008688
     9  Cl   0.008690
    10  Cl  -0.011968
 Charge=              0.0000 electrons
 Dipole moment (field-independent basis, Debye):
    X=              1.9064    Y=              3.3020    Z=              0.0000  Tot=              3.8128
 N-N= 3.017400709876D+02 E-N=-4.289673177518D+02  KE=-1.345451102257D+02
 Symmetry A'   KE=-1.029088589327D+02
 Symmetry A"   KE=-3.163625129299D+01
 Calling FoFJK, ICntrl=      2127 FMM=F ISym2X=1 I1Cent= 0 IOpClX= 0 NMat=1 NMatS=1 NMatT=0.
 ***** Axes restored to original set *****
 -------------------------------------------------------------------
 Center     Atomic                   Forces (Hartrees/Bohr)
 Number     Number              X              Y              Z
 -------------------------------------------------------------------
      1        6          -0.022087289    0.012636906    0.000000000
      2        6          -0.001296360    0.025411885    0.000000000
      3        6           0.026942142   -0.005334124    0.000000000
      4        6           0.052856273   -0.049726134    0.000000000
      5        6           0.020497543   -0.069622450    0.000000000
      6        6          -0.007418633   -0.026442636    0.000000000
      7       17           0.033981020    0.017975662    0.000000000
      8       17           0.034157073   -0.018172090   -0.000000000
      9       17           0.000783313   -0.038680263   -0.000000000
     10       17          -0.031387081   -0.022197836   -0.000000000
     11        1          -0.102797860    0.056787037   -0.000000000
     12        1          -0.004230141    0.117364042   -0.000000000
 -------------------------------------------------------------------
 Cartesian Forces:  Max     0.117364042 RMS     0.036082963

 GradGradGradGradGradGradGradGradGradGradGradGradGradGradGradGradGradGrad
 Berny optimization.
 FormGI is forming the generalized inverse of G from B-inverse, IUseBI=4.
 Internal  Forces:  Max     0.117435950 RMS     0.026982858
 Search for a local minimum.
 Step number   1 out of a maximum of   64
 All quantities printed in internal units (Hartrees-Bohrs-Radians)
 Mixed Optimization -- RFO/linear search
 Second derivative matrix not updated -- first step.
 ITU=  0
     Eigenvalues ---    0.02011   0.02011   0.02011   0.02011   0.02011
     Eigenvalues ---    0.02011   0.02011   0.02011   0.02011   0.06524
     Eigenvalues ---    0.06524   0.16000   0.16000   0.22488   0.24492
     Eigenvalues ---    0.25000   0.25000   0.25000   0.25000   0.25000
     Eigenvalues ---    0.29033   0.29033   0.29033   0.29033   0.40956
     Eigenvalues ---    0.41136   0.44656   0.44657   0.44657   0.44657
 RFO step:  Lambda=-1.50992082D-01 EMin= 2.01065826D-02
 Linear search not attempted -- first point.
 Maximum step size (   0.300) exceeded in Quadratic search.
    -- Step size scaled by   0.376
 Iteration  1 RMS(Cart)=  0.04500032 RMS(Int)=  0.00077651
 Iteration  2 RMS(Cart)=  0.00071929 RMS(Int)=  0.00000973
 Iteration  3 RMS(Cart)=  0.00000003 RMS(Int)=  0.00000973
 ClnCor:  largest displacement from symmetrization is 2.07D-08 for atom    12.
 Variable       Old X    -DE/DX   Delta X   Delta X   Delta X     New X
                                 (Linear)    (Quad)   (Total)
    R1        2.65676  -0.01326   0.00000  -0.00749  -0.00751   2.64925
    R2        2.65677  -0.01250   0.00000  -0.00743  -0.00744   2.64932
    R3        3.33635  -0.03869   0.00000  -0.03293  -0.03293   3.30342
    R4        2.65677  -0.01250   0.00000  -0.00743  -0.00744   2.64932
    R5        3.33634  -0.03869   0.00000  -0.03293  -0.03293   3.30341
    R6        2.65677  -0.03402   0.00000  -0.02181  -0.02180   2.63497
    R7        3.33633  -0.03836   0.00000  -0.03266  -0.03266   3.30368
    R8        2.65678  -0.05117   0.00000  -0.03302  -0.03300   2.62378
    R9        3.33633  -0.11744   0.00000  -0.20403  -0.20403   3.13230
   R10        2.65675  -0.03401   0.00000  -0.02180  -0.02179   2.63496
   R11        3.33632  -0.11744   0.00000  -0.20403  -0.20403   3.13229
   R12        3.33633  -0.03836   0.00000  -0.03266  -0.03266   3.30368
    A1        2.09439  -0.00487   0.00000  -0.00277  -0.00280   2.09159
    A2        2.09439   0.00197   0.00000   0.00095   0.00096   2.09536
    A3        2.09440   0.00290   0.00000   0.00182   0.00184   2.09623
    A4        2.09439  -0.00487   0.00000  -0.00277  -0.00280   2.09159
    A5        2.09440   0.00197   0.00000   0.00095   0.00096   2.09536
    A6        2.09439   0.00290   0.00000   0.00182   0.00184   2.09623
    A7        2.09440  -0.00318   0.00000  -0.00312  -0.00312   2.09127
    A8        2.09440   0.00572   0.00000   0.00543   0.00543   2.09983
    A9        2.09439  -0.00255   0.00000  -0.00231  -0.00231   2.09208
   A10        2.09439   0.00805   0.00000   0.00590   0.00592   2.10031
   A11        2.09440  -0.00570   0.00000  -0.00497  -0.00499   2.08941
   A12        2.09440  -0.00235   0.00000  -0.00092  -0.00094   2.09346
   A13        2.09439   0.00804   0.00000   0.00590   0.00592   2.10032
   A14        2.09439  -0.00235   0.00000  -0.00092  -0.00094   2.09345
   A15        2.09440  -0.00570   0.00000  -0.00497  -0.00499   2.08942
   A16        2.09440  -0.00318   0.00000  -0.00312  -0.00312   2.09128
   A17        2.09439   0.00572   0.00000   0.00543   0.00543   2.09983
   A18        2.09439  -0.00254   0.00000  -0.00231  -0.00231   2.09208
    D1        0.00000  -0.00000   0.00000  -0.00000   0.00000   0.00000
    D2        3.14159  -0.00000   0.00000  -0.00000   0.00000   3.14159
    D3        3.14159   0.00000   0.00000   0.00000   0.00000   3.14159
    D4        0.00000  -0.00000   0.00000  -0.00000   0.00000   0.00000
    D5        0.00000  -0.00000   0.00000  -0.00000   0.00000   0.00000
    D6        3.14159   0.00000   0.00000   0.00000   0.00000   3.14159
    D7        3.14159  -0.00000   0.00000  -0.00000   0.00000   3.14159
    D8        0.00000  -0.00000   0.00000  -0.00000   0.00000   0.00000
    D9        0.00000   0.00000   0.00000   0.00000   0.00000   0.00000
   D10        3.14159  -0.00000   0.00000  -0.00000   0.00000   3.14159
   D11        3.14159   0.00000   0.00000   0.00000   0.00000   3.14159
   D12        0.00000   0.00000   0.00000   0.00000   0.00000   0.00000
   D13        0.00000  -0.00000   0.00000  -0.00000   0.00000   0.00000
   D14        3.14159  -0.00000   0.00000  -0.00000   0.00000   3.14159
   D15        3.14159   0.00000   0.00000   0.00000   0.00000   3.14159
   D16        0.00000  -0.00000   0.00000  -0.00000   0.00000   0.00000
   D17        0.00000  -0.00000   0.00000  -0.00000   0.00000   0.00000
   D18        3.14159  -0.00000   0.00000  -0.00000   0.00000   3.14159
   D19        3.14159   0.00000   0.00000   0.00000   0.00000   3.14159
   D20        0.00000  -0.00000   0.00000  -0.00000   0.00000   0.00000
   D21        0.00000   0.00000   0.00000   0.00000   0.00000   0.00000
   D22        3.14159  -0.00000   0.00000  -0.00000   0.00000   3.14159
   D23        3.14159   0.00000   0.00000   0.00000   0.00000   3.14159
   D24        0.00000   0.00000   0.00000   0.00000   0.00000   0.00000
         Item               Value     Threshold  Converged?
 Maximum Force            0.117436     0.000450     NO 
 RMS     Force            0.026983     0.000300     NO 
 Maximum Displacement     0.211887     0.001800     NO 
 RMS     Displacement     0.045687     0.001200     NO 
 Predicted change in Energy=-5.286379D-02
 GradGradGradGradGradGradGradGradGradGradGradGradGradGradGradGradGradGrad

                          Input orientation:                          
 ---------------------------------------------------------------------
 Center     Atomic      Atomic             Coordinates (Angstroms)
 Number     Number       Type             X           Y           Z
 ---------------------------------------------------------------------
      1          6           0       -3.199167    0.186770    0.000000
      2          6           0       -2.004773    0.920808    0.000000
      3          6           0       -0.773720    0.249983    0.000000
      4          6           0       -0.743683   -1.144058    0.000000
      5          6           0       -1.926594   -1.871035    0.000000
      6          6           0       -3.156742   -1.214550    0.000000
      7         17           0       -4.638592   -2.142144    0.000000
      8         17           0       -4.737292    1.017431    0.000000
      9         17           0       -2.051089    2.668283    0.000000
     10         17           0        0.723203    1.153050    0.000000
     11          1           0        0.713268   -1.934465    0.000000
     12          1           0       -1.879518   -3.527904    0.000000
 ---------------------------------------------------------------------
                    Distance matrix (angstroms):
                    1          2          3          4          5
     1  C    0.000000
     2  C    1.401924   0.000000
     3  C    2.426271   1.401962   0.000000
     4  C    2.792939   2.419508   1.394364   0.000000
     5  C    2.419505   2.792938   2.414091   1.388443   0.000000
     6  C    1.401962   2.426270   2.797079   2.414088   1.394359
     7  Cl   2.737843   4.039639   4.545273   4.020758   2.725515
     8  Cl   1.748092   2.734227   4.037187   4.541029   4.030293
     9  Cl   2.734226   1.748089   2.734931   4.030292   4.541025
    10  Cl   4.039640   2.737844   1.748231   2.725520   4.020760
    11  H    4.450482   3.942123   2.642527   1.657543   2.640624
    12  H    3.942116   4.450476   3.936397   2.640614   1.657538
                    6          7          8          9         10
     6  C    0.000000
     7  Cl   1.748231   0.000000
     8  Cl   2.734937   3.161117   0.000000
     9  Cl   4.037185   5.462178   3.152935   0.000000
    10  Cl   4.545273   6.293422   5.462179   3.161113   0.000000
    11  H    3.936401   5.355888   6.198572   5.369075   3.087531
    12  H    2.642520   3.087527   5.369073   6.198563   5.355883
                   11         12
    11  H    0.000000
    12  H    3.043285   0.000000
 Stoichiometry    C6H2Cl4
 Framework group  CS[SG(C6H2Cl4)]
 Deg. of freedom    21
 Full point group                 CS      NOp   2
 Largest Abelian subgroup         CS      NOp   2
 Largest concise Abelian subgroup C1      NOp   1
                         Standard orientation:                         
 ---------------------------------------------------------------------
 Center     Atomic      Atomic             Coordinates (Angstroms)
 Number     Number       Type             X           Y           Z
 ---------------------------------------------------------------------
      1          6           0       -0.393694   -0.700962    0.000000
      2          6           0       -0.393694    0.700962    0.000000
      3          6           0        0.822399    1.398539    0.000000
      4          6           0        2.025805    0.694219    0.000000
      5          6           0        2.025801   -0.694224    0.000000
      6          6           0        0.822399   -1.398539    0.000000
      7         17           0        0.836793   -3.146711    0.000000
      8         17           0       -1.906744   -1.576466    0.000000
      9         17           0       -1.906738    1.576468    0.000000
     10         17           0        0.836795    3.146711    0.000000
     11          1           0        3.462057    1.521642    0.000000
     12          1           0        3.462050   -1.521643    0.000000
 ---------------------------------------------------------------------
 Rotational constants (GHZ):           1.1344794           0.5369010           0.3644312
 Standard basis: VSTO-6G (5D, 7F)
 There are    32 symmetry adapted cartesian basis functions of A'  symmetry.
 There are    10 symmetry adapted cartesian basis functions of A"  symmetry.
 There are    32 symmetry adapted basis functions of A'  symmetry.
 There are    10 symmetry adapted basis functions of A"  symmetry.
    42 basis functions,   252 primitive gaussians,    42 cartesian basis functions
    27 alpha electrons       27 beta electrons
       nuclear repulsion energy       303.3964544951 Hartrees.
 Integral buffers will be    131072 words long.
 Regular integral format.
 Two-electron integral symmetry is turned off.
 Do NDO integrals.
 One-electron integrals computed using PRISM.
 NBasis=    42 RedAO= T EigKep=  1.00D+00  NBF=    32    10
 NBsUse=    42 1.00D-06 EigRej= -1.00D+00 NBFU=    32    10
 Initial guess from the checkpoint file:  "geometry_chks/1234ClBz.chk"
 B after Tr=     0.000000    0.000000    0.000000
         Rot=    0.866025   -0.000000    0.000000    0.500000 Ang=  60.00 deg.
 Initial guess orbital symmetries:
       Occupied  (A') (A') (A') (A') (A') (A') (A') (A') (A') (A')
                 (A') (A') (A") (A') (A') (A") (A") (A') (A') (A")
                 (A') (A") (A') (A') (A') (A") (A")
       Virtual   (A") (A') (A") (A') (A') (A') (A') (A') (A") (A')
                 (A') (A') (A') (A') (A')
 Keep J ints in memory in canonical form, NReq=864594.
 Overlap will be assumed to be unity.
 Requested convergence on RMS density matrix=1.00D-08 within  32 cycles.
 Requested convergence on MAX density matrix=1.00D-06.
 Requested convergence on             energy=1.00D-06.
 No special actions if energy rises.
 Fock symm off for IB=2 I1=    1 I=   33 J=    9 Cut=1.00D-07 Err=9.93D-04
 Fock matrix is not symmetric: symmetry in diagonalization turned off.
 SCF Done:  E(RAM1) =  0.196511991884     A.U. after   13 cycles
            NFock= 12  Conv=0.14D-08     -V/T= 1.0015
 QCSCF skips out because SCF is already converged.
 Calling FoFJK, ICntrl=      2127 FMM=F ISym2X=1 I1Cent= 0 IOpClX= 0 NMat=1 NMatS=1 NMatT=0.
 ***** Axes restored to original set *****
 -------------------------------------------------------------------
 Center     Atomic                   Forces (Hartrees/Bohr)
 Number     Number              X              Y              Z
 -------------------------------------------------------------------
      1        6          -0.022836759    0.013125317    0.000000000
      2        6          -0.001393739    0.026301524    0.000000000
      3        6           0.027118250    0.002804478    0.000000000
      4        6           0.077492900   -0.057432472    0.000000000
      5        6           0.016242155   -0.095082303   -0.000000000
      6        6          -0.014756947   -0.022924723    0.000000000
      7       17           0.026147763    0.014106212    0.000000000
      8       17           0.026600448   -0.014205155   -0.000000000
      9       17           0.000657541   -0.030146934   -0.000000000
     10       17          -0.024396314   -0.016956738   -0.000000000
     11        1          -0.106560157    0.058786981   -0.000000000
     12        1          -0.004315140    0.121623813   -0.000000000
 -------------------------------------------------------------------
 Cartesian Forces:  Max     0.121623813 RMS     0.038975833

 GradGradGradGradGradGradGradGradGradGradGradGradGradGradGradGradGradGrad
 Berny optimization.
 Using GEDIIS/GDIIS optimizer.
 FormGI is forming the generalized inverse of G from B-inverse, IUseBI=4.
 Internal  Forces:  Max     0.121697323 RMS     0.025381786
 Search for a local minimum.
 Step number   2 out of a maximum of   64
 All quantities printed in internal units (Hartrees-Bohrs-Radians)
 Mixed Optimization -- RFO/linear search
 Update second derivatives using D2CorX and points    1    2
 DE= -5.63D-02 DEPred=-5.29D-02 R= 1.06D+00
 TightC=F SS=  1.41D+00  RLast= 3.00D-01 DXNew= 5.0454D-01 9.0000D-01
 Trust test= 1.06D+00 RLast= 3.00D-01 DXMaxT set to 5.05D-01
 ITU=  1  0
 Use linear search instead of GDIIS.
 Linear search step of   0.600 exceeds DXMaxT=   0.505 but not scaled.
 Quartic linear search produced a step of  2.00000.
 Iteration  1 RMS(Cart)=  0.05686624 RMS(Int)=  0.04004245
 Iteration  2 RMS(Cart)=  0.03596666 RMS(Int)=  0.00155333
 Iteration  3 RMS(Cart)=  0.00145185 RMS(Int)=  0.00005916
 Iteration  4 RMS(Cart)=  0.00000001 RMS(Int)=  0.00005916
 ClnCor:  largest displacement from symmetrization is 1.11D-15 for atom     3.
 Variable       Old X    -DE/DX   Delta X   Delta X   Delta X     New X
                                 (Linear)    (Quad)   (Total)
    R1        2.64925  -0.00305  -0.01502   0.00000  -0.01513   2.63412
    R2        2.64932  -0.00271  -0.01488   0.00000  -0.01494   2.63439
    R3        3.30342  -0.03016  -0.06587   0.00000  -0.06587   3.23755
    R4        2.64932  -0.00271  -0.01488   0.00000  -0.01494   2.63439
    R5        3.30341  -0.03015  -0.06586   0.00000  -0.06586   3.23754
    R6        2.63497  -0.01650  -0.04360   0.00000  -0.04354   2.59142
    R7        3.30368  -0.02965  -0.06531   0.00000  -0.06531   3.23836
    R8        2.62378  -0.02874  -0.06600   0.00000  -0.06590   2.55788
    R9        3.13230  -0.12170  -0.40806   0.00000  -0.40806   2.72424
   R10        2.63496  -0.01649  -0.04359   0.00000  -0.04353   2.59142
   R11        3.13229  -0.12170  -0.40806   0.00000  -0.40806   2.72423
   R12        3.30368  -0.02965  -0.06531   0.00000  -0.06531   3.23837
    A1        2.09159  -0.00291  -0.00560   0.00000  -0.00576   2.08583
    A2        2.09536   0.00122   0.00193   0.00000   0.00201   2.09737
    A3        2.09623   0.00169   0.00367   0.00000   0.00375   2.09998
    A4        2.09159  -0.00291  -0.00560   0.00000  -0.00576   2.08583
    A5        2.09536   0.00122   0.00193   0.00000   0.00201   2.09737
    A6        2.09623   0.00169   0.00367   0.00000   0.00375   2.09998
    A7        2.09127  -0.00287  -0.00624   0.00000  -0.00624   2.08503
    A8        2.09983   0.00460   0.01087   0.00000   0.01087   2.11070
    A9        2.09208  -0.00173  -0.00462   0.00000  -0.00462   2.08746
   A10        2.10031   0.00578   0.01185   0.00000   0.01201   2.11232
   A11        2.08941  -0.00423  -0.00997   0.00000  -0.01005   2.07936
   A12        2.09346  -0.00154  -0.00187   0.00000  -0.00195   2.09151
   A13        2.10032   0.00578   0.01185   0.00000   0.01201   2.11232
   A14        2.09345  -0.00154  -0.00187   0.00000  -0.00195   2.09150
   A15        2.08942  -0.00423  -0.00997   0.00000  -0.01005   2.07936
   A16        2.09128  -0.00287  -0.00625   0.00000  -0.00625   2.08503
   A17        2.09983   0.00460   0.01087   0.00000   0.01087   2.11069
   A18        2.09208  -0.00173  -0.00462   0.00000  -0.00462   2.08746
    D1        0.00000  -0.00000   0.00000   0.00000   0.00000   0.00000
    D2        3.14159  -0.00000   0.00000   0.00000   0.00000   3.14159
    D3        3.14159   0.00000   0.00000   0.00000   0.00000   3.14159
    D4        0.00000   0.00000   0.00000   0.00000   0.00000   0.00000
    D5        0.00000   0.00000   0.00000   0.00000   0.00000   0.00000
    D6        3.14159   0.00000   0.00000   0.00000   0.00000   3.14159
    D7        3.14159  -0.00000   0.00000   0.00000   0.00000   3.14159
    D8        0.00000  -0.00000   0.00000   0.00000   0.00000   0.00000
    D9        0.00000   0.00000   0.00000   0.00000   0.00000   0.00000
   D10        3.14159  -0.00000   0.00000   0.00000   0.00000   3.14159
   D11        3.14159   0.00000   0.00000   0.00000   0.00000   3.14159
   D12        0.00000  -0.00000   0.00000   0.00000   0.00000   0.00000
   D13        0.00000   0.00000   0.00000   0.00000   0.00000   0.00000
   D14        3.14159  -0.00000   0.00000   0.00000   0.00000   3.14159
   D15        3.14159   0.00000   0.00000   0.00000   0.00000   3.14159
   D16        0.00000   0.00000   0.00000   0.00000   0.00000   0.00000
   D17        0.00000  -0.00000   0.00000   0.00000   0.00000   0.00000
   D18        3.14159  -0.00000   0.00000   0.00000   0.00000   3.14159
   D19        3.14159   0.00000   0.00000   0.00000   0.00000   3.14159
   D20        0.00000  -0.00000   0.00000   0.00000   0.00000   0.00000
   D21        0.00000   0.00000   0.00000   0.00000   0.00000   0.00000
   D22        3.14159  -0.00000   0.00000   0.00000   0.00000   3.14159
   D23        3.14159   0.00000   0.00000   0.00000   0.00000   3.14159
   D24        0.00000   0.00000   0.00000   0.00000   0.00000   0.00000
         Item               Value     Threshold  Converged?
 Maximum Force            0.121697     0.000450     NO 
 RMS     Force            0.025382     0.000300     NO 
 Maximum Displacement     0.423504     0.001800     NO 
 RMS     Displacement     0.091352     0.001200     NO 
 Predicted change in Energy=-1.086615D-01
 GradGradGradGradGradGradGradGradGradGradGradGradGradGradGradGradGradGrad

                          Input orientation:                          
 ---------------------------------------------------------------------
 Center     Atomic      Atomic             Coordinates (Angstroms)
 Number     Number       Type             X           Y           Z
 ---------------------------------------------------------------------
      1          6           0       -3.178855    0.161362    0.000000
      2          6           0       -1.991280    0.891208    0.000000
      3          6           0       -0.771032    0.217122    0.000000
      4          6           0       -0.757952   -1.154137    0.000000
      5          6           0       -1.911154   -1.862857    0.000000
      6          6           0       -3.128643   -1.231790    0.000000
      7         17           0       -4.565878   -2.165073    0.000000
      8         17           0       -4.687943    0.972431    0.000000
      9         17           0       -2.033232    2.603929    0.000000
     10         17           0        0.710814    1.077815    0.000000
     11          1           0        0.507851   -1.844046    0.000000
     12          1           0       -1.867396   -3.303795    0.000000
 ---------------------------------------------------------------------
                    Distance matrix (angstroms):
                    1          2          3          4          5
     1  C    0.000000
     2  C    1.393919   0.000000
     3  C    2.408469   1.394058   0.000000
     4  C    2.755233   2.388417   1.371322   0.000000
     5  C    2.388416   2.755231   2.371960   1.353572   0.000000
     6  C    1.394058   2.408468   2.767251   2.371962   1.371322
     7  Cl   2.708530   3.996175   4.480593   3.939834   2.671872
     8  Cl   1.713236   2.697885   3.989070   4.468458   3.968553
     9  Cl   2.697885   1.713235   2.699999   3.968551   4.468454
    10  Cl   3.996175   2.708530   1.713668   2.671869   3.939831
    11  H    4.196840   3.705033   2.425687   1.441607   2.419077
    12  H    3.705030   4.196833   3.687665   2.419069   1.441603
                    6          7          8          9         10
     6  C    0.000000
     7  Cl   1.713669   0.000000
     8  Cl   2.700002   3.139877   0.000000
     9  Cl   3.989069   5.399785   3.115971   0.000000
    10  Cl   4.480592   6.193529   5.399785   3.139875   0.000000
    11  H    3.687674   5.083875   5.910060   5.122654   2.928902
    12  H    2.425685   2.928908   5.122655   5.910052   5.083864
                   11         12
    11  H    0.000000
    12  H    2.787950   0.000000
 Stoichiometry    C6H2Cl4
 Framework group  CS[SG(C6H2Cl4)]
 Deg. of freedom    21
 Full point group                 CS      NOp   2
 Largest Abelian subgroup         CS      NOp   2
 Largest concise Abelian subgroup C1      NOp   1
                         Standard orientation:                         
 ---------------------------------------------------------------------
 Center     Atomic      Atomic             Coordinates (Angstroms)
 Number     Number       Type             X           Y           Z
 ---------------------------------------------------------------------
      1          6           0       -0.404102   -0.696960   -0.000000
      2          6           0       -0.404102    0.696959    0.000000
      3          6           0        0.809111    1.383625    0.000000
      4          6           0        1.984229    0.676787   -0.000000
      5          6           0        1.984229   -0.676785   -0.000000
      6          6           0        0.809111   -1.383625   -0.000000
      7         17           0        0.851712   -3.096765   -0.000000
      8         17           0       -1.885255   -1.557985   -0.000000
      9         17           0       -1.885252    1.557986    0.000000
     10         17           0        0.851712    3.096764    0.000000
     11          1           0        3.234776    1.393980    0.000000
     12          1           0        3.234774   -1.393970   -0.000000
 ---------------------------------------------------------------------
 Rotational constants (GHZ):           1.1639644           0.5535524           0.3751435
 Standard basis: VSTO-6G (5D, 7F)
 There are    32 symmetry adapted cartesian basis functions of A'  symmetry.
 There are    10 symmetry adapted cartesian basis functions of A"  symmetry.
 There are    32 symmetry adapted basis functions of A'  symmetry.
 There are    10 symmetry adapted basis functions of A"  symmetry.
    42 basis functions,   252 primitive gaussians,    42 cartesian basis functions
    27 alpha electrons       27 beta electrons
       nuclear repulsion energy       306.8521832096 Hartrees.
 Integral buffers will be    131072 words long.
 Regular integral format.
 Two-electron integral symmetry is turned off.
 Do NDO integrals.
 One-electron integrals computed using PRISM.
 NBasis=    42 RedAO= T EigKep=  1.00D+00  NBF=    32    10
 NBsUse=    42 1.00D-06 EigRej= -1.00D+00 NBFU=    32    10
 Initial guess from the checkpoint file:  "geometry_chks/1234ClBz.chk"
 B after Tr=    -0.000000   -0.000000   -0.000000
         Rot=    1.000000    0.000000   -0.000000   -0.000000 Ang=  -0.00 deg.
 Initial guess orbital symmetries:
       Occupied  (A') (A') (A') (A') (A') (A') (A') (A') (A') (A')
                 (A') (A') (A") (A') (A') (A") (A") (A') (A') (A")
                 (A') (A') (A") (A') (A') (A") (A")
       Virtual   (A") (A") (A') (A') (A') (A') (A') (A') (A") (A')
                 (A') (A') (A') (A') (A')
 Keep J ints in memory in canonical form, NReq=864594.
 Overlap will be assumed to be unity.
 Requested convergence on RMS density matrix=1.00D-08 within  32 cycles.
 Requested convergence on MAX density matrix=1.00D-06.
 Requested convergence on             energy=1.00D-06.
 No special actions if energy rises.
 Fock symm off for IB=2 I1=    1 I=   33 J=    7 Cut=1.00D-07 Err=3.90D-03
 Fock matrix is not symmetric: symmetry in diagonalization turned off.
 SCF Done:  E(RAM1) =  0.939856587648E-01 A.U. after   13 cycles
            NFock= 12  Conv=0.21D-08     -V/T= 1.0007
 QCSCF skips out because SCF is already converged.
 Calling FoFJK, ICntrl=      2127 FMM=F ISym2X=1 I1Cent= 0 IOpClX= 0 NMat=1 NMatS=1 NMatT=0.
 ***** Axes restored to original set *****
 -------------------------------------------------------------------
 Center     Atomic                   Forces (Hartrees/Bohr)
 Number     Number              X              Y              Z
 -------------------------------------------------------------------
      1        6          -0.023550301    0.013722106    0.000000000
      2        6          -0.001604206    0.027208671    0.000000000
      3        6           0.025748776    0.022787866    0.000000000
      4        6           0.120075954   -0.064291277   -0.000000000
      5        6           0.003120631   -0.136168883    0.000000000
      6        6          -0.031961255   -0.012679504   -0.000000000
      7       17           0.008313804    0.004855344   -0.000000000
      8       17           0.009368202   -0.005251745   -0.000000000
      9       17           0.000453582   -0.010729491   -0.000000000
     10       17          -0.008086638   -0.005223632   -0.000000000
     11        1          -0.098169692    0.053859009   -0.000000000
     12        1          -0.003708858    0.111911534   -0.000000000
 -------------------------------------------------------------------
 Cartesian Forces:  Max     0.136168883 RMS     0.042961791

 GradGradGradGradGradGradGradGradGradGradGradGradGradGradGradGradGradGrad
 Berny optimization.
 Using GEDIIS/GDIIS optimizer.
 FormGI is forming the generalized inverse of G from B-inverse, IUseBI=4.
 Internal  Forces:  Max     0.111973146 RMS     0.022930921
 Search for a local minimum.
 Step number   3 out of a maximum of   64
 All quantities printed in internal units (Hartrees-Bohrs-Radians)
 Mixed Optimization -- RFO/linear search
 Update second derivatives using D2CorX and points    2    3
 ITU=  0  1  0
 Use linear search instead of GDIIS.
 Linear search step of   0.802 exceeds DXMaxT=   0.505 but not scaled.
 Quartic linear search produced a step of  1.33683.
 Iteration  1 RMS(Cart)=  0.06574233 RMS(Int)=  0.06649504
 Iteration  2 RMS(Cart)=  0.03593500 RMS(Int)=  0.02800481
 Iteration  3 RMS(Cart)=  0.02618401 RMS(Int)=  0.00012638
 Iteration  4 RMS(Cart)=  0.00000027 RMS(Int)=  0.00012638
 ClnCor:  largest displacement from symmetrization is 1.49D-08 for atom     7.
 Variable       Old X    -DE/DX   Delta X   Delta X   Delta X     New X
                                 (Linear)    (Quad)   (Total)
    R1        2.63412   0.01906  -0.02022   0.00000  -0.02045   2.61367
    R2        2.63439   0.01836  -0.01997   0.00000  -0.02008   2.61431
    R3        3.23755  -0.01074  -0.08806   0.00000  -0.08806   3.14949
    R4        2.63439   0.01836  -0.01997   0.00000  -0.02008   2.61431
    R5        3.23754  -0.01074  -0.08805   0.00000  -0.08805   3.14949
    R6        2.59142   0.02406  -0.05821   0.00000  -0.05809   2.53333
    R7        3.23836  -0.00962  -0.08731   0.00000  -0.08731   3.15105
    R8        2.55788   0.02603  -0.08809   0.00000  -0.08786   2.47002
    R9        2.72424  -0.11197  -0.54551   0.00000  -0.54551   2.17874
   R10        2.59142   0.02406  -0.05820   0.00000  -0.05807   2.53335
   R11        2.72423  -0.11197  -0.54550   0.00000  -0.54550   2.17873
   R12        3.23837  -0.00962  -0.08731   0.00000  -0.08731   3.15106
    A1        2.08583   0.00236  -0.00770   0.00000  -0.00805   2.07778
    A2        2.09737  -0.00087   0.00269   0.00000   0.00286   2.10023
    A3        2.09998  -0.00149   0.00502   0.00000   0.00519   2.10517
    A4        2.08583   0.00236  -0.00770   0.00000  -0.00805   2.07779
    A5        2.09737  -0.00087   0.00268   0.00000   0.00286   2.10023
    A6        2.09998  -0.00149   0.00502   0.00000   0.00519   2.10517
    A7        2.08503  -0.00172  -0.00835   0.00000  -0.00834   2.07669
    A8        2.11070   0.00160   0.01453   0.00000   0.01452   2.12522
    A9        2.08746   0.00012  -0.00618   0.00000  -0.00618   2.08127
   A10        2.11232  -0.00064   0.01605   0.00000   0.01639   2.12871
   A11        2.07936  -0.00010  -0.01344   0.00000  -0.01361   2.06575
   A12        2.09151   0.00074  -0.00261   0.00000  -0.00278   2.08873
   A13        2.11232  -0.00064   0.01605   0.00000   0.01639   2.12871
   A14        2.09150   0.00074  -0.00261   0.00000  -0.00278   2.08872
   A15        2.07936  -0.00010  -0.01344   0.00000  -0.01361   2.06575
   A16        2.08503  -0.00172  -0.00835   0.00000  -0.00834   2.07669
   A17        2.11069   0.00160   0.01453   0.00000   0.01452   2.12522
   A18        2.08746   0.00012  -0.00618   0.00000  -0.00618   2.08128
    D1        0.00000  -0.00000   0.00000   0.00000   0.00000   0.00000
    D2        3.14159  -0.00000   0.00000   0.00000   0.00000   3.14159
    D3        3.14159   0.00000   0.00000   0.00000   0.00000   3.14159
    D4       -0.00000  -0.00000   0.00000   0.00000   0.00000   0.00000
    D5       -0.00000   0.00000   0.00000   0.00000   0.00000   0.00000
    D6        3.14159   0.00000   0.00000   0.00000   0.00000   3.14159
    D7        3.14159  -0.00000   0.00000   0.00000   0.00000   3.14159
    D8       -0.00000  -0.00000   0.00000   0.00000   0.00000   0.00000
    D9       -0.00000  -0.00000   0.00000   0.00000   0.00000   0.00000
   D10        3.14159  -0.00000   0.00000   0.00000   0.00000   3.14159
   D11        3.14159   0.00000   0.00000   0.00000   0.00000   3.14159
   D12        0.00000   0.00000   0.00000   0.00000  -0.00000   0.00000
   D13        0.00000  -0.00000   0.00000   0.00000   0.00000   0.00000
   D14        3.14159  -0.00000   0.00000   0.00000   0.00000   3.14159
   D15        3.14159   0.00000   0.00000   0.00000   0.00000   3.14159
   D16       -0.00000   0.00000   0.00000   0.00000   0.00000   0.00000
   D17       -0.00000   0.00000   0.00000   0.00000   0.00000   0.00000
   D18        3.14159  -0.00000   0.00000   0.00000   0.00000   3.14159
   D19        3.14159   0.00000   0.00000   0.00000   0.00000   3.14159
   D20        0.00000   0.00000   0.00000   0.00000  -0.00000   0.00000
   D21        0.00000  -0.00000   0.00000   0.00000   0.00000   0.00000
   D22        3.14159  -0.00000   0.00000   0.00000   0.00000   3.14159
   D23        3.14159   0.00000   0.00000   0.00000   0.00000   3.14159
   D24        0.00000   0.00000   0.00000   0.00000   0.00000   0.00000
         Item               Value     Threshold  Converged?
 Maximum Force            0.111973     0.000450     NO 
 RMS     Force            0.022931     0.000300     NO 
 Maximum Displacement     0.565547     0.001800     NO 
 RMS     Displacement     0.122069     0.001200     NO 
 Predicted change in Energy=-1.001717D-01
 GradGradGradGradGradGradGradGradGradGradGradGradGradGradGradGradGradGrad

                          Input orientation:                          
 ---------------------------------------------------------------------
 Center     Atomic      Atomic             Coordinates (Angstroms)
 Number     Number       Type             X           Y           Z
 ---------------------------------------------------------------------
      1          6           0       -3.151511    0.127204   -0.000000
      2          6           0       -1.973157    0.851382    0.000000
      3          6           0       -0.767633    0.172709    0.000000
      4          6           0       -0.776814   -1.167842    0.000000
      5          6           0       -1.890403   -1.852220   -0.000000
      6          6           0       -3.090558   -1.254884   -0.000000
      7         17           0       -4.468194   -2.194333   -0.000000
      8         17           0       -4.621803    0.912014   -0.000000
      9         17           0       -2.009205    2.517632    0.000000
     10         17           0        0.692795    0.977440    0.000000
     11          1           0        0.233986   -1.722412    0.000000
     12          1           0       -1.852203   -3.004521   -0.000000
 ---------------------------------------------------------------------
                    Distance matrix (angstroms):
                    1          2          3          4          5
     1  C    0.000000
     2  C    1.383095   0.000000
     3  C    2.384313   1.383432   0.000000
     4  C    2.704871   2.347019   1.340582   0.000000
     5  C    2.347022   2.704867   2.315373   1.307078   0.000000
     6  C    1.383431   2.384311   2.726537   2.315381   1.340591
     7  Cl   2.668931   3.937206   4.392840   3.831445   2.600394
     8  Cl   1.666639   2.649341   3.924437   4.371469   3.886070
     9  Cl   2.649341   1.666641   2.653331   3.886065   4.371467
    10  Cl   3.937205   2.668930   1.667465   2.600381   3.831433
    11  H    3.857807   3.390560   2.143531   1.152938   2.128351
    12  H    3.390561   3.857799   3.357243   2.128345   1.152934
                    6          7          8          9         10
     6  C    0.000000
     7  Cl   1.667467   0.000000
     8  Cl   2.653330   3.110144   0.000000
     9  Cl   3.924437   5.315002   3.066542   0.000000
    10  Cl   4.392838   6.057718   5.315000   3.110143   0.000000
    11  H    3.357258   4.725802   5.524391   4.796862   2.738559
    12  H    2.143537   2.738578   4.796867   5.524384   4.725783
                   11         12
    11  H    0.000000
    12  H    2.448671   0.000000
 Stoichiometry    C6H2Cl4
 Framework group  CS[SG(C6H2Cl4)]
 Deg. of freedom    21
 Full point group                 CS      NOp   2
 Largest Abelian subgroup         CS      NOp   2
 Largest concise Abelian subgroup C1      NOp   1
                         Standard orientation:                         
 ---------------------------------------------------------------------
 Center     Atomic      Atomic             Coordinates (Angstroms)
 Number     Number       Type             X           Y           Z
 ---------------------------------------------------------------------
      1          6           0       -0.715016   -0.376059   -0.000000
      2          6           0        0.000000    0.807877    0.000000
      3          6           0        1.382520    0.757648    0.000000
      4          6           0        1.989150   -0.437827    0.000000
      5          6           0        1.313435   -1.556694    0.000000
      6          6           0       -0.027013   -1.576281   -0.000000
      7         17           0       -0.820391   -3.042909   -0.000000
      8         17           0       -2.381495   -0.352937   -0.000000
      9         17           0       -0.796192    2.272039    0.000000
     10         17           0        2.311254    2.142528    0.000000
     11          1           0        3.141717   -0.467078    0.000000
     12          1           0        1.875837   -2.563154    0.000000
 ---------------------------------------------------------------------
 Rotational constants (GHZ):           1.2045440           0.5773256           0.3902722
 Standard basis: VSTO-6G (5D, 7F)
 There are    32 symmetry adapted cartesian basis functions of A'  symmetry.
 There are    10 symmetry adapted cartesian basis functions of A"  symmetry.
 There are    32 symmetry adapted basis functions of A'  symmetry.
 There are    10 symmetry adapted basis functions of A"  symmetry.
    42 basis functions,   252 primitive gaussians,    42 cartesian basis functions
    27 alpha electrons       27 beta electrons
       nuclear repulsion energy       311.8198715633 Hartrees.
 Integral buffers will be    131072 words long.
 Regular integral format.
 Two-electron integral symmetry is turned off.
 Do NDO integrals.
 One-electron integrals computed using PRISM.
 NBasis=    42 RedAO= T EigKep=  1.00D+00  NBF=    32    10
 NBsUse=    42 1.00D-06 EigRej= -1.00D+00 NBFU=    32    10
 Initial guess from the checkpoint file:  "geometry_chks/1234ClBz.chk"
 B after Tr=    -0.000000   -0.000000    0.000000
         Rot=    0.963329    0.000000    0.000000    0.268323 Ang=  31.13 deg.
 Initial guess orbital symmetries:
       Occupied  (A') (A') (A') (A') (A') (A') (A') (A') (A') (A')
                 (A') (A') (A") (A') (A') (A") (A') (A") (A') (A")
                 (A') (A') (A") (A') (A') (A") (A")
       Virtual   (A") (A") (A') (A') (A') (A') (A') (A') (A") (A')
                 (A') (A') (A') (A') (A')
 Keep J ints in memory in canonical form, NReq=864594.
 Overlap will be assumed to be unity.
 Requested convergence on RMS density matrix=1.00D-08 within  32 cycles.
 Requested convergence on MAX density matrix=1.00D-06.
 Requested convergence on             energy=1.00D-06.
 No special actions if energy rises.
 Fock symm off for IB=2 I1=    1 I=   33 J=    6 Cut=1.00D-07 Err=2.89D-03
 Fock matrix is not symmetric: symmetry in diagonalization turned off.
 SCF Done:  E(RAM1) =  0.262083513238E-01 A.U. after   11 cycles
            NFock= 10  Conv=0.89D-08     -V/T= 1.0002
 QCSCF skips out because SCF is already converged.
 Calling FoFJK, ICntrl=      2127 FMM=F ISym2X=1 I1Cent= 0 IOpClX= 0 NMat=1 NMatS=1 NMatT=0.
 ***** Axes restored to original set *****
 -------------------------------------------------------------------
 Center     Atomic                   Forces (Hartrees/Bohr)
 Number     Number              X              Y              Z
 -------------------------------------------------------------------
      1        6          -0.022520804    0.013524321    0.000000000
      2        6          -0.001893226    0.026202762    0.000000000
      3        6           0.019771149    0.059273934   -0.000000000
      4        6           0.134699891   -0.037095281    0.000000000
      5        6          -0.027759545   -0.136926073    0.000000000
      6        6          -0.061802651    0.009128426    0.000000000
      7       17          -0.020701311   -0.011251220   -0.000000000
      8       17          -0.018644854    0.009066955   -0.000000000
      9       17           0.000332730    0.020728850   -0.000000000
     10       17           0.019390716    0.013388901   -0.000000000
     11        1          -0.021005445    0.010484303   -0.000000000
     12        1           0.000133349    0.023474123   -0.000000000
 -------------------------------------------------------------------
 Cartesian Forces:  Max     0.136926073 RMS     0.037748861

 GradGradGradGradGradGradGradGradGradGradGradGradGradGradGradGradGradGrad
 Berny optimization.
 Using GEDIIS/GDIIS optimizer.
 FormGI is forming the generalized inverse of G from B-inverse, IUseBI=4.
 Internal  Forces:  Max     0.124861531 RMS     0.028711805
 Search for a local minimum.
 Step number   4 out of a maximum of   64
 All quantities printed in internal units (Hartrees-Bohrs-Radians)
 Mixed Optimization -- RFO/linear search
 Update second derivatives using D2CorX and points    3    4
 ITU=  0  0  1  0
 Use linear search instead of GDIIS.
     Eigenvalues ---    0.02011   0.02011   0.02011   0.02011   0.02011
     Eigenvalues ---    0.02011   0.02011   0.02011   0.02011   0.06524
     Eigenvalues ---    0.11965   0.16000   0.16002   0.22452   0.24462
     Eigenvalues ---    0.24997   0.25000   0.25000   0.25000   0.25012
     Eigenvalues ---    0.27413   0.29033   0.29033   0.29038   0.40966
     Eigenvalues ---    0.41238   0.44653   0.44656   0.44657   0.58908
 RFO step:  Lambda=-8.71786067D-02 EMin= 2.01065772D-02
 Quartic linear search produced a step of -0.03986.
 Iteration  1 RMS(Cart)=  0.06689760 RMS(Int)=  0.00446499
 Iteration  2 RMS(Cart)=  0.00325255 RMS(Int)=  0.00035766
 Iteration  3 RMS(Cart)=  0.00000361 RMS(Int)=  0.00035765
 Iteration  4 RMS(Cart)=  0.00000000 RMS(Int)=  0.00035765
 ClnCor:  largest displacement from symmetrization is 1.23D-08 for atom    12.
 Variable       Old X    -DE/DX   Delta X   Delta X   Delta X     New X
                                 (Linear)    (Quad)   (Total)
    R1        2.61367   0.05272   0.00082   0.08525   0.08544   2.69911
    R2        2.61431   0.04998   0.00080   0.08315   0.08363   2.69794
    R3        3.14949   0.02072   0.00351   0.04866   0.05217   3.20166
    R4        2.61431   0.04998   0.00080   0.08315   0.08363   2.69794
    R5        3.14949   0.02072   0.00351   0.04866   0.05217   3.20166
    R6        2.53333   0.09194   0.00232   0.15867   0.16130   2.69463
    R7        3.15105   0.02344   0.00348   0.05507   0.05855   3.20960
    R8        2.47002   0.12486   0.00350   0.21559   0.21972   2.68974
    R9        2.17874  -0.02346   0.02174  -0.23959  -0.21785   1.96089
   R10        2.53335   0.09192   0.00231   0.15864   0.16127   2.69462
   R11        2.17873  -0.02346   0.02174  -0.23958  -0.21784   1.96089
   R12        3.15106   0.02344   0.00348   0.05506   0.05854   3.20960
    A1        2.07778   0.01312   0.00032   0.02290   0.02224   2.10003
    A2        2.10023  -0.00533  -0.00011  -0.00818  -0.00780   2.09243
    A3        2.10517  -0.00779  -0.00021  -0.01472  -0.01444   2.09073
    A4        2.07779   0.01312   0.00032   0.02289   0.02224   2.10002
    A5        2.10023  -0.00533  -0.00011  -0.00817  -0.00780   2.09243
    A6        2.10517  -0.00779  -0.00021  -0.01472  -0.01444   2.09074
    A7        2.07669   0.00106   0.00033   0.00337   0.00371   2.08040
    A8        2.12522  -0.00426  -0.00058  -0.01136  -0.01194   2.11328
    A9        2.08127   0.00320   0.00025   0.00799   0.00823   2.08951
   A10        2.12871  -0.01418  -0.00065  -0.02627  -0.02595   2.10276
   A11        2.06575   0.00809   0.00054   0.01654   0.01659   2.08234
   A12        2.08873   0.00610   0.00011   0.00973   0.00936   2.09808
   A13        2.12871  -0.01418  -0.00065  -0.02627  -0.02595   2.10276
   A14        2.08872   0.00610   0.00011   0.00974   0.00936   2.09808
   A15        2.06575   0.00808   0.00054   0.01654   0.01659   2.08234
   A16        2.07669   0.00107   0.00033   0.00338   0.00371   2.08040
   A17        2.12522  -0.00426  -0.00058  -0.01136  -0.01194   2.11328
   A18        2.08128   0.00320   0.00025   0.00798   0.00822   2.08950
    D1       -0.00000   0.00000   0.00000   0.00000   0.00000   0.00000
    D2        3.14159  -0.00000   0.00000  -0.00000   0.00000   3.14159
    D3        3.14159   0.00000   0.00000   0.00000   0.00000   3.14159
    D4       -0.00000   0.00000   0.00000   0.00000   0.00000   0.00000
    D5        0.00000  -0.00000   0.00000   0.00000   0.00000   0.00000
    D6        3.14159   0.00000   0.00000   0.00000   0.00000   3.14159
    D7        3.14159  -0.00000   0.00000  -0.00000   0.00000   3.14159
    D8       -0.00000  -0.00000   0.00000  -0.00000   0.00000   0.00000
    D9       -0.00000  -0.00000   0.00000  -0.00000   0.00000   0.00000
   D10        3.14159  -0.00000   0.00000  -0.00000   0.00000   3.14159
   D11        3.14159   0.00000   0.00000   0.00000   0.00000   3.14159
   D12        0.00000   0.00000   0.00000   0.00000   0.00000   0.00000
   D13        0.00000   0.00000   0.00000   0.00000  -0.00000   0.00000
   D14        3.14159  -0.00000   0.00000  -0.00000   0.00000   3.14159
   D15        3.14159   0.00000   0.00000   0.00000   0.00000   3.14159
   D16        0.00000  -0.00000   0.00000  -0.00000   0.00000   0.00000
   D17        0.00000   0.00000   0.00000   0.00000   0.00000   0.00000
   D18        3.14159  -0.00000   0.00000  -0.00000   0.00000   3.14159
   D19        3.14159   0.00000   0.00000   0.00000   0.00000   3.14159
   D20       -0.00000   0.00000   0.00000   0.00000   0.00000   0.00000
   D21       -0.00000  -0.00000   0.00000  -0.00000   0.00000   0.00000
   D22        3.14159  -0.00000   0.00000  -0.00000   0.00000   3.14159
   D23        3.14159   0.00000   0.00000   0.00000   0.00000   3.14159
   D24        0.00000  -0.00000   0.00000  -0.00000   0.00000   0.00000
         Item               Value     Threshold  Converged?
 Maximum Force            0.124862     0.000450     NO 
 RMS     Force            0.028712     0.000300     NO 
 Maximum Displacement     0.219674     0.001800     NO 
 RMS     Displacement     0.068322     0.001200     NO 
 Predicted change in Energy=-5.364241D-02
 GradGradGradGradGradGradGradGradGradGradGradGradGradGradGradGradGradGrad

                          Input orientation:                          
 ---------------------------------------------------------------------
 Center     Atomic      Atomic             Coordinates (Angstroms)
 Number     Number       Type             X           Y           Z
 ---------------------------------------------------------------------
      1          6           0       -3.178012    0.127155   -0.000000
      2          6           0       -1.961140    0.875009    0.000000
      3          6           0       -0.701784    0.202467    0.000000
      4          6           0       -0.674553   -1.223211    0.000000
      5          6           0       -1.887201   -1.968466    0.000000
      6          6           0       -3.146841   -1.300191   -0.000000
      7         17           0       -4.581949   -2.208586   -0.000000
      8         17           0       -4.666393    0.936599   -0.000000
      9         17           0       -2.011001    2.568523    0.000000
     10         17           0        0.756898    1.072505    0.000000
     11          1           0        0.239808   -1.713800    0.000000
     12          1           0       -1.862532   -3.005833    0.000000
 ---------------------------------------------------------------------
                    Distance matrix (angstroms):
                    1          2          3          4          5
     1  C    0.000000
     2  C    1.428308   0.000000
     3  C    2.477373   1.427687   0.000000
     4  C    2.844433   2.461267   1.425938   0.000000
     5  C    2.461264   2.844436   2.473492   1.423348   0.000000
     6  C    1.427687   2.477375   2.869893   2.473486   1.425932
     7  Cl   2.725202   4.046875   4.568244   4.029728   2.705424
     8  Cl   1.694248   2.705954   4.032006   4.538674   4.020361
     9  Cl   2.705955   1.694248   2.704121   4.020366   4.538678
    10  Cl   4.046876   2.725203   1.698446   2.705432   4.029735
    11  H    3.882089   3.397956   2.135105   1.037658   2.142201
    12  H    3.397956   3.882094   3.411821   2.142203   1.037660
                    6          7          8          9         10
     6  C    0.000000
     7  Cl   1.698445   0.000000
     8  Cl   2.704120   3.146319   0.000000
     9  Cl   4.032007   5.424993   3.116774   0.000000
    10  Cl   4.568245   6.266486   5.424993   3.146320   0.000000
    11  H    3.411813   4.847077   5.576327   4.837812   2.833880
    12  H    2.135102   2.833871   4.837809   5.576332   4.847087
                   11         12
    11  H    0.000000
    12  H    2.467627   0.000000
 Stoichiometry    C6H2Cl4
 Framework group  CS[SG(C6H2Cl4)]
 Deg. of freedom    21
 Full point group                 CS      NOp   2
 Largest Abelian subgroup         CS      NOp   2
 Largest concise Abelian subgroup C1      NOp   1
                         Standard orientation:                         
 ---------------------------------------------------------------------
 Center     Atomic      Atomic             Coordinates (Angstroms)
 Number     Number       Type             X           Y           Z
 ---------------------------------------------------------------------
      1          6           0       -0.412851   -0.714153    0.000000
      2          6           0       -0.412852    0.714155    0.000000
      3          6           0        0.819523    1.434946    0.000000
      4          6           0        2.048414    0.711670    0.000000
      5          6           0        2.048412   -0.711678    0.000000
      6          6           0        0.819523   -1.434946    0.000000
      7         17           0        0.842033   -3.133242    0.000000
      8         17           0       -1.881778   -1.558386    0.000000
      9         17           0       -1.881778    1.558388    0.000000
     10         17           0        0.842036    3.133243    0.000000
     11          1           0        2.945133    1.233808    0.000000
     12          1           0        2.945131   -1.233820    0.000000
 ---------------------------------------------------------------------
 Rotational constants (GHZ):           1.1608540           0.5414830           0.3692469
 Standard basis: VSTO-6G (5D, 7F)
 There are    32 symmetry adapted cartesian basis functions of A'  symmetry.
 There are    10 symmetry adapted cartesian basis functions of A"  symmetry.
 There are    32 symmetry adapted basis functions of A'  symmetry.
 There are    10 symmetry adapted basis functions of A"  symmetry.
    42 basis functions,   252 primitive gaussians,    42 cartesian basis functions
    27 alpha electrons       27 beta electrons
       nuclear repulsion energy       306.2411569020 Hartrees.
 Integral buffers will be    131072 words long.
 Regular integral format.
 Two-electron integral symmetry is turned off.
 Do NDO integrals.
 One-electron integrals computed using PRISM.
 NBasis=    42 RedAO= T EigKep=  1.00D+00  NBF=    32    10
 NBsUse=    42 1.00D-06 EigRej= -1.00D+00 NBFU=    32    10
 Initial guess from the checkpoint file:  "geometry_chks/1234ClBz.chk"
 B after Tr=     0.000000    0.000000   -0.000000
         Rot=    0.963329   -0.000000   -0.000000   -0.268323 Ang= -31.13 deg.
 Initial guess orbital symmetries:
       Occupied  (A') (A') (A') (A') (A') (A') (A') (A') (A') (A')
                 (A') (A') (A") (A') (A') (A") (A') (A") (A') (A")
                 (A') (A') (A') (A") (A') (A") (A")
       Virtual   (A") (A") (A') (A') (A') (A') (A") (A') (A') (A')
                 (A') (A') (A') (A') (A')
 Keep J ints in memory in canonical form, NReq=864594.
 Overlap will be assumed to be unity.
 Requested convergence on RMS density matrix=1.00D-08 within  32 cycles.
 Requested convergence on MAX density matrix=1.00D-06.
 Requested convergence on             energy=1.00D-06.
 No special actions if energy rises.
 Fock symm off for IB=2 I1=    1 I=   33 J=   12 Cut=1.00D-07 Err=3.30D-03
 Fock matrix is not symmetric: symmetry in diagonalization turned off.
 SCF Done:  E(RAM1) =  0.100127145896E-01 A.U. after   13 cycles
            NFock= 12  Conv=0.54D-08     -V/T= 1.0001
 QCSCF skips out because SCF is already converged.
 Calling FoFJK, ICntrl=      2127 FMM=F ISym2X=1 I1Cent= 0 IOpClX= 0 NMat=1 NMatS=1 NMatT=0.
 ***** Axes restored to original set *****
 -------------------------------------------------------------------
 Center     Atomic                   Forces (Hartrees/Bohr)
 Number     Number              X              Y              Z
 -------------------------------------------------------------------
      1        6           0.021363394   -0.013683384    0.000000000
      2        6           0.002558312   -0.025241184    0.000000000
      3        6          -0.028986551   -0.018415231    0.000000000
      4        6          -0.070513947    0.037243859    0.000000000
      5        6          -0.001371517    0.079730137    0.000000000
      6        6           0.029518594    0.017545433   -0.000000000
      7       17           0.006901641    0.003730923   -0.000000000
      8       17           0.003377890   -0.001686058   -0.000000000
      9       17          -0.000021551   -0.003775327   -0.000000000
     10       17          -0.006447196   -0.004473250   -0.000000000
     11        1           0.041056917   -0.023660585   -0.000000000
     12        1           0.002564014   -0.047315334   -0.000000000
 -------------------------------------------------------------------
 Cartesian Forces:  Max     0.079730137 RMS     0.024155954

 GradGradGradGradGradGradGradGradGradGradGradGradGradGradGradGradGradGrad
 Berny optimization.
 Using GEDIIS/GDIIS optimizer.
 FormGI is forming the generalized inverse of G from B-inverse, IUseBI=4.
 Internal  Forces:  Max     0.047364813 RMS     0.014894438
 Search for a local minimum.
 Step number   5 out of a maximum of   64
 All quantities printed in internal units (Hartrees-Bohrs-Radians)
 Mixed Optimization -- RFO/linear search
 Update second derivatives using D2CorX and points    4    5
 DE= -1.62D-02 DEPred=-5.36D-02 R= 3.02D-01
 Trust test= 3.02D-01 RLast= 4.83D-01 DXMaxT set to 5.05D-01
 ITU=  0  0  0  1  0
 Use linear search instead of GDIIS.
     Eigenvalues ---    0.02011   0.02011   0.02011   0.02011   0.02011
     Eigenvalues ---    0.02011   0.02011   0.02011   0.02011   0.06524
     Eigenvalues ---    0.15991   0.16000   0.19567   0.22483   0.24438
     Eigenvalues ---    0.24998   0.25000   0.25000   0.25000   0.25011
     Eigenvalues ---    0.27575   0.29033   0.29033   0.29048   0.40808
     Eigenvalues ---    0.41265   0.44636   0.44657   0.44666   0.74587
 RFO step:  Lambda=-8.07046475D-03 EMin= 2.01065794D-02
 Quartic linear search produced a step of -0.38940.
 Iteration  1 RMS(Cart)=  0.03509233 RMS(Int)=  0.00059561
 Iteration  2 RMS(Cart)=  0.00051170 RMS(Int)=  0.00013521
 Iteration  3 RMS(Cart)=  0.00000010 RMS(Int)=  0.00013521
 ClnCor:  largest displacement from symmetrization is 1.44D-10 for atom    11.
 Variable       Old X    -DE/DX   Delta X   Delta X   Delta X     New X
                                 (Linear)    (Quad)   (Total)
    R1        2.69911  -0.03366  -0.03327  -0.00445  -0.03748   2.66163
    R2        2.69794  -0.03290  -0.03257  -0.00434  -0.03678   2.66115
    R3        3.20166  -0.00377  -0.02032   0.01918  -0.00114   3.20053
    R4        2.69794  -0.03290  -0.03257  -0.00434  -0.03678   2.66115
    R5        3.20166  -0.00377  -0.02031   0.01918  -0.00114   3.20053
    R6        2.69463  -0.03419  -0.06281   0.03003  -0.03290   2.66173
    R7        3.20960  -0.00783  -0.02280   0.01362  -0.00917   3.20042
    R8        2.68974  -0.03953  -0.08556   0.04922  -0.03658   2.65316
    R9        1.96089   0.04736   0.08483   0.11818   0.20301   2.16389
   R10        2.69462  -0.03419  -0.06280   0.03003  -0.03289   2.66173
   R11        1.96089   0.04736   0.08483   0.11816   0.20299   2.16388
   R12        3.20960  -0.00783  -0.02280   0.01362  -0.00917   3.20042
    A1        2.10003  -0.00346  -0.00866   0.00237  -0.00592   2.09410
    A2        2.09243   0.00152   0.00304  -0.00011   0.00274   2.09517
    A3        2.09073   0.00194   0.00562  -0.00225   0.00318   2.09392
    A4        2.10002  -0.00346  -0.00866   0.00237  -0.00592   2.09410
    A5        2.09243   0.00152   0.00304  -0.00011   0.00274   2.09517
    A6        2.09074   0.00194   0.00562  -0.00225   0.00318   2.09392
    A7        2.08040   0.00535  -0.00144   0.01431   0.01287   2.09327
    A8        2.11328  -0.00181   0.00465  -0.00987  -0.00522   2.10806
    A9        2.08951  -0.00354  -0.00321  -0.00444  -0.00765   2.08186
   A10        2.10276  -0.00189   0.01010  -0.01668  -0.00694   2.09582
   A11        2.08234   0.00235  -0.00646   0.01519   0.00891   2.09125
   A12        2.09808  -0.00047  -0.00364   0.00149  -0.00197   2.09611
   A13        2.10276  -0.00189   0.01011  -0.01668  -0.00694   2.09582
   A14        2.09808  -0.00047  -0.00365   0.00149  -0.00197   2.09611
   A15        2.08234   0.00236  -0.00646   0.01519   0.00891   2.09126
   A16        2.08040   0.00535  -0.00145   0.01431   0.01287   2.09327
   A17        2.11328  -0.00181   0.00465  -0.00987  -0.00522   2.10806
   A18        2.08950  -0.00354  -0.00320  -0.00444  -0.00765   2.08186
    D1        0.00000   0.00000   0.00000   0.00000   0.00000   0.00000
    D2        3.14159  -0.00000   0.00000  -0.00000   0.00000   3.14159
    D3        3.14159   0.00000   0.00000   0.00000   0.00000   3.14159
    D4        0.00000  -0.00000   0.00000  -0.00000   0.00000   0.00000
    D5        0.00000  -0.00000   0.00000   0.00000   0.00000   0.00000
    D6        3.14159   0.00000   0.00000   0.00000   0.00000   3.14159
    D7        3.14159  -0.00000   0.00000  -0.00000   0.00000   3.14159
    D8        0.00000  -0.00000   0.00000  -0.00000   0.00000   0.00000
    D9        0.00000   0.00000   0.00000   0.00000   0.00000   0.00000
   D10        3.14159  -0.00000   0.00000  -0.00000   0.00000   3.14159
   D11        3.14159   0.00000   0.00000   0.00000   0.00000   3.14159
   D12        0.00000   0.00000   0.00000   0.00000   0.00000   0.00000
   D13        0.00000  -0.00000   0.00000  -0.00000   0.00000   0.00000
   D14        3.14159  -0.00000   0.00000  -0.00000   0.00000   3.14159
   D15        3.14159   0.00000   0.00000   0.00000   0.00000   3.14159
   D16        0.00000  -0.00000   0.00000  -0.00000   0.00000   0.00000
   D17        0.00000   0.00000   0.00000   0.00000   0.00000   0.00000
   D18        3.14159  -0.00000   0.00000  -0.00000   0.00000   3.14159
   D19        3.14159   0.00000   0.00000   0.00000   0.00000   3.14159
   D20        0.00000   0.00000   0.00000   0.00000   0.00000   0.00000
[...]
                                                      9
 DE= -6.53D-06 DEPred=-6.87D-06 R= 9.51D-01
 TightC=F SS=  1.41D+00  RLast= 5.14D-03 DXNew= 1.4270D+00 1.5409D-02
 Trust test= 9.51D-01 RLast= 5.14D-03 DXMaxT set to 8.49D-01
 ITU=  1  1  1  1  0  0  0  1  0
     Eigenvalues ---    0.02011   0.02011   0.02011   0.02011   0.02011
     Eigenvalues ---    0.02011   0.02011   0.02011   0.02011   0.06541
     Eigenvalues ---    0.15839   0.16000   0.21006   0.22483   0.24898
     Eigenvalues ---    0.25000   0.25000   0.25000   0.25200   0.27861
     Eigenvalues ---    0.28084   0.29033   0.29033   0.34270   0.41096
     Eigenvalues ---    0.43066   0.44601   0.44657   0.60905   0.79859
 En-DIIS/RFO-DIIS/Sim-DIIS IScMMF=       -3 using points:     9    8    7
 RFO step:  Lambda=-5.11745412D-07.
 DidBck=F Rises=F RFO-DIIS coefs:    0.89504    0.06659    0.03837
 Iteration  1 RMS(Cart)=  0.00023560 RMS(Int)=  0.00000002
 Iteration  2 RMS(Cart)=  0.00000002 RMS(Int)=  0.00000001
 ClnCor:  largest displacement from symmetrization is 1.03D-11 for atom    10.
 Variable       Old X    -DE/DX   Delta X   Delta X   Delta X     New X
                                 (Linear)    (Quad)   (Total)
    R1        2.65782   0.00018  -0.00011   0.00035   0.00024   2.65807
    R2        2.65282   0.00003   0.00005  -0.00015  -0.00009   2.65273
    R3        3.19795   0.00013   0.00025   0.00008   0.00033   3.19827
    R4        2.65282   0.00003   0.00005  -0.00015  -0.00009   2.65273
    R5        3.19795   0.00013   0.00025   0.00008   0.00033   3.19827
    R6        2.64310   0.00011   0.00007   0.00007   0.00014   2.64325
    R7        3.20247   0.00005  -0.00006   0.00021   0.00015   3.20262
    R8        2.62663   0.00005   0.00009  -0.00005   0.00004   2.62666
    R9        2.08148   0.00019   0.00018   0.00087   0.00105   2.08253
   R10        2.64311   0.00010   0.00007   0.00005   0.00012   2.64323
   R11        2.08177   0.00009   0.00014  -0.00050  -0.00035   2.08142
   R12        3.20247   0.00005  -0.00006   0.00021   0.00015   3.20262
    A1        2.08808  -0.00005   0.00006  -0.00024  -0.00018   2.08790
    A2        2.09698  -0.00000   0.00001  -0.00001  -0.00001   2.09697
    A3        2.09813   0.00005  -0.00007   0.00025   0.00018   2.09831
    A4        2.08808  -0.00005   0.00006  -0.00023  -0.00017   2.08790
    A5        2.09698  -0.00000   0.00001  -0.00001  -0.00001   2.09697
    A6        2.09813   0.00005  -0.00007   0.00025   0.00018   2.09831
    A7        2.09813   0.00009  -0.00008   0.00044   0.00036   2.09849
    A8        2.11045  -0.00004   0.00001  -0.00020  -0.00019   2.11025
    A9        2.07461  -0.00004   0.00007  -0.00024  -0.00017   2.07444
   A10        2.09698  -0.00004   0.00001  -0.00021  -0.00020   2.09679
   A11        2.09388   0.00002  -0.00002   0.00011   0.00009   2.09397
   A12        2.09232   0.00003   0.00000   0.00010   0.00011   2.09243
   A13        2.09698  -0.00004   0.00002  -0.00018  -0.00017   2.09681
   A14        2.09232   0.00002   0.00000   0.00009   0.00009   2.09242
   A15        2.09388   0.00001  -0.00002   0.00009   0.00007   2.09396
   A16        2.09813   0.00009  -0.00008   0.00043   0.00035   2.09848
   A17        2.11045  -0.00004   0.00001  -0.00020  -0.00019   2.11026
   A18        2.07461  -0.00004   0.00007  -0.00023  -0.00016   2.07445
    D1        0.00000  -0.00000   0.00000  -0.00000   0.00000   0.00000
    D2        3.14159  -0.00000  -0.00000  -0.00000   0.00000   3.14159
    D3        3.14159   0.00000  -0.00000   0.00000   0.00000   3.14159
    D4        0.00000  -0.00000   0.00000  -0.00000  -0.00000   0.00000
    D5       -0.00000  -0.00000   0.00000  -0.00000   0.00000   0.00000
    D6        3.14159   0.00000  -0.00000   0.00000   0.00000   3.14159
    D7        3.14159  -0.00000  -0.00000  -0.00000   0.00000   3.14159
    D8        0.00000  -0.00000   0.00000  -0.00000   0.00000   0.00000
    D9       -0.00000   0.00000   0.00000   0.00000   0.00000   0.00000
   D10        3.14159  -0.00000  -0.00000  -0.00000   0.00000   3.14159
   D11        3.14159   0.00000  -0.00000   0.00000   0.00000   3.14159
   D12        0.00000   0.00000   0.00000   0.00000  -0.00000   0.00000
   D13        0.00000  -0.00000   0.00000  -0.00000  -0.00000   0.00000
   D14        3.14159  -0.00000  -0.00000  -0.00000   0.00000   3.14159
   D15        3.14159   0.00000  -0.00000   0.00000   0.00000   3.14159
   D16       -0.00000   0.00000   0.00000   0.00000   0.00000   0.00000
   D17       -0.00000  -0.00000   0.00000  -0.00000   0.00000   0.00000
   D18        3.14159  -0.00000  -0.00000  -0.00000   0.00000   3.14159
   D19        3.14159   0.00000  -0.00000   0.00000   0.00000   3.14159
   D20        0.00000   0.00000   0.00000   0.00000  -0.00000   0.00000
   D21        0.00000   0.00000   0.00000   0.00000   0.00000   0.00000
   D22        3.14159  -0.00000  -0.00000  -0.00000   0.00000   3.14159
   D23        3.14159   0.00000  -0.00000   0.00000   0.00000   3.14159
   D24       -0.00000   0.00000   0.00000   0.00000   0.00000   0.00000
         Item               Value     Threshold  Converged?
 Maximum Force            0.000192     0.000450     YES
 RMS     Force            0.000057     0.000300     YES
 Maximum Displacement     0.001156     0.001800     YES
 RMS     Displacement     0.000236     0.001200     YES
 Predicted change in Energy=-2.552181D-07
 Optimization completed.
    -- Stationary point found.
                           ----------------------------
                           !   Optimized Parameters   !
                           ! (Angstroms and Degrees)  !
 --------------------------                            --------------------------
 ! Name  Definition              Value          Derivative Info.                !
 --------------------------------------------------------------------------------
 ! R1    R(1,2)                  1.4065         -DE/DX =    0.0002              !
 ! R2    R(1,6)                  1.4038         -DE/DX =    0.0                 !
 ! R3    R(1,8)                  1.6923         -DE/DX =    0.0001              !
 ! R4    R(2,3)                  1.4038         -DE/DX =    0.0                 !
 ! R5    R(2,9)                  1.6923         -DE/DX =    0.0001              !
 ! R6    R(3,4)                  1.3987         -DE/DX =    0.0001              !
 ! R7    R(3,10)                 1.6947         -DE/DX =    0.0                 !
 ! R8    R(4,5)                  1.39           -DE/DX =    0.0001              !
 ! R9    R(4,11)                 1.1015         -DE/DX =    0.0002              !
 ! R10   R(5,6)                  1.3987         -DE/DX =    0.0001              !
 ! R11   R(5,12)                 1.1016         -DE/DX =    0.0001              !
 ! R12   R(6,7)                  1.6947         -DE/DX =    0.0                 !
 ! A1    A(2,1,6)              119.638          -DE/DX =    0.0                 !
 ! A2    A(2,1,8)              120.1481         -DE/DX =    0.0                 !
 ! A3    A(6,1,8)              120.2139         -DE/DX =    0.0001              !
 ! A4    A(1,2,3)              119.638          -DE/DX =    0.0                 !
 ! A5    A(1,2,9)              120.1481         -DE/DX =    0.0                 !
 ! A6    A(3,2,9)              120.2139         -DE/DX =    0.0001              !
 ! A7    A(2,3,4)              120.2138         -DE/DX =    0.0001              !
 ! A8    A(2,3,10)             120.9198         -DE/DX =    0.0                 !
 ! A9    A(4,3,10)             118.8665         -DE/DX =    0.0                 !
 ! A10   A(3,4,5)              120.1484         -DE/DX =    0.0                 !
 ! A11   A(3,4,11)             119.9705         -DE/DX =    0.0                 !
 ! A12   A(5,4,11)             119.8811         -DE/DX =    0.0                 !
 ! A13   A(4,5,6)              120.148          -DE/DX =    0.0                 !
 ! A14   A(4,5,12)             119.8812         -DE/DX =    0.0                 !
 ! A15   A(6,5,12)             119.9708         -DE/DX =    0.0                 !
 ! A16   A(1,6,5)              120.2138         -DE/DX =    0.0001              !
 ! A17   A(1,6,7)              120.9197         -DE/DX =    0.0                 !
 ! A18   A(5,6,7)              118.8664         -DE/DX =    0.0                 !
 ! D1    D(6,1,2,3)              0.0            -DE/DX =    0.0                 !
 ! D2    D(6,1,2,9)            180.0            -DE/DX =    0.0                 !
 ! D3    D(8,1,2,3)            180.0            -DE/DX =    0.0                 !
 ! D4    D(8,1,2,9)              0.0            -DE/DX =    0.0                 !
 ! D5    D(2,1,6,5)              0.0            -DE/DX =    0.0                 !
 ! D6    D(2,1,6,7)            180.0            -DE/DX =    0.0                 !
 ! D7    D(8,1,6,5)            180.0            -DE/DX =    0.0                 !
 ! D8    D(8,1,6,7)              0.0            -DE/DX =    0.0                 !
 ! D9    D(1,2,3,4)              0.0            -DE/DX =    0.0                 !
 ! D10   D(1,2,3,10)           180.0            -DE/DX =    0.0                 !
 ! D11   D(9,2,3,4)            180.0            -DE/DX =    0.0                 !
 ! D12   D(9,2,3,10)             0.0            -DE/DX =    0.0                 !
 ! D13   D(2,3,4,5)              0.0            -DE/DX =    0.0                 !
 ! D14   D(2,3,4,11)           180.0            -DE/DX =    0.0                 !
 ! D15   D(10,3,4,5)           180.0            -DE/DX =    0.0                 !
 ! D16   D(10,3,4,11)            0.0            -DE/DX =    0.0                 !
 ! D17   D(3,4,5,6)              0.0            -DE/DX =    0.0                 !
 ! D18   D(3,4,5,12)           180.0            -DE/DX =    0.0                 !
 ! D19   D(11,4,5,6)           180.0            -DE/DX =    0.0                 !
 ! D20   D(11,4,5,12)            0.0            -DE/DX =    0.0                 !
 ! D21   D(4,5,6,1)              0.0            -DE/DX =    0.0                 !
 ! D22   D(4,5,6,7)            180.0            -DE/DX =    0.0                 !
 ! D23   D(12,5,6,1)           180.0            -DE/DX =    0.0                 !
 ! D24   D(12,5,6,7)             0.0            -DE/DX =    0.0                 !
 --------------------------------------------------------------------------------
 GradGradGradGradGradGradGradGradGradGradGradGradGradGradGradGradGradGrad

                          Input orientation:                          
 ---------------------------------------------------------------------
 Center     Atomic      Atomic             Coordinates (Angstroms)
 Number     Number       Type             X           Y           Z
 ---------------------------------------------------------------------
      1          6           0       -3.167969    0.131687   -0.000000
      2          6           0       -1.969709    0.868100    0.000000
      3          6           0       -0.739402    0.192056    0.000000
      4          6           0       -0.704611   -1.206181    0.000000
      5          6           0       -1.888803   -1.933953   -0.000000
      6          6           0       -3.120554   -1.271326   -0.000000
      7         17           0       -4.544154   -2.190719   -0.000000
      8         17           0       -4.658287    0.933412   -0.000000
      9         17           0       -2.011807    2.559856    0.000000
     10         17           0        0.723895    1.046857    0.000000
     11          1           0        0.262966   -1.732521    0.000000
     12          1           0       -1.856266   -3.035099   -0.000000
 ---------------------------------------------------------------------
                    Distance matrix (angstroms):
                    1          2          3          4          5
     1  C    0.000000
     2  C    1.406460   0.000000
     3  C    2.429317   1.403813   0.000000
     4  C    2.803216   2.429633   1.398670   0.000000
     5  C    2.429636   2.803220   2.416824   1.389950   0.000000
     6  C    1.403813   2.429318   2.794883   2.416821   1.398672
     7  Cl   2.699528   3.998017   4.489294   3.963762   2.667736
     8  Cl   1.692280   2.689371   3.988392   4.495488   3.986455
     9  Cl   2.689371   1.692280   2.688027   3.986452   4.495492
    10  Cl   3.998017   2.699529   1.694674   2.667735   3.963763
    11  H    3.904687   3.427545   2.169963   1.101471   2.161176
    12  H    3.427696   3.904847   3.414955   2.161308   1.101627
                    6          7          8          9         10
     6  C    0.000000
     7  Cl   1.694674   0.000000
     8  Cl   2.688027   3.126215   0.000000
     9  Cl   3.988392   5.383377   3.106312   0.000000
    10  Cl   4.489294   6.183384   5.383377   3.126217   0.000000
    11  H    3.414807   4.828907   5.596957   4.857890   2.817339
    12  H    2.170097   2.817396   4.858025   5.597117   4.829037
                   11         12
    11  H    0.000000
    12  H    2.487540   0.000000
 Stoichiometry    C6H2Cl4
 Framework group  CS[SG(C6H2Cl4)]
 Deg. of freedom    21
 Full point group                 CS      NOp   2
 Largest Abelian subgroup         CS      NOp   2
 Largest concise Abelian subgroup C1      NOp   1
                         Standard orientation:                         
 ---------------------------------------------------------------------
 Center     Atomic      Atomic             Coordinates (Angstroms)
 Number     Number       Type             X           Y           Z
 ---------------------------------------------------------------------
      1          6           0       -0.411190   -0.703229    0.000000
      2          6           0       -0.411190    0.703231    0.000000
      3          6           0        0.808958    1.397442   -0.000000
      4          6           0        2.018428    0.694975   -0.000000
      5          6           0        2.018432   -0.694975   -0.000000
      6          6           0        0.808958   -1.397441   -0.000000
      7         17           0        0.846864   -3.091691   -0.000000
      8         17           0       -1.874556   -1.553155    0.000000
      9         17           0       -1.874555    1.553157    0.000000
     10         17           0        0.846867    3.091692   -0.000000
     11          1           0        2.973470    1.243732   -0.000000
     12          1           0        2.973610   -1.243808   -0.000000
 ---------------------------------------------------------------------
 Rotational constants (GHZ):           1.1726044           0.5549585           0.3766849

 **********************************************************************

            Population analysis using the SCF Density.

 **********************************************************************

 Orbital symmetries:
       Occupied  (A') (A') (A') (A') (A') (A') (A') (A') (A') (A')
                 (A') (A') (A') (A") (A') (A") (A') (A') (A") (A")
                 (A') (A') (A') (A') (A") (A") (A")
       Virtual   (A") (A") (A') (A') (A') (A') (A") (A') (A') (A')
                 (A') (A') (A') (A') (A')
 The electronic state is 1-A'.
 Alpha  occ. eigenvalues --   -1.48926  -1.41437  -1.40383  -1.39161  -1.37394
 Alpha  occ. eigenvalues --   -1.17415  -1.16009  -0.90005  -0.89503  -0.71010
 Alpha  occ. eigenvalues --   -0.65683  -0.65565  -0.59266  -0.58566  -0.57834
 Alpha  occ. eigenvalues --   -0.51817  -0.51301  -0.51137  -0.49443  -0.47264
 Alpha  occ. eigenvalues --   -0.45266  -0.45189  -0.44953  -0.44012  -0.43980
 Alpha  occ. eigenvalues --   -0.36664  -0.35773
 Alpha virt. eigenvalues --   -0.02394  -0.02055   0.01968   0.02808   0.03789
 Alpha virt. eigenvalues --    0.04631   0.06491   0.11587   0.12261   0.13386
 Alpha virt. eigenvalues --    0.13496   0.14718   0.15813   0.16603   0.17634
          Condensed to atoms (all electrons):
               1          2          3          4          5          6
     1  C    4.055908   0.000000   0.000000   0.000000   0.000000   0.000000
     2  C    0.000000   4.055911   0.000000   0.000000   0.000000   0.000000
     3  C    0.000000   0.000000   4.056897   0.000000   0.000000   0.000000
     4  C    0.000000   0.000000   0.000000   4.110461   0.000000   0.000000
     5  C    0.000000   0.000000   0.000000   0.000000   4.110476   0.000000
     6  C    0.000000   0.000000   0.000000   0.000000   0.000000   4.056897
     7  Cl   0.000000   0.000000   0.000000   0.000000   0.000000   0.000000
     8  Cl   0.000000   0.000000   0.000000   0.000000   0.000000   0.000000
     9  Cl   0.000000   0.000000   0.000000   0.000000   0.000000   0.000000
    10  Cl   0.000000   0.000000   0.000000   0.000000   0.000000   0.000000
    11  H    0.000000   0.000000   0.000000   0.000000   0.000000   0.000000
    12  H    0.000000   0.000000   0.000000   0.000000   0.000000   0.000000
               7          8          9         10         11         12
     1  C    0.000000   0.000000   0.000000   0.000000   0.000000   0.000000
     2  C    0.000000   0.000000   0.000000   0.000000   0.000000   0.000000
     3  C    0.000000   0.000000   0.000000   0.000000   0.000000   0.000000
     4  C    0.000000   0.000000   0.000000   0.000000   0.000000   0.000000
     5  C    0.000000   0.000000   0.000000   0.000000   0.000000   0.000000
     6  C    0.000000   0.000000   0.000000   0.000000   0.000000   0.000000
     7  Cl   6.976956   0.000000   0.000000   0.000000   0.000000   0.000000
     8  Cl   0.000000   6.959437   0.000000   0.000000   0.000000   0.000000
     9  Cl   0.000000   0.000000   6.959437   0.000000   0.000000   0.000000
    10  Cl   0.000000   0.000000   0.000000   6.976954   0.000000   0.000000
    11  H    0.000000   0.000000   0.000000   0.000000   0.840344   0.000000
    12  H    0.000000   0.000000   0.000000   0.000000   0.000000   0.840322
 Mulliken charges:
               1
     1  C   -0.055908
     2  C   -0.055911
     3  C   -0.056897
     4  C   -0.110461
     5  C   -0.110476
     6  C   -0.056897
     7  Cl   0.023044
     8  Cl   0.040563
     9  Cl   0.040563
    10  Cl   0.023046
    11  H    0.159656
    12  H    0.159678
 Sum of Mulliken charges =   0.00000
 Mulliken charges with hydrogens summed into heavy atoms:
               1
     1  C   -0.055908
     2  C   -0.055911
     3  C   -0.056897
     4  C    0.049195
     5  C    0.049202
     6  C   -0.056897
     7  Cl   0.023044
     8  Cl   0.040563
     9  Cl   0.040563
    10  Cl   0.023046
 Charge=              0.0000 electrons
 Dipole moment (field-independent basis, Debye):
    X=              1.6083    Y=             -0.0001    Z=              0.0000  Tot=              1.6083
 N-N= 3.079757022726D+02 E-N=-4.402827871172D+02  KE=-1.347716886502D+02
 Symmetry A'   KE=-1.031753542463D+02
 Symmetry A"   KE=-3.159633440393D+01
 1\1\GINC-SH02-01N36\FOpt\RAM1\ZDO\C6H2Cl4\JLAPIER\09-Dec-2025\0\\# opt
  am1 SCF=XQC\\4-Chloro-Benzene (1234)\\0,1\C,-3.1679686314,0.131686698
 1,0.\C,-1.9697089943,0.868099802,0.\C,-0.7394017161,0.1920563685,0.\C,
 -0.7046109094,-1.2061811306,0.\C,-1.8888029637,-1.9339525034,0.\C,-3.1
 205538302,-1.2713255708,0.\Cl,-4.5441539673,-2.1907187845,0.\Cl,-4.658
 2866124,0.9334124451,0.\Cl,-2.011807008,2.5598561839,0.\Cl,0.723894932
 9,1.0468569936,0.\H,0.2629658084,-1.732521279,0.\H,-1.8562661086,-3.03
 50992231,0.\\Version=ES64L-G16RevB.01\State=1-A'\HF=-0.0011114\RMSD=7.
 804e-09\RMSF=7.415e-05\Dipole=0.3312748,-0.5391041,0.\PG=CS [SG(C6H2Cl
 4)]\\@


 WORK FAITHFULLY FOR EIGHT HOURS A DAY AND DON'T WORRY.
 IN TIME YOU MAY BECOME BOSS AND WORK TWELVE HOURS A DAY
 AND HAVE ALL THE WORRY.
 Job cpu time:       0 days  0 hours  0 minutes  7.7 seconds.
 Elapsed time:       0 days  0 hours  0 minutes 15.3 seconds.
 File lengths (MBytes):  RWF=     10 Int=      0 D2E=      0 Chk=      2 Scr=      1
 Normal termination of Gaussian 16 at Tue Dec  9 09:58:51 2025.
