 Entering Gaussian System, Link 0=g16
 Initial command:
 /share/software/user/restricted/gaussian/g16.B01/l1.exe "/home/users/jlapier/Chloroaromatics/Gau-20963.inp" -scrdir="/home/users/jlapier/Chloroaromatics/"
 Entering Link 1 = /share/software/user/restricted/gaussian/g16.B01/l1.exe PID=     20966.
  
 Copyright (c) 1988-2017, Gaussian, Inc.  All Rights Reserved.
  
 This is part of the Gaussian(R) 16 program.  It is based on
 the Gaussian(R) 09 system (copyright 2009, Gaussian, Inc.),
 the Gaussian(R) 03 system (copyright 2003, Gaussian, Inc.),
 the Gaussian(R) 98 system (copyright 1998, Gaussian, Inc.),
 the Gaussian(R) 94 system (copyright 1995, Gaussian, Inc.),
 the Gaussian 92(TM) system (copyright 1992, Gaussian, Inc.),
 the Gaussian 90(TM) system (copyright 1990, Gaussian, Inc.),
 the Gaussian 88(TM) system (copyright 1988, Gaussian, Inc.),
 the Gaussian 86(TM) system (copyright 1986, Carnegie Mellon
 University), and the Gaussian 82(TM) system (copyright 1983,
 Carnegie Mellon University). Gaussian is a federally registered
 trademark of Gaussian, Inc.
  
 This software contains proprietary and confidential information,
 including trade secrets, belonging to Gaussian, Inc.
  
 This software is provided under written license and may be
 used, copied, transmitted, or stored only in accord with that
 written license.
  
 The following legend is applicable only to US Government
 contracts under FAR:
  
                    RESTRICTED RIGHTS LEGEND
  
 Use, reproduction and disclosure by the US Government is
 subject to restrictions as set forth in subparagraphs (a)
 and (c) of the Commercial Computer Software - Restricted
 Rights clause in FAR 52.227-19.
  
 Gaussian, Inc.
 340 Quinnipiac St., Bldg. 40, Wallingford CT 06492
  
  
 ---------------------------------------------------------------
 Warning -- This program may not be used in any manner that
 competes with the business of Gaussian, Inc. or will provide
 assistance to any competitor of Gaussian, Inc.  The licensee
 of this program is prohibited from giving any competitor of
 Gaussian, Inc. access to this program.  By using this program,
 the user acknowledges that Gaussian, Inc. is engaged in the
 business of creating and licensing software in the field of
 computational chemistry and represents and warrants to the
 licensee that it is not a competitor of Gaussian, Inc. and that
 it will not use this program in any manner prohibited above.
 ---------------------------------------------------------------
  

 Cite this work as:
 Gaussian 16, Revision B.01,
 M. J. Frisch, G. W. Trucks, H. B. Schlegel, G. E. Scuseria, 
 M. A. Robb, J. R. Cheeseman, G. Scalmani, V. Barone, 
 G. A. Petersson, H. Nakatsuji, X. Li, M. Caricato, A. V. Marenich, 
 J. Bloino, B. G. Janesko, R. Gomperts, B. Mennucci, H. P. Hratchian, 
 J. V. Ortiz, A. F. Izmaylov, J. L. Sonnenberg, D. Williams-Young, 
 F. Ding, F. Lipparini, F. Egidi, J. Goings, B. Peng, A. Petrone, 
 T. Henderson, D. Ranasinghe, V. G. Zakrzewski, J. Gao, N. Rega, 
 G. Zheng, W. Liang, M. Hada, M. Ehara, K. Toyota, R. Fukuda, 
 J. Hasegawa, M. Ishida, T. Nakajima, Y. Honda, O. Kitao, H. Nakai, 
 T. Vreven, K. Throssell, J. A. Montgomery, Jr., J. E. Peralta, 
 F. Ogliaro, M. J. Bearpark, J. J. Heyd, E. N. Brothers, K. N. Kudin, 
 V. N. Staroverov, T. A. Keith, R. Kobayashi, J. Normand, 
 K. Raghavachari, A. P. Rendell, J. C. Burant, S. S. Iyengar, 
 J. Tomasi, M. Cossi, J. M. Millam, M. Klene, C. Adamo, R. Cammi, 
 J. W. Ochterski, R. L. Martin, K. Morokuma, O. Farkas, 
 J. B. Foresman, and D. J. Fox, Gaussian, Inc., Wallingford CT, 2016.
 
 ******************************************
 Gaussian 16:  ES64L-G16RevB.01 20-Dec-2017
                 9-Dec-2025 
 ******************************************
 %mem=2GB
 %nprocshare=1
 Will use up to    1 processors via shared memory.
 %chk=geometry_chks/123456ClBzAnionRadical.chk
 -----------------
 # opt am1 SCF=XQC
 -----------------
 1/18=20,19=15,26=1,38=1/1,3;
 2/9=110,12=2,17=6,18=5,40=1/2;
 3/5=2,25=1,41=700000,71=1/1,2,3;
 4/35=1/1;
 5/5=2,8=3,13=1,35=1,38=5/2,8;
 6/7=2,8=2,9=2,10=2,28=1/1;
 7//1,2,3,16;
 1/18=20,19=15,26=1/3(2);
 2/9=110/2;
 99//99;
 2/9=110/2;
 3/5=2,25=1,41=700000,71=1,135=20/1,2,3;
 4/5=5,16=3,35=1/1;
 5/5=2,8=3,13=1,35=1,38=5/2,8;
 7//1,2,3,16;
 1/18=20,19=15,26=1/3(-5);
 2/9=110/2;
 6/7=2,8=2,9=2,10=2,19=2,28=1/1;
 99/9=1/99;
 ---------------------------------------
 6-Chloro-Benzene Anion Radical (123456)
 ---------------------------------------
 Symbolic Z-matrix:
 Charge = -1 Multiplicity = 2
 C                    -3.20928   0.19943   0. 
 C                    -2.0115    0.93555   0. 
 C                    -0.77511   0.2663    0. 
 C                    -0.7365   -1.13907   0. 
 C                    -1.93429  -1.87519   0. 
 C                    -3.17067  -1.20594   0. 
 Cl                   -4.67483  -2.13035   0. 
 Cl                   -4.76193   1.03987   0. 
 Cl                    0.81614  -1.97951   0. 
 Cl                   -1.8858   -3.64003   0. 
 Cl                   -2.05998   2.7004    0. 
 Cl                    0.72905   1.19071   0. 
 

 GradGradGradGradGradGradGradGradGradGradGradGradGradGradGradGradGradGrad
 Berny optimization.
 Initialization pass.
                           ----------------------------
                           !    Initial Parameters    !
                           ! (Angstroms and Degrees)  !
 --------------------------                            --------------------------
 ! Name  Definition              Value          Derivative Info.                !
 --------------------------------------------------------------------------------
 ! R1    R(1,2)                  1.4059         estimate D2E/DX2                !
 ! R2    R(1,6)                  1.4059         estimate D2E/DX2                !
 ! R3    R(1,8)                  1.7655         estimate D2E/DX2                !
 ! R4    R(2,3)                  1.4059         estimate D2E/DX2                !
 ! R5    R(2,11)                 1.7655         estimate D2E/DX2                !
 ! R6    R(3,4)                  1.4059         estimate D2E/DX2                !
 ! R7    R(3,12)                 1.7655         estimate D2E/DX2                !
 ! R8    R(4,5)                  1.4059         estimate D2E/DX2                !
 ! R9    R(4,9)                  1.7655         estimate D2E/DX2                !
 ! R10   R(5,6)                  1.4059         estimate D2E/DX2                !
 ! R11   R(5,10)                 1.7655         estimate D2E/DX2                !
 ! R12   R(6,7)                  1.7655         estimate D2E/DX2                !
 ! A1    A(2,1,6)              119.9999         estimate D2E/DX2                !
 ! A2    A(2,1,8)              119.9999         estimate D2E/DX2                !
 ! A3    A(6,1,8)              120.0001         estimate D2E/DX2                !
 ! A4    A(1,2,3)              120.0            estimate D2E/DX2                !
 ! A5    A(1,2,11)             120.0001         estimate D2E/DX2                !
 ! A6    A(3,2,11)             119.9999         estimate D2E/DX2                !
 ! A7    A(2,3,4)              120.0001         estimate D2E/DX2                !
 ! A8    A(2,3,12)             120.0            estimate D2E/DX2                !
 ! A9    A(4,3,12)             119.9999         estimate D2E/DX2                !
 ! A10   A(3,4,5)              119.9997         estimate D2E/DX2                !
 ! A11   A(3,4,9)              120.0003         estimate D2E/DX2                !
 ! A12   A(5,4,9)              120.0            estimate D2E/DX2                !
 ! A13   A(4,5,6)              120.0            estimate D2E/DX2                !
 ! A14   A(4,5,10)             119.9996         estimate D2E/DX2                !
 ! A15   A(6,5,10)             120.0004         estimate D2E/DX2                !
 ! A16   A(1,6,5)              120.0003         estimate D2E/DX2                !
 ! A17   A(1,6,7)              119.9999         estimate D2E/DX2                !
 ! A18   A(5,6,7)              119.9998         estimate D2E/DX2                !
 ! D1    D(6,1,2,3)              0.0            estimate D2E/DX2                !
 ! D2    D(6,1,2,11)           180.0            estimate D2E/DX2                !
 ! D3    D(8,1,2,3)            180.0            estimate D2E/DX2                !
 ! D4    D(8,1,2,11)             0.0            estimate D2E/DX2                !
 ! D5    D(2,1,6,5)              0.0            estimate D2E/DX2                !
 ! D6    D(2,1,6,7)            180.0            estimate D2E/DX2                !
 ! D7    D(8,1,6,5)            180.0            estimate D2E/DX2                !
 ! D8    D(8,1,6,7)              0.0            estimate D2E/DX2                !
 ! D9    D(1,2,3,4)              0.0            estimate D2E/DX2                !
 ! D10   D(1,2,3,12)           180.0            estimate D2E/DX2                !
 ! D11   D(11,2,3,4)           180.0            estimate D2E/DX2                !
 ! D12   D(11,2,3,12)            0.0            estimate D2E/DX2                !
 ! D13   D(2,3,4,5)              0.0            estimate D2E/DX2                !
 ! D14   D(2,3,4,9)            180.0            estimate D2E/DX2                !
 ! D15   D(12,3,4,5)           180.0            estimate D2E/DX2                !
 ! D16   D(12,3,4,9)             0.0            estimate D2E/DX2                !
 ! D17   D(3,4,5,6)              0.0            estimate D2E/DX2                !
 ! D18   D(3,4,5,10)           180.0            estimate D2E/DX2                !
 ! D19   D(9,4,5,6)            180.0            estimate D2E/DX2                !
 ! D20   D(9,4,5,10)             0.0            estimate D2E/DX2                !
 ! D21   D(4,5,6,1)              0.0            estimate D2E/DX2                !
 ! D22   D(4,5,6,7)            180.0            estimate D2E/DX2                !
 ! D23   D(10,5,6,1)           180.0            estimate D2E/DX2                !
 ! D24   D(10,5,6,7)             0.0            estimate D2E/DX2                !
 --------------------------------------------------------------------------------
 Trust Radius=3.00D-01 FncErr=1.00D-07 GrdErr=1.00D-07 EigMax=2.50D+02 EigMin=1.00D-04
 Number of steps in this run=     64 maximum allowed number of steps=    100.
 GradGradGradGradGradGradGradGradGradGradGradGradGradGradGradGradGradGrad

                          Input orientation:                          
 ---------------------------------------------------------------------
 Center     Atomic      Atomic             Coordinates (Angstroms)
 Number     Number       Type             X           Y           Z
 ---------------------------------------------------------------------
      1          6           0       -3.209280    0.199430    0.000000
      2          6           0       -2.011500    0.935550    0.000000
      3          6           0       -0.775110    0.266300    0.000000
      4          6           0       -0.736500   -1.139070    0.000000
      5          6           0       -1.934290   -1.875190    0.000000
      6          6           0       -3.170670   -1.205940    0.000000
      7         17           0       -4.674830   -2.130350    0.000000
      8         17           0       -4.761930    1.039870    0.000000
      9         17           0        0.816140   -1.979510    0.000000
     10         17           0       -1.885800   -3.640030    0.000000
     11         17           0       -2.059980    2.700400    0.000000
     12         17           0        0.729050    1.190710    0.000000
 ---------------------------------------------------------------------
                    Distance matrix (angstroms):
                    1          2          3          4          5
     1  C    0.000000
     2  C    1.405898   0.000000
     3  C    2.435088   1.405900   0.000000
     4  C    2.811801   2.435092   1.405900   0.000000
     5  C    2.435087   2.811800   2.435093   1.405907   0.000000
     6  C    1.405900   2.435088   2.811796   2.435088   1.405892
     7  Cl   2.752401   4.061166   4.577308   4.061167   2.752393
     8  Cl   1.765520   2.752408   4.061175   4.577321   4.061173
     9  Cl   4.577312   4.061173   2.752406   1.765511   2.752408
    10  Cl   4.061164   4.577306   4.061163   2.752397   1.765506
    11  Cl   2.752406   1.765516   2.752405   4.061173   4.577316
    12  Cl   4.061167   2.752403   1.765512   2.752401   4.061173
                    6          7          8          9         10
     6  C    0.000000
     7  Cl   1.765512   0.000000
     8  Cl   2.752412   3.171416   0.000000
     9  Cl   4.061165   5.493041   6.342832   0.000000
    10  Cl   2.752396   3.171407   5.493049   3.171404   0.000000
    11  Cl   4.061173   5.493049   3.171418   5.493052   6.342822
    12  Cl   4.577308   6.342819   5.493051   3.171416   5.493040
                   11         12
    11  Cl   0.000000
    12  Cl   3.171412   0.000000
 This structure is nearly, but not quite of a higher symmetry.
 Consider Symm=Loose if the higher symmetry is desired.
 Stoichiometry    C6Cl6(1-,2)
 Framework group  CS[SG(C6Cl6)]
 Deg. of freedom    21
 Full point group                 CS      NOp   2
 Largest Abelian subgroup         CS      NOp   2
 Largest concise Abelian subgroup C1      NOp   1
                         Standard orientation:                         
 ---------------------------------------------------------------------
 Center     Atomic      Atomic             Coordinates (Angstroms)
 Number     Number       Type             X           Y           Z
 ---------------------------------------------------------------------
      1          6           0        0.000000    1.405898    0.000000
      2          6           0       -1.217544    0.702950    0.000000
      3          6           0       -1.217544   -0.702950   -0.000000
      4          6           0        0.000000   -1.405902   -0.000000
      5          6           0        1.217549   -0.702946   -0.000000
      6          6           0        1.217544    0.702946    0.000000
      7         17           0        2.746522    1.585702    0.000000
      8         17           0       -0.000000    3.171418    0.000000
      9         17           0        0.000005   -3.171414   -0.000000
     10         17           0        2.746519   -1.585705   -0.000000
     11         17           0       -2.746527    1.585706    0.000000
     12         17           0       -2.746522   -1.585706   -0.000000
 ---------------------------------------------------------------------
 Rotational constants (GHZ):           0.4487114           0.4487103           0.2243554
 Standard basis: VSTO-6G (5D, 7F)
 There are    36 symmetry adapted cartesian basis functions of A'  symmetry.
 There are    12 symmetry adapted cartesian basis functions of A"  symmetry.
 There are    36 symmetry adapted basis functions of A'  symmetry.
 There are    12 symmetry adapted basis functions of A"  symmetry.
    48 basis functions,   288 primitive gaussians,    48 cartesian basis functions
    34 alpha electrons       33 beta electrons
       nuclear repulsion energy       419.5959637423 Hartrees.
 Integral buffers will be    131072 words long.
 Regular integral format.
 Two-electron integral symmetry is turned off.
 Do NDO integrals.
 One-electron integrals computed using PRISM.
 NBasis=    48 RedAO= T EigKep=  1.00D+00  NBF=    36    12
 NBsUse=    48 1.00D-06 EigRej= -1.00D+00 NBFU=    36    12
 Simple Huckel Guess.
 Initial guess orbital symmetries:
 Alpha Orbitals:
       Occupied  (A') (A') (A') (A') (A') (A') (A') (A') (A') (A')
                 (A') (A') (A") (A') (A') (A') (A') (A") (A") (A')
                 (A') (A") (A") (A") (A') (A') (A') (A') (A') (A")
                 (A') (A") (A") (A")
       Virtual   (A") (A") (A') (A') (A') (A') (A') (A') (A') (A')
                 (A') (A') (A') (A')
 Beta  Orbitals:
       Occupied  (A') (A') (A') (A') (A') (A') (A') (A') (A') (A')
                 (A') (A') (A") (A') (A') (A') (A') (A") (A") (A')
                 (A') (A") (A") (A") (A') (A') (A') (A') (A') (A")
                 (A') (A") (A")
       Virtual   (A") (A") (A") (A') (A') (A') (A') (A') (A') (A')
                 (A') (A') (A') (A') (A')
 The electronic state of the initial guess is 2-A".
 Initial guess <Sx>= 0.0000 <Sy>= 0.0000 <Sz>= 0.5000 <S**2>= 0.7500 S= 0.5000
 Keep J ints in memory in canonical form, NReq=866607.
 Overlap will be assumed to be unity.
 Requested convergence on RMS density matrix=1.00D-08 within  32 cycles.
 Requested convergence on MAX density matrix=1.00D-06.
 Requested convergence on             energy=1.00D-06.
 No special actions if energy rises.
 Fock symm off for IB=2 I1=    1 I=   37 J=   14 Cut=1.00D-07 Err=1.96D-03
 Fock matrix is not symmetric: symmetry in diagonalization turned off.
 Rare condition: small coef for last iteration:  0.000D+00
 Rare condition: small coef for last iteration:  0.000D+00
 Rare condition: small coef for last iteration:  0.000D+00
 Rare condition: small coef for last iteration:  0.000D+00
 Rare condition: small coef for last iteration:  0.000D+00
 SCF Done:  E(UAM1) = -0.671497082860E-01 A.U. after   29 cycles
            NFock= 28  Conv=0.47D-08     -V/T= 0.9996
 <Sx>= 0.0000 <Sy>= 0.0000 <Sz>= 0.5000 <S**2>= 0.8195 S= 0.5342
 <L.S>=  0.00000000000    
 Annihilation of the first spin contaminant:
 S**2 before annihilation     0.8195,   after     0.7508
 QCSCF skips out because SCF is already converged.

 **********************************************************************

            Population analysis using the SCF Density.

 **********************************************************************

 Orbital symmetries:
 Alpha Orbitals:
       Occupied  (A') (A') (A') (A') (A') (A') (A') (A') (A') (A')
                 (A') (A') (A') (A') (A') (A") (A') (A') (A') (A")
                 (A") (A") (A") (A") (A') (A') (A') (A') (A') (A')
                 (A") (A") (A") (A")
       Virtual   (A") (A') (A') (A') (A') (A") (A') (A') (A') (A')
                 (A') (A') (A') (A')
 Beta  Orbitals:
       Occupied  (A') (A') (A') (A') (A') (A') (A') (A') (A') (A')
                 (A') (A') (A') (A') (A') (A') (A") (A') (A') (A")
                 (A") (A") (A") (A") (A') (A') (A') (A') (A') (A')
                 (A") (A") (A")
       Virtual   (A") (A') (A') (A") (A') (A') (A') (A') (A") (A')
                 (A') (A') (A') (A') (A')
 The electronic state is 2-A".
 Alpha  occ. eigenvalues --   -1.30243  -1.24636  -1.23959  -1.23183  -1.22391
 Alpha  occ. eigenvalues --   -1.22026  -1.19500  -0.98636  -0.98089  -0.72985
 Alpha  occ. eigenvalues --   -0.71967  -0.54062  -0.49711  -0.49293  -0.43092
 Alpha  occ. eigenvalues --   -0.42689  -0.42429  -0.36995  -0.36853  -0.36496
 Alpha  occ. eigenvalues --   -0.36156  -0.32987  -0.32683  -0.32060  -0.31144
 Alpha  occ. eigenvalues --   -0.30630  -0.30590  -0.30505  -0.29566  -0.28670
 Alpha  occ. eigenvalues --   -0.27630  -0.22307  -0.21479  -0.09978
 Alpha virt. eigenvalues --    0.14758   0.15349   0.16440   0.17582   0.18323
 Alpha virt. eigenvalues --    0.19341   0.19651   0.20127   0.29578   0.30031
 Alpha virt. eigenvalues --    0.30933   0.31386   0.32869   0.33220
  Beta  occ. eigenvalues --   -1.29554  -1.24645  -1.23885  -1.23207  -1.22367
  Beta  occ. eigenvalues --   -1.22057  -1.19324  -0.98497  -0.96380  -0.71952
  Beta  occ. eigenvalues --   -0.71388  -0.53840  -0.49503  -0.48781  -0.43100
  Beta  occ. eigenvalues --   -0.42138  -0.41599  -0.36869  -0.36803  -0.36276
  Beta  occ. eigenvalues --   -0.35165  -0.33017  -0.32108  -0.31806  -0.31005
  Beta  occ. eigenvalues --   -0.30628  -0.30588  -0.30445  -0.29611  -0.28701
  Beta  occ. eigenvalues --   -0.26847  -0.20433  -0.17567
  Beta virt. eigenvalues --    0.13631   0.15507   0.16973   0.17546   0.17551
  Beta virt. eigenvalues --    0.19330   0.19754   0.21566   0.24339   0.29989
  Beta virt. eigenvalues --    0.31297   0.31454   0.32430   0.33549   0.34181
          Condensed to atoms (all electrons):
               1          2          3          4          5          6
     1  C    4.206484   0.000000   0.000000   0.000000   0.000000   0.000000
     2  C    0.000000   4.024330   0.000000   0.000000   0.000000   0.000000
     3  C    0.000000   0.000000   4.024345   0.000000   0.000000   0.000000
     4  C    0.000000   0.000000   0.000000   4.206487   0.000000   0.000000
     5  C    0.000000   0.000000   0.000000   0.000000   4.024334   0.000000
     6  C    0.000000   0.000000   0.000000   0.000000   0.000000   4.024340
     7  Cl   0.000000   0.000000   0.000000   0.000000   0.000000   0.000000
     8  Cl   0.000000   0.000000   0.000000   0.000000   0.000000   0.000000
     9  Cl   0.000000   0.000000   0.000000   0.000000   0.000000   0.000000
    10  Cl   0.000000   0.000000   0.000000   0.000000   0.000000   0.000000
    11  Cl   0.000000   0.000000   0.000000   0.000000   0.000000   0.000000
    12  Cl   0.000000   0.000000   0.000000   0.000000   0.000000   0.000000
               7          8          9         10         11         12
     1  C    0.000000   0.000000   0.000000   0.000000   0.000000   0.000000
     2  C    0.000000   0.000000   0.000000   0.000000   0.000000   0.000000
     3  C    0.000000   0.000000   0.000000   0.000000   0.000000   0.000000
     4  C    0.000000   0.000000   0.000000   0.000000   0.000000   0.000000
     5  C    0.000000   0.000000   0.000000   0.000000   0.000000   0.000000
     6  C    0.000000   0.000000   0.000000   0.000000   0.000000   0.000000
     7  Cl   7.079031   0.000000   0.000000   0.000000   0.000000   0.000000
     8  Cl   0.000000   7.086781   0.000000   0.000000   0.000000   0.000000
     9  Cl   0.000000   0.000000   7.086776   0.000000   0.000000   0.000000
    10  Cl   0.000000   0.000000   0.000000   7.079027   0.000000   0.000000
    11  Cl   0.000000   0.000000   0.000000   0.000000   7.079032   0.000000
    12  Cl   0.000000   0.000000   0.000000   0.000000   0.000000   7.079031
          Atomic-Atomic Spin Densities.
               1          2          3          4          5          6
     1  C    0.551054   0.000000   0.000000   0.000000   0.000000   0.000000
     2  C    0.000000  -0.014299   0.000000   0.000000   0.000000   0.000000
     3  C    0.000000   0.000000  -0.014262   0.000000   0.000000   0.000000
     4  C    0.000000   0.000000   0.000000   0.551062   0.000000   0.000000
     5  C    0.000000   0.000000   0.000000   0.000000  -0.014295   0.000000
     6  C    0.000000   0.000000   0.000000   0.000000   0.000000  -0.014265
     7  Cl   0.000000   0.000000   0.000000   0.000000   0.000000   0.000000
     8  Cl   0.000000   0.000000   0.000000   0.000000   0.000000   0.000000
     9  Cl   0.000000   0.000000   0.000000   0.000000   0.000000   0.000000
    10  Cl   0.000000   0.000000   0.000000   0.000000   0.000000   0.000000
    11  Cl   0.000000   0.000000   0.000000   0.000000   0.000000   0.000000
    12  Cl   0.000000   0.000000   0.000000   0.000000   0.000000   0.000000
               7          8          9         10         11         12
     1  C    0.000000   0.000000   0.000000   0.000000   0.000000   0.000000
     2  C    0.000000   0.000000   0.000000   0.000000   0.000000   0.000000
     3  C    0.000000   0.000000   0.000000   0.000000   0.000000   0.000000
     4  C    0.000000   0.000000   0.000000   0.000000   0.000000   0.000000
     5  C    0.000000   0.000000   0.000000   0.000000   0.000000   0.000000
     6  C    0.000000   0.000000   0.000000   0.000000   0.000000   0.000000
     7  Cl  -0.002788   0.000000   0.000000   0.000000   0.000000   0.000000
     8  Cl   0.000000  -0.016923   0.000000   0.000000   0.000000   0.000000
     9  Cl   0.000000   0.000000  -0.016922   0.000000   0.000000   0.000000
    10  Cl   0.000000   0.000000   0.000000  -0.002787   0.000000   0.000000
    11  Cl   0.000000   0.000000   0.000000   0.000000  -0.002787   0.000000
    12  Cl   0.000000   0.000000   0.000000   0.000000   0.000000  -0.002788
 Mulliken charges and spin densities:
               1          2
     1  C   -0.206484   0.551054
     2  C   -0.024330  -0.014299
     3  C   -0.024345  -0.014262
     4  C   -0.206487   0.551062
     5  C   -0.024334  -0.014295
     6  C   -0.024340  -0.014265
     7  Cl  -0.079031  -0.002788
     8  Cl  -0.086781  -0.016923
     9  Cl  -0.086776  -0.016922
    10  Cl  -0.079027  -0.002787
    11  Cl  -0.079032  -0.002787
    12  Cl  -0.079031  -0.002788
 Sum of Mulliken charges =  -1.00000   1.00000
 Mulliken charges and spin densities with hydrogens summed into heavy atoms:
               1          2
     1  C   -0.206484   0.551054
     2  C   -0.024330  -0.014299
     3  C   -0.024345  -0.014262
     4  C   -0.206487   0.551062
     5  C   -0.024334  -0.014295
     6  C   -0.024340  -0.014265
     7  Cl  -0.079031  -0.002788
     8  Cl  -0.086781  -0.016923
     9  Cl  -0.086776  -0.016922
    10  Cl  -0.079027  -0.002787
    11  Cl  -0.079032  -0.002787
    12  Cl  -0.079031  -0.002788
 Charge=             -1.0000 electrons
 Dipole moment (field-independent basis, Debye):
    X=              0.0001    Y=             -0.0000    Z=              0.0000  Tot=              0.0001
 N-N= 4.195959637423D+02 E-N=-6.194988987099D+02  KE=-1.801702326318D+02
 Symmetry A'   KE=-1.358794912369D+02
 Symmetry A"   KE=-4.429074139486D+01
 Symmetry A'   SP=-1.254552017826D-14
 Symmetry A"   SP= 1.000000000000D+00
 Calling FoFJK, ICntrl=      2127 FMM=F ISym2X=1 I1Cent= 0 IOpClX= 1 NMat=1 NMatS=1 NMatT=0.
 ***** Axes restored to original set *****
 -------------------------------------------------------------------
 Center     Atomic                   Forces (Hartrees/Bohr)
 Number     Number              X              Y              Z
 -------------------------------------------------------------------
      1        6          -0.033958904    0.018383598   -0.000000000
      2        6           0.034590266    0.014313730   -0.000000000
      3        6          -0.006929467    0.036787023    0.000000000
      4        6           0.033951346   -0.018382755   -0.000000000
      5        6          -0.034577535   -0.014310642   -0.000000000
      6        6           0.006923057   -0.036785120    0.000000000
      7       17           0.026269310    0.016344392    0.000000000
      8       17           0.028190102   -0.015259401    0.000000000
      9       17          -0.028187326    0.015257963    0.000000000
     10       17          -0.000680062    0.030929750    0.000000000
     11       17           0.000679452   -0.030934130    0.000000000
     12       17          -0.026270240   -0.016344407    0.000000000
 -------------------------------------------------------------------
 Cartesian Forces:  Max     0.036787023 RMS     0.020048390

 GradGradGradGradGradGradGradGradGradGradGradGradGradGradGradGradGradGrad
 Berny optimization.
 FormGI is forming the generalized inverse of G from B-inverse, IUseBI=4.
 Internal  Forces:  Max     0.035648475 RMS     0.012540348
 Search for a local minimum.
 Step number   1 out of a maximum of   64
 All quantities printed in internal units (Hartrees-Bohrs-Radians)
 Mixed Optimization -- RFO/linear search
 Second derivative matrix not updated -- first step.
 ITU=  0
     Eigenvalues ---    0.02011   0.02011   0.02011   0.02011   0.02011
     Eigenvalues ---    0.02011   0.02011   0.02011   0.02011   0.25000
     Eigenvalues ---    0.25000   0.25000   0.25000   0.25000   0.25000
     Eigenvalues ---    0.25000   0.25000   0.25000   0.29033   0.29033
     Eigenvalues ---    0.29033   0.29033   0.29033   0.29034   0.41211
     Eigenvalues ---    0.41212   0.44656   0.44657   0.44657   0.44657
 RFO step:  Lambda=-2.42687504D-02 EMin= 2.01065826D-02
 Linear search not attempted -- first point.
 Iteration  1 RMS(Cart)=  0.04272664 RMS(Int)=  0.00001284
 Iteration  2 RMS(Cart)=  0.00002592 RMS(Int)=  0.00000000
 Iteration  3 RMS(Cart)=  0.00000000 RMS(Int)=  0.00000000
 ClnCor:  largest displacement from symmetrization is 2.77D-10 for atom     7.
 Variable       Old X    -DE/DX   Delta X   Delta X   Delta X     New X
                                 (Linear)    (Quad)   (Total)
    R1        2.65676   0.00352   0.00000   0.00748   0.00748   2.66424
    R2        2.65677   0.00352   0.00000   0.00748   0.00748   2.66425
    R3        3.33635  -0.03206   0.00000  -0.10189  -0.10189   3.23446
    R4        2.65677  -0.03565   0.00000  -0.07571  -0.07571   2.58105
    R5        3.33634  -0.03094   0.00000  -0.09835  -0.09835   3.23799
    R6        2.65677   0.00352   0.00000   0.00748   0.00748   2.66425
    R7        3.33633  -0.03094   0.00000  -0.09834  -0.09834   3.23799
    R8        2.65678   0.00352   0.00000   0.00747   0.00747   2.66425
    R9        3.33633  -0.03205   0.00000  -0.10188  -0.10188   3.23445
   R10        2.65675  -0.03564   0.00000  -0.07569  -0.07569   2.58106
   R11        3.33632  -0.03094   0.00000  -0.09833  -0.09833   3.23799
   R12        3.33633  -0.03094   0.00000  -0.09834  -0.09834   3.23799
    A1        2.09439  -0.00195   0.00000  -0.00709  -0.00709   2.08730
    A2        2.09439   0.00097   0.00000   0.00355   0.00355   2.09794
    A3        2.09440   0.00097   0.00000   0.00354   0.00354   2.09794
    A4        2.09439   0.00097   0.00000   0.00355   0.00355   2.09794
    A5        2.09440  -0.00077   0.00000  -0.00281  -0.00281   2.09159
    A6        2.09439  -0.00020   0.00000  -0.00074  -0.00074   2.09366
    A7        2.09440   0.00097   0.00000   0.00355   0.00355   2.09794
    A8        2.09440  -0.00020   0.00000  -0.00074  -0.00074   2.09366
    A9        2.09439  -0.00077   0.00000  -0.00281  -0.00281   2.09159
   A10        2.09439  -0.00194   0.00000  -0.00709  -0.00709   2.08730
   A11        2.09440   0.00097   0.00000   0.00354   0.00354   2.09794
   A12        2.09440   0.00097   0.00000   0.00355   0.00355   2.09794
   A13        2.09439   0.00097   0.00000   0.00355   0.00355   2.09794
   A14        2.09439  -0.00077   0.00000  -0.00280  -0.00280   2.09158
   A15        2.09440  -0.00020   0.00000  -0.00074  -0.00074   2.09366
   A16        2.09440   0.00097   0.00000   0.00354   0.00354   2.09794
   A17        2.09439  -0.00077   0.00000  -0.00281  -0.00281   2.09159
   A18        2.09439  -0.00020   0.00000  -0.00073  -0.00073   2.09366
    D1       -0.00000   0.00000   0.00000   0.00000   0.00000   0.00000
    D2        3.14159   0.00000   0.00000   0.00000   0.00000   3.14159
    D3        3.14159  -0.00000   0.00000  -0.00000   0.00000   3.14159
    D4        0.00000  -0.00000   0.00000  -0.00000   0.00000   0.00000
    D5       -0.00000  -0.00000   0.00000  -0.00000   0.00000   0.00000
    D6        3.14159  -0.00000   0.00000  -0.00000   0.00000   3.14159
    D7        3.14159   0.00000   0.00000   0.00000   0.00000   3.14159
    D8        0.00000   0.00000   0.00000   0.00000  -0.00000   0.00000
    D9        0.00000   0.00000   0.00000   0.00000   0.00000   0.00000
   D10        3.14159   0.00000   0.00000   0.00000   0.00000   3.14159
   D11        3.14159  -0.00000   0.00000  -0.00000   0.00000   3.14159
   D12       -0.00000  -0.00000   0.00000  -0.00000   0.00000   0.00000
   D13       -0.00000  -0.00000   0.00000  -0.00000   0.00000   0.00000
   D14        3.14159   0.00000   0.00000   0.00000   0.00000   3.14159
   D15        3.14159  -0.00000   0.00000  -0.00000   0.00000   3.14159
   D16        0.00000   0.00000   0.00000   0.00000   0.00000   0.00000
   D17        0.00000   0.00000   0.00000   0.00000   0.00000   0.00000
   D18        3.14159   0.00000   0.00000   0.00000   0.00000   3.14159
   D19        3.14159  -0.00000   0.00000  -0.00000   0.00000   3.14159
   D20        0.00000   0.00000   0.00000   0.00000   0.00000   0.00000
   D21        0.00000   0.00000   0.00000   0.00000  -0.00000   0.00000
   D22        3.14159   0.00000   0.00000   0.00000   0.00000   3.14159
   D23        3.14159  -0.00000   0.00000  -0.00000   0.00000   3.14159
   D24       -0.00000  -0.00000   0.00000  -0.00000   0.00000   0.00000
         Item               Value     Threshold  Converged?
 Maximum Force            0.035648     0.000450     NO 
 RMS     Force            0.012540     0.000300     NO 
 Maximum Displacement     0.117504     0.001800     NO 
 RMS     Displacement     0.042724     0.001200     NO 
 Predicted change in Energy=-1.300038D-02
 GradGradGradGradGradGradGradGradGradGradGradGradGradGradGradGradGradGrad

                          Input orientation:                          
 ---------------------------------------------------------------------
 Center     Atomic      Atomic             Coordinates (Angstroms)
 Number     Number       Type             X           Y           Z
 ---------------------------------------------------------------------
      1          6           0       -3.197208    0.192897   -0.000000
      2          6           0       -1.993444    0.926824   -0.000000
      3          6           0       -0.792290    0.276646    0.000000
      4          6           0       -0.748575   -1.132535    0.000000
      5          6           0       -1.952340   -1.866465    0.000000
      6          6           0       -3.153496   -1.216285   -0.000000
      7         17           0       -4.612658   -2.114522   -0.000000
      8         17           0       -4.702439    1.007671   -0.000000
      9         17           0        0.756655   -1.947307    0.000000
     10         17           0       -1.906544   -3.579322    0.000000
     11         17           0       -2.039230    2.639683   -0.000000
     12         17           0        0.666870    1.174886    0.000000
 ---------------------------------------------------------------------
                    Distance matrix (angstroms):
                    1          2          3          4          5
     1  C    0.000000
     2  C    1.409857   0.000000
     3  C    2.406376   1.365834   0.000000
     4  C    2.784345   2.406379   1.409859   0.000000
     5  C    2.406380   2.793591   2.436933   1.409860   0.000000
     6  C    1.409860   2.436932   2.793589   2.406379   1.365836
     7  Cl   2.706969   4.013735   4.506984   3.986909   2.671858
     8  Cl   1.711601   2.710201   3.977897   4.495945   3.977901
     9  Cl   4.495943   3.977898   2.710202   1.711598   2.710201
    10  Cl   3.986910   4.506984   4.013733   2.706965   1.713470
    11  Cl   2.706967   1.713471   2.671854   3.986906   4.506985
    12  Cl   3.986903   2.671854   1.713470   2.706967   4.013736
                    6          7          8          9         10
     6  C    0.000000
     7  Cl   1.713472   0.000000
     8  Cl   2.710204   3.123483   0.000000
     9  Cl   3.977898   5.371916   6.207544   0.000000
    10  Cl   2.671859   3.077125   5.371921   3.123476   0.000000
    11  Cl   4.013736   5.406014   3.123483   5.371913   6.220420
    12  Cl   4.506982   6.220419   5.371912   3.123483   5.406011
                   11         12
    11  Cl   0.000000
    12  Cl   3.077110   0.000000
 Stoichiometry    C6Cl6(1-,2)
 Framework group  CS[SG(C6Cl6)]
 Deg. of freedom    21
 Full point group                 CS      NOp   2
 Largest Abelian subgroup         CS      NOp   2
 Largest concise Abelian subgroup C1      NOp   1
                         Standard orientation:                         
 ---------------------------------------------------------------------
 Center     Atomic      Atomic             Coordinates (Angstroms)
 Number     Number       Type             X           Y           Z
 ---------------------------------------------------------------------
      1          6           0        0.000000    1.392172    0.000000
      2          6           0       -1.218464    0.682919    0.000000
      3          6           0       -1.218465   -0.682916    0.000000
      4          6           0        0.000000   -1.392173    0.000000
      5          6           0        1.218468   -0.682919    0.000000
      6          6           0        1.218467    0.682917    0.000000
      7         17           0        2.703008    1.538560    0.000000
      8         17           0       -0.000000    3.103773    0.000000
      9         17           0       -0.000001   -3.103771    0.000000
     10         17           0        2.703004   -1.538565    0.000000
     11         17           0       -2.703007    1.538557    0.000000
     12         17           0       -2.703007   -1.538554    0.000000
 ---------------------------------------------------------------------
 Rotational constants (GHZ):           0.4706685           0.4622817           0.2332187
 Standard basis: VSTO-6G (5D, 7F)
 There are    36 symmetry adapted cartesian basis functions of A'  symmetry.
 There are    12 symmetry adapted cartesian basis functions of A"  symmetry.
 There are    36 symmetry adapted basis functions of A'  symmetry.
 There are    12 symmetry adapted basis functions of A"  symmetry.
    48 basis functions,   288 primitive gaussians,    48 cartesian basis functions
    34 alpha electrons       33 beta electrons
       nuclear repulsion energy       424.7991974964 Hartrees.
 Integral buffers will be    131072 words long.
 Regular integral format.
 Two-electron integral symmetry is turned off.
 Do NDO integrals.
 One-electron integrals computed using PRISM.
 NBasis=    48 RedAO= T EigKep=  1.00D+00  NBF=    36    12
 NBsUse=    48 1.00D-06 EigRej= -1.00D+00 NBFU=    36    12
 Initial guess from the checkpoint file:  "geometry_chks/123456ClBzAnionRadical.chk"
 B after Tr=     0.000000   -0.000000    0.000000
         Rot=    1.000000    0.000000    0.000000    0.000000 Ang=   0.00 deg.
 Initial guess orbital symmetries:
 Alpha Orbitals:
       Occupied  (A') (A') (A') (A') (A') (A') (A') (A') (A') (A')
                 (A') (A') (A') (A') (A') (A") (A') (A') (A') (A")
                 (A") (A") (A") (A") (A') (A') (A') (A') (A') (A')
                 (A") (A") (A") (A")
       Virtual   (A") (A') (A') (A') (A') (A") (A') (A') (A') (A')
                 (A') (A') (A') (A')
 Beta  Orbitals:
       Occupied  (A') (A') (A') (A') (A') (A') (A') (A') (A') (A')
                 (A') (A') (A') (A') (A') (A') (A") (A') (A') (A")
                 (A") (A") (A") (A") (A') (A') (A') (A') (A') (A')
                 (A") (A") (A")
       Virtual   (A") (A') (A') (A") (A') (A') (A') (A') (A") (A')
                 (A') (A') (A') (A') (A')
 Initial guess <Sx>= 0.0000 <Sy>= 0.0000 <Sz>= 0.5000 <S**2>= 0.8195 S= 0.5342
 Keep J ints in memory in canonical form, NReq=866607.
 Overlap will be assumed to be unity.
 Requested convergence on RMS density matrix=1.00D-08 within  32 cycles.
 Requested convergence on MAX density matrix=1.00D-06.
 Requested convergence on             energy=1.00D-06.
 No special actions if energy rises.
 Fock symm off for IB=2 I1=    1 I=   37 J=    6 Cut=1.00D-07 Err=2.14D-03
 Fock matrix is not symmetric: symmetry in diagonalization turned off.
 SCF Done:  E(UAM1) = -0.787089872093E-01 A.U. after   14 cycles
            NFock= 13  Conv=0.90D-08     -V/T= 0.9996
 <Sx>= 0.0000 <Sy>= 0.0000 <Sz>= 0.5000 <S**2>= 0.8233 S= 0.5360
 <L.S>=  0.00000000000    
 Annihilation of the first spin contaminant:
 S**2 before annihilation     0.8233,   after     0.7508
 QCSCF skips out because SCF is already converged.
 Calling FoFJK, ICntrl=      2127 FMM=F ISym2X=1 I1Cent= 0 IOpClX= 1 NMat=1 NMatS=1 NMatT=0.
 ***** Axes restored to original set *****
 -------------------------------------------------------------------
 Center     Atomic                   Forces (Hartrees/Bohr)
 Number     Number              X              Y              Z
 -------------------------------------------------------------------
      1        6          -0.019059726    0.010315315   -0.000000000
      2        6          -0.006799572    0.013979220   -0.000000000
      3        6           0.015423001    0.001949921   -0.000000000
      4        6           0.019056511   -0.010317018   -0.000000000
      5        6           0.006800355   -0.013976497   -0.000000000
      6        6          -0.015421685   -0.001950763   -0.000000000
      7       17          -0.001511995    0.002229675    0.000000000
      8       17           0.004063195   -0.002199550    0.000000000
      9       17          -0.004062235    0.002199119    0.000000000
     10       17           0.002693116   -0.000047745    0.000000000
     11       17          -0.002694220    0.000047834    0.000000000
     12       17           0.001513255   -0.002229512    0.000000000
 -------------------------------------------------------------------
 Cartesian Forces:  Max     0.019059726 RMS     0.007411581

 GradGradGradGradGradGradGradGradGradGradGradGradGradGradGradGradGradGrad
 Berny optimization.
 Using GEDIIS/GDIIS optimizer.
 FormGI is forming the generalized inverse of G from B-inverse, IUseBI=4.
 Internal  Forces:  Max     0.023552873 RMS     0.005793194
 Search for a local minimum.
 Step number   2 out of a maximum of   64
 All quantities printed in internal units (Hartrees-Bohrs-Radians)
 Mixed Optimization -- RFO/linear search
 Update second derivatives using D2CorX and points    1    2
 DE= -1.16D-02 DEPred=-1.30D-02 R= 8.89D-01
 TightC=F SS=  1.41D+00  RLast= 2.67D-01 DXNew= 5.0454D-01 8.0144D-01
 Trust test= 8.89D-01 RLast= 2.67D-01 DXMaxT set to 5.05D-01
 ITU=  1  0
 Use linear search instead of GDIIS.
     Eigenvalues ---    0.02011   0.02011   0.02011   0.02011   0.02011
     Eigenvalues ---    0.02011   0.02011   0.02011   0.02011   0.21621
     Eigenvalues ---    0.25000   0.25000   0.25000   0.25000   0.25000
     Eigenvalues ---    0.25000   0.25000   0.25009   0.26960   0.29033
     Eigenvalues ---    0.29033   0.29033   0.29034   0.29323   0.41131
     Eigenvalues ---    0.41204   0.43680   0.44656   0.44657   0.66179
 RFO step:  Lambda=-3.57019135D-03 EMin= 2.01065822D-02
 Quartic linear search produced a step of -0.07565.
 Iteration  1 RMS(Cart)=  0.01787434 RMS(Int)=  0.00008918
 Iteration  2 RMS(Cart)=  0.00011550 RMS(Int)=  0.00000000
 Iteration  3 RMS(Cart)=  0.00000001 RMS(Int)=  0.00000000
 ClnCor:  largest displacement from symmetrization is 4.65D-11 for atom    11.
 Variable       Old X    -DE/DX   Delta X   Delta X   Delta X     New X
                                 (Linear)    (Quad)   (Total)
    R1        2.66424   0.01104  -0.00057   0.02434   0.02377   2.68802
    R2        2.66425   0.01104  -0.00057   0.02434   0.02377   2.68802
    R3        3.23446  -0.00462   0.00771  -0.03822  -0.03051   3.20395
    R4        2.58105   0.02355   0.00573   0.03104   0.03677   2.61782
    R5        3.23799   0.00012   0.00744  -0.02251  -0.01507   3.22292
    R6        2.66425   0.01104  -0.00057   0.02434   0.02377   2.68802
    R7        3.23799   0.00012   0.00744  -0.02251  -0.01507   3.22292
    R8        2.66425   0.01104  -0.00057   0.02433   0.02377   2.68802
    R9        3.23445  -0.00462   0.00771  -0.03821  -0.03050   3.20395
   R10        2.58106   0.02355   0.00573   0.03104   0.03677   2.61782
   R11        3.23799   0.00012   0.00744  -0.02251  -0.01507   3.22292
   R12        3.23799   0.00012   0.00744  -0.02251  -0.01507   3.22292
    A1        2.08730  -0.00213   0.00054  -0.00943  -0.00889   2.07841
    A2        2.09794   0.00107  -0.00027   0.00471   0.00445   2.10239
    A3        2.09794   0.00107  -0.00027   0.00471   0.00444   2.10238
    A4        2.09794   0.00107  -0.00027   0.00471   0.00444   2.10239
    A5        2.09159  -0.00489   0.00021  -0.01846  -0.01824   2.07334
    A6        2.09366   0.00383   0.00006   0.01374   0.01380   2.10746
    A7        2.09794   0.00107  -0.00027   0.00471   0.00444   2.10239
    A8        2.09366   0.00383   0.00006   0.01374   0.01380   2.10746
    A9        2.09159  -0.00489   0.00021  -0.01846  -0.01824   2.07334
   A10        2.08730  -0.00213   0.00054  -0.00942  -0.00889   2.07841
   A11        2.09794   0.00107  -0.00027   0.00471   0.00444   2.10239
   A12        2.09794   0.00107  -0.00027   0.00471   0.00445   2.10239
   A13        2.09794   0.00107  -0.00027   0.00471   0.00445   2.10239
   A14        2.09158  -0.00489   0.00021  -0.01845  -0.01824   2.07334
   A15        2.09366   0.00382   0.00006   0.01374   0.01379   2.10745
   A16        2.09794   0.00107  -0.00027   0.00471   0.00444   2.10239
   A17        2.09159  -0.00489   0.00021  -0.01845  -0.01824   2.07334
   A18        2.09366   0.00382   0.00006   0.01374   0.01380   2.10745
    D1        0.00000   0.00000   0.00000   0.00000   0.00000   0.00000
    D2        3.14159   0.00000   0.00000   0.00000   0.00000   3.14159
    D3        3.14159  -0.00000   0.00000  -0.00000   0.00000   3.14159
    D4        0.00000  -0.00000   0.00000  -0.00000   0.00000   0.00000
    D5        0.00000  -0.00000   0.00000  -0.00000   0.00000   0.00000
    D6        3.14159  -0.00000   0.00000  -0.00000   0.00000   3.14159
    D7        3.14159   0.00000   0.00000   0.00000   0.00000   3.14159
    D8        0.00000   0.00000   0.00000   0.00000   0.00000   0.00000
    D9        0.00000   0.00000   0.00000   0.00000   0.00000   0.00000
   D10        3.14159   0.00000   0.00000   0.00000   0.00000   3.14159
   D11        3.14159  -0.00000   0.00000  -0.00000   0.00000   3.14159
   D12        0.00000  -0.00000   0.00000  -0.00000   0.00000   0.00000
   D13        0.00000  -0.00000   0.00000  -0.00000   0.00000   0.00000
   D14        3.14159   0.00000   0.00000   0.00000   0.00000   3.14159
   D15        3.14159  -0.00000   0.00000  -0.00000   0.00000   3.14159
   D16        0.00000  -0.00000   0.00000  -0.00000   0.00000   0.00000
   D17        0.00000  -0.00000   0.00000  -0.00000   0.00000   0.00000
   D18        3.14159   0.00000   0.00000   0.00000   0.00000   3.14159
   D19        3.14159  -0.00000   0.00000  -0.00000   0.00000   3.14159
   D20        0.00000   0.00000   0.00000   0.00000   0.00000   0.00000
   D21        0.00000   0.00000   0.00000   0.00000   0.00000   0.00000
   D22        3.14159   0.00000   0.00000   0.00000   0.00000   3.14159
   D23        3.14159  -0.00000   0.00000  -0.00000   0.00000   3.14159
   D24        0.00000   0.00000   0.00000   0.00000   0.00000   0.00000
         Item               Value     Threshold  Converged?
 Maximum Force            0.023553     0.000450     NO 
 RMS     Force            0.005793     0.000300     NO 
 Maximum Displacement     0.053308     0.001800     NO 
 RMS     Displacement     0.017830     0.001200     NO 
 Predicted change in Energy=-1.856804D-03
 GradGradGradGradGradGradGradGradGradGradGradGradGradGradGradGradGradGrad

                          Input orientation:                          
 ---------------------------------------------------------------------
 Center     Atomic      Atomic             Coordinates (Angstroms)
 Number     Number       Type             X           Y           Z
 ---------------------------------------------------------------------
      1          6           0       -3.216128    0.203138    0.000000
      2          6           0       -1.998344    0.938209    0.000000
      3          6           0       -0.780077    0.278769    0.000000
      4          6           0       -0.729655   -1.142776    0.000000
      5          6           0       -1.947440   -1.877846    0.000000
      6          6           0       -3.165706   -1.218407    0.000000
      7         17           0       -4.630272   -2.092341    0.000000
      8         17           0       -4.707163    1.010224    0.000000
      9         17           0        0.761379   -1.949863    0.000000
     10         17           0       -1.878346   -3.581942    0.000000
     11         17           0       -2.067440    2.642304    0.000000
     12         17           0        0.684491    1.152701    0.000000
 ---------------------------------------------------------------------
                    Distance matrix (angstroms):
                    1          2          3          4          5
     1  C    0.000000
     2  C    1.422437   0.000000
     3  C    2.437225   1.385293   0.000000
     4  C    2.827371   2.437225   1.422439   0.000000
     5  C    2.437225   2.816516   2.452290   1.422438   0.000000
     6  C    1.422439   2.452290   2.816516   2.437224   1.385291
     7  Cl   2.696113   4.013885   4.521743   4.014534   2.691392
     8  Cl   1.695456   2.709776   3.994625   4.522828   3.994624
     9  Cl   4.522828   3.994626   2.709777   1.695457   2.709776
    10  Cl   4.014534   4.521743   4.013886   2.696112   1.705495
    11  Cl   2.696111   1.705495   2.691394   4.014535   4.521743
    12  Cl   4.014535   2.691395   1.705496   2.696112   4.013886
                    6          7          8          9         10
     6  C    0.000000
     7  Cl   1.705495   0.000000
     8  Cl   2.709776   3.103517   0.000000
     9  Cl   3.994624   5.393533   6.218285   0.000000
    10  Cl   2.691392   3.129218   5.393532   3.103519   0.000000
    11  Cl   4.013885   5.383769   3.103518   5.393535   6.227118
    12  Cl   4.521743   6.227118   5.393535   3.103517   5.383770
                   11         12
    11  Cl   0.000000
    12  Cl   3.129223   0.000000
 Stoichiometry    C6Cl6(1-,2)
 Framework group  CS[SG(C6Cl6)]
 Deg. of freedom    21
 Full point group                 CS      NOp   2
 Largest Abelian subgroup         CS      NOp   2
 Largest concise Abelian subgroup C1      NOp   1
                         Standard orientation:                         
 ---------------------------------------------------------------------
 Center     Atomic      Atomic             Coordinates (Angstroms)
 Number     Number       Type             X           Y           Z
 ---------------------------------------------------------------------
      1          6           0       -0.000001    1.413686   -0.000000
      2          6           0       -1.226146    0.692647   -0.000000
      3          6           0       -1.226146   -0.692646    0.000000
      4          6           0        0.000000   -1.413685    0.000000
      5          6           0        1.226144   -0.692646    0.000000
      6          6           0        1.226144    0.692646   -0.000000
      7         17           0        2.691884    1.564609   -0.000000
      8         17           0        0.000001    3.109142   -0.000000
      9         17           0        0.000000   -3.109143    0.000000
     10         17           0        2.691885   -1.564608    0.000000
     11         17           0       -2.691885    1.564611   -0.000000
     12         17           0       -2.691885   -1.564612    0.000000
 ---------------------------------------------------------------------
 Rotational constants (GHZ):           0.4654714           0.4638719           0.2323351
 Standard basis: VSTO-6G (5D, 7F)
 There are    36 symmetry adapted cartesian basis functions of A'  symmetry.
 There are    12 symmetry adapted cartesian basis functions of A"  symmetry.
 There are    36 symmetry adapted basis functions of A'  symmetry.
 There are    12 symmetry adapted basis functions of A"  symmetry.
    48 basis functions,   288 primitive gaussians,    48 cartesian basis functions
    34 alpha electrons       33 beta electrons
       nuclear repulsion energy       424.1656439927 Hartrees.
 Integral buffers will be    131072 words long.
 Regular integral format.
 Two-electron integral symmetry is turned off.
 Do NDO integrals.
 One-electron integrals computed using PRISM.
 NBasis=    48 RedAO= T EigKep=  1.00D+00  NBF=    36    12
 NBsUse=    48 1.00D-06 EigRej= -1.00D+00 NBFU=    36    12
 Initial guess from the checkpoint file:  "geometry_chks/123456ClBzAnionRadical.chk"
 B after Tr=    -0.000000   -0.000000   -0.000000
         Rot=    1.000000   -0.000000    0.000000   -0.000000 Ang=  -0.00 deg.
 Initial guess orbital symmetries:
 Alpha Orbitals:
       Occupied  (A') (A') (A') (A') (A') (A') (A') (A') (A') (A')
                 (A') (A') (A') (A') (A') (A") (A') (A') (A") (A')
                 (A") (A") (A") (A") (A') (A') (A') (A') (A') (A')
                 (A") (A") (A") (A")
       Virtual   (A") (A') (A') (A') (A') (A") (A') (A') (A') (A')
                 (A') (A') (A') (A')
 Beta  Orbitals:
       Occupied  (A') (A') (A') (A') (A') (A') (A') (A') (A') (A')
                 (A') (A') (A') (A') (A') (A") (A') (A') (A") (A')
                 (A") (A") (A") (A") (A') (A') (A') (A') (A') (A')
                 (A") (A") (A")
       Virtual   (A") (A') (A") (A') (A') (A') (A') (A') (A") (A')
                 (A') (A') (A') (A') (A')
 Initial guess <Sx>= 0.0000 <Sy>= 0.0000 <Sz>= 0.5000 <S**2>= 0.8233 S= 0.5360
 Keep J ints in memory in canonical form, NReq=866607.
 Overlap will be assumed to be unity.
 Requested convergence on RMS density matrix=1.00D-08 within  32 cycles.
 Requested convergence on MAX density matrix=1.00D-06.
 Requested convergence on             energy=1.00D-06.
 No special actions if energy rises.
 Fock symm off for IB=2 I1=    1 I=   37 J=   26 Cut=1.00D-07 Err=1.67D-03
 Fock matrix is not symmetric: symmetry in diagonalization turned off.
 SCF Done:  E(UAM1) = -0.798007159966E-01 A.U. after   12 cycles
            NFock= 11  Conv=0.95D-08     -V/T= 0.9996
 <Sx>= 0.0000 <Sy>= 0.0000 <Sz>= 0.5000 <S**2>= 0.8282 S= 0.5383
 <L.S>=  0.00000000000    
 Annihilation of the first spin contaminant:
 S**2 before annihilation     0.8282,   after     0.7509
 QCSCF skips out because SCF is already converged.
 Calling FoFJK, ICntrl=      2127 FMM=F ISym2X=1 I1Cent= 0 IOpClX= 1 NMat=1 NMatS=1 NMatT=0.
 ***** Axes restored to original set *****
 -------------------------------------------------------------------
 Center     Atomic                   Forces (Hartrees/Bohr)
 Number     Number              X              Y              Z
 -------------------------------------------------------------------
      1        6           0.005113661   -0.002767797   -0.000000000
      2        6           0.003394953   -0.009031235    0.000000000
      3        6          -0.009417444   -0.002095530   -0.000000000
      4        6          -0.005113378    0.002767668   -0.000000000
      5        6          -0.003393604    0.009030560   -0.000000000
      6        6           0.009416508    0.002095948    0.000000000
      7       17          -0.001713778   -0.002142298    0.000000000
      8       17          -0.002370431    0.001283177    0.000000000
      9       17           0.002369967   -0.001282898    0.000000000
     10       17          -0.000856555   -0.002606254    0.000000000
     11       17           0.000856841    0.002606307    0.000000000
     12       17           0.001713262    0.002142351    0.000000000
 -------------------------------------------------------------------
 Cartesian Forces:  Max     0.009417444 RMS     0.003668746

 GradGradGradGradGradGradGradGradGradGradGradGradGradGradGradGradGradGrad
 Berny optimization.
 Using GEDIIS/GDIIS optimizer.
 FormGI is forming the generalized inverse of G from B-inverse, IUseBI=4.
 Internal  Forces:  Max     0.008357253 RMS     0.002229908
 Search for a local minimum.
 Step number   3 out of a maximum of   64
 All quantities printed in internal units (Hartrees-Bohrs-Radians)
 Mixed Optimization -- RFO/linear search
 Update second derivatives using D2CorX and points    1    2    3
 DE= -1.09D-03 DEPred=-1.86D-03 R= 5.88D-01
 TightC=F SS=  1.41D+00  RLast= 1.01D-01 DXNew= 8.4853D-01 3.0213D-01
 Trust test= 5.88D-01 RLast= 1.01D-01 DXMaxT set to 5.05D-01
 ITU=  1  1  0
 Use linear search instead of GDIIS.
     Eigenvalues ---    0.02011   0.02011   0.02011   0.02011   0.02011
     Eigenvalues ---    0.02011   0.02011   0.02011   0.02011   0.22354
     Eigenvalues ---    0.25000   0.25000   0.25000   0.25000   0.25000
     Eigenvalues ---    0.25000   0.25000   0.25852   0.28333   0.29033
     Eigenvalues ---    0.29033   0.29033   0.29034   0.30782   0.41225
     Eigenvalues ---    0.41231   0.43646   0.44656   0.44657   0.78340
 RFO step:  Lambda=-8.66582982D-05 EMin= 2.01065834D-02
 Quartic linear search produced a step of -0.28960.
 Iteration  1 RMS(Cart)=  0.00554625 RMS(Int)=  0.00001343
 Iteration  2 RMS(Cart)=  0.00002276 RMS(Int)=  0.00000000
 Iteration  3 RMS(Cart)=  0.00000000 RMS(Int)=  0.00000000
 ClnCor:  largest displacement from symmetrization is 3.27D-10 for atom    12.
 Variable       Old X    -DE/DX   Delta X   Delta X   Delta X     New X
                                 (Linear)    (Quad)   (Total)
    R1        2.68802  -0.00392  -0.00688   0.00037  -0.00651   2.68150
    R2        2.68802  -0.00392  -0.00688   0.00037  -0.00651   2.68151
    R3        3.20395   0.00270   0.00884   0.00205   0.01088   3.21483
    R4        2.61782  -0.00836  -0.01065   0.00058  -0.01007   2.60776
    R5        3.22292   0.00257   0.00436   0.00584   0.01021   3.23313
    R6        2.68802  -0.00392  -0.00688   0.00037  -0.00651   2.68151
    R7        3.22292   0.00257   0.00436   0.00584   0.01021   3.23313
    R8        2.68802  -0.00392  -0.00688   0.00037  -0.00651   2.68150
    R9        3.20395   0.00269   0.00883   0.00205   0.01088   3.21483
   R10        2.61782  -0.00836  -0.01065   0.00058  -0.01007   2.60775
   R11        3.22292   0.00257   0.00436   0.00584   0.01021   3.23313
   R12        3.22292   0.00257   0.00437   0.00584   0.01021   3.23313
    A1        2.07841  -0.00128   0.00257  -0.00559  -0.00302   2.07540
    A2        2.10239   0.00064  -0.00129   0.00280   0.00151   2.10389
    A3        2.10238   0.00064  -0.00129   0.00280   0.00151   2.10389
    A4        2.10239   0.00064  -0.00129   0.00280   0.00151   2.10389
    A5        2.07334   0.00123   0.00528  -0.00154   0.00375   2.07709
    A6        2.10746  -0.00187  -0.00400  -0.00126  -0.00526   2.10220
    A7        2.10239   0.00064  -0.00129   0.00280   0.00151   2.10389
    A8        2.10746  -0.00187  -0.00400  -0.00126  -0.00526   2.10220
    A9        2.07334   0.00123   0.00528  -0.00153   0.00375   2.07709
   A10        2.07841  -0.00128   0.00257  -0.00559  -0.00302   2.07540
   A11        2.10239   0.00064  -0.00129   0.00280   0.00151   2.10389
   A12        2.10239   0.00064  -0.00129   0.00280   0.00151   2.10389
   A13        2.10239   0.00064  -0.00129   0.00280   0.00151   2.10389
   A14        2.07334   0.00123   0.00528  -0.00154   0.00375   2.07709
   A15        2.10745  -0.00187  -0.00399  -0.00126  -0.00526   2.10220
   A16        2.10239   0.00064  -0.00129   0.00280   0.00151   2.10389
   A17        2.07334   0.00123   0.00528  -0.00154   0.00375   2.07709
   A18        2.10745  -0.00187  -0.00400  -0.00126  -0.00526   2.10220
    D1        0.00000   0.00000   0.00000   0.00000   0.00000   0.00000
    D2        3.14159   0.00000   0.00000   0.00000   0.00000   3.14159
    D3        3.14159  -0.00000   0.00000  -0.00000   0.00000   3.14159
    D4       -0.00000  -0.00000   0.00000  -0.00000   0.00000   0.00000
    D5        0.00000  -0.00000   0.00000  -0.00000  -0.00000   0.00000
    D6        3.14159  -0.00000   0.00000  -0.00000   0.00000   3.14159
    D7        3.14159   0.00000   0.00000   0.00000   0.00000   3.14159
    D8       -0.00000   0.00000   0.00000   0.00000   0.00000   0.00000
    D9       -0.00000  -0.00000   0.00000  -0.00000   0.00000   0.00000
   D10        3.14159   0.00000   0.00000   0.00000   0.00000   3.14159
   D11        3.14159  -0.00000   0.00000  -0.00000   0.00000   3.14159
   D12        0.00000   0.00000   0.00000   0.00000  -0.00000   0.00000
   D13        0.00000  -0.00000   0.00000  -0.00000  -0.00000   0.00000
   D14        3.14159   0.00000   0.00000   0.00000   0.00000   3.14159
   D15        3.14159  -0.00000   0.00000  -0.00000   0.00000   3.14159
   D16       -0.00000   0.00000   0.00000   0.00000   0.00000   0.00000
   D17        0.00000   0.00000   0.00000   0.00000  -0.00000   0.00000
   D18        3.14159   0.00000   0.00000   0.00000   0.00000   3.14159
   D19        3.14159  -0.00000   0.00000  -0.00000   0.00000   3.14159
   D20        0.00000  -0.00000   0.00000  -0.00000  -0.00000   0.00000
   D21       -0.00000   0.00000   0.00000   0.00000   0.00000   0.00000
   D22        3.14159   0.00000   0.00000   0.00000   0.00000   3.14159
   D23        3.14159  -0.00000   0.00000  -0.00000   0.00000   3.14159
   D24        0.00000  -0.00000   0.00000  -0.00000   0.00000   0.00000
         Item               Value     Threshold  Converged?
 Maximum Force            0.008357     0.000450     NO 
 RMS     Force            0.002230     0.000300     NO 
 Maximum Displacement     0.017348     0.001800     NO 
 RMS     Displacement     0.005563     0.001200     NO 
 Predicted change in Energy=-2.475877D-04
 GradGradGradGradGradGradGradGradGradGradGradGradGradGradGradGradGradGrad

                          Input orientation:                          
 ---------------------------------------------------------------------
 Center     Atomic      Atomic             Coordinates (Angstroms)
 Number     Number       Type             X           Y           Z
 ---------------------------------------------------------------------
      1          6           0       -3.213871    0.201916    0.000000
      2          6           0       -1.997932    0.933373    0.000000
      3          6           0       -0.784351    0.276469   -0.000000
      4          6           0       -0.731912   -1.141554   -0.000000
      5          6           0       -1.947851   -1.873011   -0.000000
      6          6           0       -3.161432   -1.216107    0.000000
      7         17           0       -4.626009   -2.100519    0.000000
      8         17           0       -4.709970    1.011744    0.000000
      9         17           0        0.764186   -1.951383   -0.000000
     10         17           0       -1.887523   -3.582844   -0.000000
     11         17           0       -2.058260    2.643206    0.000000
     12         17           0        0.680226    1.160880   -0.000000
 ---------------------------------------------------------------------
                    Distance matrix (angstroms):
                    1          2          3          4          5
     1  C    0.000000
     2  C    1.418991   0.000000
     3  C    2.430663   1.379965   0.000000
     4  C    2.822238   2.430664   1.418992   0.000000
     5  C    2.430664   2.806830   2.444176   1.418991   0.000000
     6  C    1.418992   2.444176   2.806830   2.430663   1.379964
     7  Cl   2.700989   4.013887   4.517567   4.010437   2.687804
     8  Cl   1.701215   2.713170   3.993884   4.523454   3.993884
     9  Cl   4.523454   3.993884   2.713170   1.701215   2.713169
    10  Cl   4.010438   4.517566   4.013887   2.700988   1.710898
    11  Cl   2.700988   1.710898   2.687804   4.010438   4.517567
    12  Cl   4.010437   2.687804   1.710897   2.700989   4.013887
                    6          7          8          9         10
     6  C    0.000000
     7  Cl   1.710898   0.000000
     8  Cl   2.713170   3.113395   0.000000
     9  Cl   3.993884   5.392258   6.224669   0.000000
    10  Cl   2.687804   3.113936   5.392259   3.113395   0.000000
    11  Cl   4.013887   5.394096   3.113396   5.392258   6.228391
    12  Cl   4.517566   6.228391   5.392259   3.113396   5.394095
                   11         12
    11  Cl   0.000000
    12  Cl   3.113935   0.000000
 Stoichiometry    C6Cl6(1-,2)
 Framework group  CS[SG(C6Cl6)]
 Deg. of freedom    21
 Full point group                 CS      NOp   2
 Largest Abelian subgroup         CS      NOp   2
 Largest concise Abelian subgroup C1      NOp   1
                         Standard orientation:                         
 ---------------------------------------------------------------------
 Center     Atomic      Atomic             Coordinates (Angstroms)
 Number     Number       Type             X           Y           Z
 ---------------------------------------------------------------------
      1          6           0       -0.000001    1.411119    0.000000
      2          6           0       -1.222088    0.689983    0.000000
      3          6           0       -1.222088   -0.689982    0.000000
      4          6           0        0.000000   -1.411119    0.000000
      5          6           0        1.222088   -0.689982    0.000000
      6          6           0        1.222088    0.689982    0.000000
      7         17           0        2.697048    1.556968    0.000000
      8         17           0        0.000000    3.112335    0.000000
      9         17           0        0.000000   -3.112334    0.000000
     10         17           0        2.697047   -1.556968    0.000000
     11         17           0       -2.697048    1.556968    0.000000
     12         17           0       -2.697048   -1.556968    0.000000
 ---------------------------------------------------------------------
 Rotational constants (GHZ):           0.4648527           0.4640119           0.2322160
 Standard basis: VSTO-6G (5D, 7F)
 There are    36 symmetry adapted cartesian basis functions of A'  symmetry.
 There are    12 symmetry adapted cartesian basis functions of A"  symmetry.
 There are    36 symmetry adapted basis functions of A'  symmetry.
 There are    12 symmetry adapted basis functions of A"  symmetry.
    48 basis functions,   288 primitive gaussians,    48 cartesian basis functions
    34 alpha electrons       33 beta electrons
       nuclear repulsion energy       424.1299787787 Hartrees.
 Integral buffers will be    131072 words long.
 Regular integral format.
 Two-electron integral symmetry is turned off.
 Do NDO integrals.
 One-electron integrals computed using PRISM.
 NBasis=    48 RedAO= T EigKep=  1.00D+00  NBF=    36    12
 NBsUse=    48 1.00D-06 EigRej= -1.00D+00 NBFU=    36    12
 Initial guess from the checkpoint file:  "geometry_chks/123456ClBzAnionRadical.chk"
 B after Tr=    -0.000000   -0.000000   -0.000000
         Rot=    1.000000    0.000000    0.000000    0.000000 Ang=   0.00 deg.
 Initial guess orbital symmetries:
 Alpha Orbitals:
       Occupied  (A') (A') (A') (A') (A') (A') (A') (A') (A') (A')
                 (A') (A') (A') (A') (A') (A") (A') (A') (A') (A")
                 (A") (A") (A") (A") (A') (A') (A') (A') (A') (A')
                 (A") (A") (A") (A")
       Virtual   (A") (A') (A') (A') (A") (A') (A') (A') (A') (A')
                 (A') (A') (A') (A')
 Beta  Orbitals:
       Occupied  (A') (A') (A') (A') (A') (A') (A') (A') (A') (A')
                 (A') (A') (A') (A') (A') (A") (A') (A') (A') (A")
                 (A") (A") (A") (A") (A') (A') (A') (A') (A') (A')
                 (A") (A") (A")
       Virtual   (A") (A') (A") (A') (A') (A') (A') (A') (A") (A')
                 (A') (A') (A') (A') (A')
 Initial guess <Sx>= 0.0000 <Sy>= 0.0000 <Sz>= 0.5000 <S**2>= 0.8282 S= 0.5383
 Keep J ints in memory in canonical form, NReq=866607.
 Overlap will be assumed to be unity.
 Requested convergence on RMS density matrix=1.00D-08 within  32 cycles.
 Requested convergence on MAX density matrix=1.00D-06.
 Requested convergence on             energy=1.00D-06.
 No special actions if energy rises.
 Fock symm off for IB=2 I1=    1 I=   37 J=   26 Cut=1.00D-07 Err=5.80D-04
 Fock matrix is not symmetric: symmetry in diagonalization turned off.
 SCF Done:  E(UAM1) = -0.800600065849E-01 A.U. after   11 cycles
            NFock= 10  Conv=0.53D-08     -V/T= 0.9996
 <Sx>= 0.0000 <Sy>= 0.0000 <Sz>= 0.5000 <S**2>= 0.8268 S= 0.5377
 <L.S>=  0.00000000000    
 Annihilation of the first spin contaminant:
 S**2 before annihilation     0.8268,   after     0.7509
 QCSCF skips out because SCF is already converged.
 Calling FoFJK, ICntrl=      2127 FMM=F ISym2X=1 I1Cent= 0 IOpClX= 1 NMat=1 NMatS=1 NMatT=0.
 ***** Axes restored to original set *****
 -------------------------------------------------------------------
 Center     Atomic                   Forces (Hartrees/Bohr)
 Number     Number              X              Y              Z
 -------------------------------------------------------------------
      1        6          -0.001171550    0.000634192   -0.000000000
      2        6           0.000755844   -0.001007100    0.000000000
      3        6          -0.001256363    0.000082349   -0.000000000
      4        6           0.001171332   -0.000634300   -0.000000000
      5        6          -0.000755665    0.001007267   -0.000000000
      6        6           0.001256280   -0.000082327    0.000000000
      7       17          -0.000192340   -0.000002950    0.000000000
      8       17           0.000672359   -0.000363930    0.000000000
      9       17          -0.000672210    0.000363916    0.000000000
     10       17           0.000102640   -0.000162848    0.000000000
     11       17          -0.000102723    0.000162737    0.000000000
     12       17           0.000192395    0.000002994    0.000000000
 -------------------------------------------------------------------
 Cartesian Forces:  Max     0.001256363 RMS     0.000557958

 GradGradGradGradGradGradGradGradGradGradGradGradGradGradGradGradGradGrad
 Berny optimization.
 Using GEDIIS/GDIIS optimizer.
 FormGI is forming the generalized inverse of G from B-inverse, IUseBI=4.
 Internal  Forces:  Max     0.000764534 RMS     0.000261470
 Search for a local minimum.
 Step number   4 out of a maximum of   64
 All quantities printed in internal units (Hartrees-Bohrs-Radians)
 Mixed Optimization -- En-DIIS/RFO-DIIS
 Update second derivatives using D2CorX and points    1    2    3    4
 DE= -2.59D-04 DEPred=-2.48D-04 R= 1.05D+00
 TightC=F SS=  1.41D+00  RLast= 3.51D-02 DXNew= 8.4853D-01 1.0518D-01
 Trust test= 1.05D+00 RLast= 3.51D-02 DXMaxT set to 5.05D-01
 ITU=  1  1  1  0
 Use linear search instead of GDIIS.
     Eigenvalues ---    0.02011   0.02011   0.02011   0.02011   0.02011
     Eigenvalues ---    0.02011   0.02011   0.02011   0.02011   0.22584
     Eigenvalues ---    0.25000   0.25000   0.25000   0.25000   0.25000
     Eigenvalues ---    0.25000   0.25000   0.26070   0.28389   0.29033
     Eigenvalues ---    0.29033   0.29033   0.29034   0.30171   0.41202
     Eigenvalues ---    0.41222   0.43721   0.44656   0.44657   0.74177
 RFO step:  Lambda=-1.26932217D-05 EMin= 2.01065832D-02
 Quartic linear search produced a step of  0.02196.
 Iteration  1 RMS(Cart)=  0.00079222 RMS(Int)=  0.00000048
 Iteration  2 RMS(Cart)=  0.00000063 RMS(Int)=  0.00000000
 ClnCor:  largest displacement from symmetrization is 5.75D-11 for atom     8.
 Variable       Old X    -DE/DX   Delta X   Delta X   Delta X     New X
                                 (Linear)    (Quad)   (Total)
    R1        2.68150  -0.00023  -0.00014  -0.00021  -0.00035   2.68115
    R2        2.68151  -0.00023  -0.00014  -0.00021  -0.00035   2.68115
    R3        3.21483  -0.00076   0.00024  -0.00308  -0.00284   3.21199
    R4        2.60776  -0.00069  -0.00022  -0.00111  -0.00133   2.60643
    R5        3.23313   0.00017   0.00022   0.00053   0.00076   3.23388
    R6        2.68151  -0.00023  -0.00014  -0.00021  -0.00035   2.68115
    R7        3.23313   0.00017   0.00022   0.00053   0.00076   3.23388
    R8        2.68150  -0.00023  -0.00014  -0.00021  -0.00035   2.68115
    R9        3.21483  -0.00076   0.00024  -0.00308  -0.00284   3.21199
   R10        2.60775  -0.00069  -0.00022  -0.00111  -0.00133   2.60643
   R11        3.23313   0.00017   0.00022   0.00053   0.00076   3.23388
   R12        3.23313   0.00017   0.00022   0.00053   0.00076   3.23388
    A1        2.07540  -0.00048  -0.00007  -0.00222  -0.00228   2.07311
    A2        2.10389   0.00024   0.00003   0.00111   0.00114   2.10504
    A3        2.10389   0.00024   0.00003   0.00111   0.00114   2.10504
    A4        2.10389   0.00024   0.00003   0.00111   0.00114   2.10504
    A5        2.07709  -0.00028   0.00008  -0.00142  -0.00134   2.07575
    A6        2.10220   0.00004  -0.00012   0.00031   0.00020   2.10240
    A7        2.10389   0.00024   0.00003   0.00111   0.00114   2.10504
    A8        2.10220   0.00004  -0.00012   0.00031   0.00020   2.10240
    A9        2.07709  -0.00028   0.00008  -0.00142  -0.00134   2.07575
   A10        2.07540  -0.00048  -0.00007  -0.00222  -0.00228   2.07311
   A11        2.10389   0.00024   0.00003   0.00111   0.00114   2.10504
   A12        2.10389   0.00024   0.00003   0.00111   0.00114   2.10504
   A13        2.10389   0.00024   0.00003   0.00111   0.00114   2.10504
   A14        2.07709  -0.00028   0.00008  -0.00142  -0.00134   2.07575
   A15        2.10220   0.00004  -0.00012   0.00031   0.00020   2.10240
   A16        2.10389   0.00024   0.00003   0.00111   0.00114   2.10504
   A17        2.07709  -0.00028   0.00008  -0.00142  -0.00134   2.07575
   A18        2.10220   0.00004  -0.00012   0.00031   0.00020   2.10240
    D1        0.00000   0.00000   0.00000   0.00000   0.00000   0.00000
    D2        3.14159   0.00000   0.00000   0.00000   0.00000   3.14159
    D3        3.14159  -0.00000   0.00000  -0.00000   0.00000   3.14159
    D4        0.00000  -0.00000   0.00000  -0.00000   0.00000   0.00000
    D5        0.00000  -0.00000   0.00000  -0.00000   0.00000   0.00000
    D6        3.14159  -0.00000   0.00000  -0.00000   0.00000   3.14159
    D7        3.14159   0.00000   0.00000   0.00000   0.00000   3.14159
    D8        0.00000   0.00000   0.00000   0.00000   0.00000   0.00000
    D9        0.00000  -0.00000   0.00000  -0.00000   0.00000   0.00000
   D10        3.14159   0.00000   0.00000   0.00000   0.00000   3.14159
   D11        3.14159  -0.00000   0.00000  -0.00000   0.00000   3.14159
   D12        0.00000  -0.00000   0.00000  -0.00000   0.00000   0.00000
   D13        0.00000  -0.00000   0.00000  -0.00000   0.00000   0.00000
   D14        3.14159   0.00000   0.00000   0.00000   0.00000   3.14159
   D15        3.14159  -0.00000   0.00000  -0.00000   0.00000   3.14159
   D16        0.00000   0.00000   0.00000   0.00000   0.00000   0.00000
   D17        0.00000   0.00000   0.00000   0.00000   0.00000   0.00000
   D18        3.14159   0.00000   0.00000   0.00000   0.00000   3.14159
   D19        3.14159  -0.00000   0.00000  -0.00000   0.00000   3.14159
   D20        0.00000  -0.00000   0.00000  -0.00000   0.00000   0.00000
   D21        0.00000   0.00000   0.00000   0.00000   0.00000   0.00000
   D22        3.14159   0.00000   0.00000   0.00000   0.00000   3.14159
   D23        3.14159  -0.00000   0.00000  -0.00000   0.00000   3.14159
   D24        0.00000   0.00000   0.00000   0.00000   0.00000   0.00000
         Item               Value     Threshold  Converged?
 Maximum Force            0.000765     0.000450     NO 
 RMS     Force            0.000261     0.000300     YES
 Maximum Displacement     0.001954     0.001800     NO 
 RMS     Displacement     0.000793     0.001200     YES
 Predicted change in Energy=-6.466535D-06
 GradGradGradGradGradGradGradGradGradGradGradGradGradGradGradGradGradGrad

                          Input orientation:                          
 ---------------------------------------------------------------------
 Center     Atomic      Atomic             Coordinates (Angstroms)
 Number     Number       Type             X           Y           Z
 ---------------------------------------------------------------------
      1          6           0       -3.214704    0.202367    0.000000
      2          6           0       -1.998092    0.932339    0.000000
      3          6           0       -0.785129    0.275770    0.000000
      4          6           0       -0.731079   -1.142005    0.000000
      5          6           0       -1.947691   -1.871977    0.000000
      6          6           0       -3.160654   -1.215408    0.000000
      7         17           0       -4.625748   -2.099738    0.000000
      8         17           0       -4.709481    1.011480    0.000000
      9         17           0        0.763698   -1.951119    0.000000
     10         17           0       -1.887013   -3.582199    0.000000
     11         17           0       -2.058771    2.642560    0.000000
     12         17           0        0.679965    1.160100    0.000000
 ---------------------------------------------------------------------
                    Distance matrix (angstroms):
                    1          2          3          4          5
     1  C    0.000000
     2  C    1.418804   0.000000
     3  C    2.430684   1.379261   0.000000
     4  C    2.824134   2.430684   1.418805   0.000000
     5  C    2.430684   2.804769   2.442206   1.418804   0.000000
     6  C    1.418805   2.442206   2.804769   2.430684   1.379261
     7  Cl   2.700135   4.012239   4.515904   4.010698   2.687724
     8  Cl   1.699713   2.712544   3.992720   4.523846   3.992720
     9  Cl   4.523846   3.992720   2.712545   1.699713   2.712544
    10  Cl   4.010698   4.515904   4.012240   2.700135   1.711298
    11  Cl   2.700134   1.711298   2.687724   4.010699   4.515904
    12  Cl   4.010698   2.687724   1.711297   2.700135   4.012239
                    6          7          8          9         10
     6  C    0.000000
     7  Cl   1.711297   0.000000
     8  Cl   2.712545   3.112345   0.000000
     9  Cl   3.992720   5.391495   6.223559   0.000000
    10  Cl   2.687724   3.114219   5.391495   3.112345   0.000000
    11  Cl   4.012240   5.392473   3.112345   5.391495   6.227128
    12  Cl   4.515904   6.227128   5.391495   3.112345   5.392473
                   11         12
    11  Cl   0.000000
    12  Cl   3.114219   0.000000
 Stoichiometry    C6Cl6(1-,2)
 Framework group  CS[SG(C6Cl6)]
 Deg. of freedom    21
 Full point group                 CS      NOp   2
 Largest Abelian subgroup         CS      NOp   2
 Largest concise Abelian subgroup C1      NOp   1
                         Standard orientation:                         
 ---------------------------------------------------------------------
 Center     Atomic      Atomic             Coordinates (Angstroms)
 Number     Number       Type             X           Y           Z
 ---------------------------------------------------------------------
      1          6           0       -1.412067   -0.000001    0.000000
      2          6           0       -0.689631   -1.221103    0.000000
      3          6           0        0.689631   -1.221103    0.000000
      4          6           0        1.412067    0.000001    0.000000
      5          6           0        0.689631    1.221103    0.000000
      6          6           0       -0.689631    1.221103    0.000000
      7         17           0       -1.557110    2.696236    0.000000
      8         17           0       -3.111779   -0.000000    0.000000
      9         17           0        3.111779    0.000000    0.000000
     10         17           0        1.557109    2.696237    0.000000
     11         17           0       -1.557109   -2.696237    0.000000
     12         17           0        1.557110   -2.696236    0.000000
 ---------------------------------------------------------------------
 Rotational constants (GHZ):           0.4649121           0.4643220           0.2323084
 Standard basis: VSTO-6G (5D, 7F)
 There are    36 symmetry adapted cartesian basis functions of A'  symmetry.
 There are    12 symmetry adapted cartesian basis functions of A"  symmetry.
 There are    36 symmetry adapted basis functions of A'  symmetry.
 There are    12 symmetry adapted basis functions of A"  symmetry.
    48 basis functions,   288 primitive gaussians,    48 cartesian basis functions
    34 alpha electrons       33 beta electrons
       nuclear repulsion energy       424.1858239777 Hartrees.
 Integral buffers will be    131072 words long.
 Regular integral format.
 Two-electron integral symmetry is turned off.
 Do NDO integrals.
 One-electron integrals computed using PRISM.
 NBasis=    48 RedAO= T EigKep=  1.00D+00  NBF=    36    12
[...]
    D8        0.00000   0.00000   0.00000   0.00000   0.00000   0.00000
    D9        0.00000   0.00000   0.00000   0.00000   0.00000   0.00000
   D10        3.14159   0.00000  -0.00000   0.00000   0.00000   3.14159
   D11        3.14159  -0.00000  -0.00000  -0.00000   0.00000   3.14159
   D12        0.00000  -0.00000   0.00000  -0.00000   0.00000   0.00000
   D13        0.00000  -0.00000   0.00000  -0.00000   0.00000   0.00000
   D14        3.14159   0.00000  -0.00000   0.00000   0.00000   3.14159
   D15        3.14159  -0.00000  -0.00000  -0.00000   0.00000   3.14159
   D16        0.00000   0.00000   0.00000   0.00000   0.00000   0.00000
   D17        0.00000   0.00000   0.00000   0.00000   0.00000   0.00000
   D18        3.14159   0.00000  -0.00000   0.00000   0.00000   3.14159
   D19        3.14159  -0.00000  -0.00000  -0.00000   0.00000   3.14159
   D20        0.00000   0.00000   0.00000   0.00000   0.00000   0.00000
   D21        0.00000  -0.00000   0.00000  -0.00000   0.00000   0.00000
   D22        3.14159   0.00000  -0.00000   0.00000   0.00000   3.14159
   D23        3.14159  -0.00000  -0.00000  -0.00000   0.00000   3.14159
   D24        0.00000  -0.00000   0.00000  -0.00000   0.00000   0.00000
         Item               Value     Threshold  Converged?
 Maximum Force            0.000294     0.000450     YES
 RMS     Force            0.000102     0.000300     YES
 Maximum Displacement     0.001429     0.001800     YES
 RMS     Displacement     0.000478     0.001200     YES
 Predicted change in Energy=-1.092726D-06
 Optimization completed.
    -- Stationary point found.
                           ----------------------------
                           !   Optimized Parameters   !
                           ! (Angstroms and Degrees)  !
 --------------------------                            --------------------------
 ! Name  Definition              Value          Derivative Info.                !
 --------------------------------------------------------------------------------
 ! R1    R(1,2)                  1.4188         -DE/DX =    0.0003              !
 ! R2    R(1,6)                  1.4188         -DE/DX =    0.0003              !
 ! R3    R(1,8)                  1.6997         -DE/DX =    0.0                 !
 ! R4    R(2,3)                  1.3793         -DE/DX =    0.0                 !
 ! R5    R(2,11)                 1.7113         -DE/DX =    0.0001              !
 ! R6    R(3,4)                  1.4188         -DE/DX =    0.0003              !
 ! R7    R(3,12)                 1.7113         -DE/DX =    0.0001              !
 ! R8    R(4,5)                  1.4188         -DE/DX =    0.0003              !
 ! R9    R(4,9)                  1.6997         -DE/DX =    0.0                 !
 ! R10   R(5,6)                  1.3793         -DE/DX =    0.0                 !
 ! R11   R(5,10)                 1.7113         -DE/DX =    0.0001              !
 ! R12   R(6,7)                  1.7113         -DE/DX =    0.0001              !
 ! A1    A(2,1,6)              118.7807         -DE/DX =   -0.0002              !
 ! A2    A(2,1,8)              120.6097         -DE/DX =    0.0001              !
 ! A3    A(6,1,8)              120.6096         -DE/DX =    0.0001              !
 ! A4    A(1,2,3)              120.6097         -DE/DX =    0.0001              !
 ! A5    A(1,2,11)             118.9319         -DE/DX =    0.0                 !
 ! A6    A(3,2,11)             120.4584         -DE/DX =   -0.0001              !
 ! A7    A(2,3,4)              120.6096         -DE/DX =    0.0001              !
 ! A8    A(2,3,12)             120.4585         -DE/DX =   -0.0001              !
 ! A9    A(4,3,12)             118.9319         -DE/DX =    0.0                 !
 ! A10   A(3,4,5)              118.7807         -DE/DX =   -0.0002              !
 ! A11   A(3,4,9)              120.6096         -DE/DX =    0.0001              !
 ! A12   A(5,4,9)              120.6097         -DE/DX =    0.0001              !
 ! A13   A(4,5,6)              120.6097         -DE/DX =    0.0001              !
 ! A14   A(4,5,10)             118.9319         -DE/DX =    0.0                 !
 ! A15   A(6,5,10)             120.4584         -DE/DX =   -0.0001              !
 ! A16   A(1,6,5)              120.6096         -DE/DX =    0.0001              !
 ! A17   A(1,6,7)              118.9319         -DE/DX =    0.0                 !
 ! A18   A(5,6,7)              120.4585         -DE/DX =   -0.0001              !
 ! D1    D(6,1,2,3)              0.0            -DE/DX =    0.0                 !
 ! D2    D(6,1,2,11)           180.0            -DE/DX =    0.0                 !
 ! D3    D(8,1,2,3)            180.0            -DE/DX =    0.0                 !
 ! D4    D(8,1,2,11)             0.0            -DE/DX =    0.0                 !
 ! D5    D(2,1,6,5)              0.0            -DE/DX =    0.0                 !
 ! D6    D(2,1,6,7)            180.0            -DE/DX =    0.0                 !
 ! D7    D(8,1,6,5)            180.0            -DE/DX =    0.0                 !
 ! D8    D(8,1,6,7)              0.0            -DE/DX =    0.0                 !
 ! D9    D(1,2,3,4)              0.0            -DE/DX =    0.0                 !
 ! D10   D(1,2,3,12)           180.0            -DE/DX =    0.0                 !
 ! D11   D(11,2,3,4)           180.0            -DE/DX =    0.0                 !
 ! D12   D(11,2,3,12)            0.0            -DE/DX =    0.0                 !
 ! D13   D(2,3,4,5)              0.0            -DE/DX =    0.0                 !
 ! D14   D(2,3,4,9)            180.0            -DE/DX =    0.0                 !
 ! D15   D(12,3,4,5)           180.0            -DE/DX =    0.0                 !
 ! D16   D(12,3,4,9)             0.0            -DE/DX =    0.0                 !
 ! D17   D(3,4,5,6)              0.0            -DE/DX =    0.0                 !
 ! D18   D(3,4,5,10)           180.0            -DE/DX =    0.0                 !
 ! D19   D(9,4,5,6)            180.0            -DE/DX =    0.0                 !
 ! D20   D(9,4,5,10)             0.0            -DE/DX =    0.0                 !
 ! D21   D(4,5,6,1)              0.0            -DE/DX =    0.0                 !
 ! D22   D(4,5,6,7)            180.0            -DE/DX =    0.0                 !
 ! D23   D(10,5,6,1)           180.0            -DE/DX =    0.0                 !
 ! D24   D(10,5,6,7)             0.0            -DE/DX =    0.0                 !
 --------------------------------------------------------------------------------
 GradGradGradGradGradGradGradGradGradGradGradGradGradGradGradGradGradGrad

                          Input orientation:                          
 ---------------------------------------------------------------------
 Center     Atomic      Atomic             Coordinates (Angstroms)
 Number     Number       Type             X           Y           Z
 ---------------------------------------------------------------------
      1          6           0       -3.214704    0.202367    0.000000
      2          6           0       -1.998092    0.932339    0.000000
      3          6           0       -0.785129    0.275770    0.000000
      4          6           0       -0.731079   -1.142005    0.000000
      5          6           0       -1.947691   -1.871977    0.000000
      6          6           0       -3.160654   -1.215408    0.000000
      7         17           0       -4.625748   -2.099738    0.000000
      8         17           0       -4.709481    1.011480    0.000000
      9         17           0        0.763698   -1.951119    0.000000
     10         17           0       -1.887013   -3.582199    0.000000
     11         17           0       -2.058771    2.642560    0.000000
     12         17           0        0.679965    1.160100    0.000000
 ---------------------------------------------------------------------
                    Distance matrix (angstroms):
                    1          2          3          4          5
     1  C    0.000000
     2  C    1.418804   0.000000
     3  C    2.430684   1.379261   0.000000
     4  C    2.824134   2.430684   1.418805   0.000000
     5  C    2.430684   2.804769   2.442206   1.418804   0.000000
     6  C    1.418805   2.442206   2.804769   2.430684   1.379261
     7  Cl   2.700135   4.012239   4.515904   4.010698   2.687724
     8  Cl   1.699713   2.712544   3.992720   4.523846   3.992720
     9  Cl   4.523846   3.992720   2.712545   1.699713   2.712544
    10  Cl   4.010698   4.515904   4.012240   2.700135   1.711298
    11  Cl   2.700134   1.711298   2.687724   4.010699   4.515904
    12  Cl   4.010698   2.687724   1.711297   2.700135   4.012239
                    6          7          8          9         10
     6  C    0.000000
     7  Cl   1.711297   0.000000
     8  Cl   2.712545   3.112345   0.000000
     9  Cl   3.992720   5.391495   6.223559   0.000000
    10  Cl   2.687724   3.114219   5.391495   3.112345   0.000000
    11  Cl   4.012240   5.392473   3.112345   5.391495   6.227128
    12  Cl   4.515904   6.227128   5.391495   3.112345   5.392473
                   11         12
    11  Cl   0.000000
    12  Cl   3.114219   0.000000
 Stoichiometry    C6Cl6(1-,2)
 Framework group  CS[SG(C6Cl6)]
 Deg. of freedom    21
 Full point group                 CS      NOp   2
 Largest Abelian subgroup         CS      NOp   2
 Largest concise Abelian subgroup C1      NOp   1
                         Standard orientation:                         
 ---------------------------------------------------------------------
 Center     Atomic      Atomic             Coordinates (Angstroms)
 Number     Number       Type             X           Y           Z
 ---------------------------------------------------------------------
      1          6           0       -1.412067   -0.000001    0.000000
      2          6           0       -0.689631   -1.221103    0.000000
      3          6           0        0.689631   -1.221103    0.000000
      4          6           0        1.412067    0.000001    0.000000
      5          6           0        0.689631    1.221103    0.000000
      6          6           0       -0.689631    1.221103    0.000000
      7         17           0       -1.557110    2.696236    0.000000
      8         17           0       -3.111779   -0.000000    0.000000
      9         17           0        3.111779    0.000000    0.000000
     10         17           0        1.557109    2.696237    0.000000
     11         17           0       -1.557109   -2.696237    0.000000
     12         17           0        1.557110   -2.696236    0.000000
 ---------------------------------------------------------------------
 Rotational constants (GHZ):           0.4649121           0.4643220           0.2323084

 **********************************************************************

            Population analysis using the SCF Density.

 **********************************************************************

 Orbital symmetries:
 Alpha Orbitals:
       Occupied  (A') (A') (A') (A') (A') (A') (A') (A') (A') (A')
                 (A') (A') (A') (A') (A') (A") (A') (A') (A') (A")
                 (A") (A") (A") (A") (A') (A') (A') (A') (A') (A')
                 (A") (A") (A") (A")
       Virtual   (A") (A') (A') (A') (A') (A") (A') (A') (A') (A')
                 (A') (A') (A') (A')
 Beta  Orbitals:
       Occupied  (A') (A') (A') (A') (A') (A') (A') (A') (A') (A')
                 (A') (A') (A') (A') (A') (A") (A') (A') (A') (A")
                 (A") (A") (A") (A") (A') (A') (A') (A') (A') (A')
                 (A") (A") (A")
       Virtual   (A") (A') (A") (A') (A') (A') (A') (A') (A") (A')
                 (A') (A') (A') (A') (A')
 The electronic state is 2-A".
 Alpha  occ. eigenvalues --   -1.31202  -1.25723  -1.25011  -1.23781  -1.23167
 Alpha  occ. eigenvalues --   -1.22711  -1.19155  -0.99257  -0.97249  -0.74166
 Alpha  occ. eigenvalues --   -0.72121  -0.54897  -0.50523  -0.50382  -0.43481
 Alpha  occ. eigenvalues --   -0.43193  -0.42485  -0.37647  -0.37273  -0.37140
 Alpha  occ. eigenvalues --   -0.36643  -0.33043  -0.32941  -0.32095  -0.30844
 Alpha  occ. eigenvalues --   -0.30368  -0.30004  -0.29741  -0.29077  -0.28245
 Alpha  occ. eigenvalues --   -0.26680  -0.21002  -0.20757  -0.09602
 Alpha virt. eigenvalues --    0.15919   0.17045   0.18125   0.18891   0.20047
 Alpha virt. eigenvalues --    0.20138   0.21055   0.21447   0.30329   0.31221
 Alpha virt. eigenvalues --    0.31736   0.31745   0.33333   0.34236
  Beta  occ. eigenvalues --   -1.30588  -1.25732  -1.24871  -1.23804  -1.23111
  Beta  occ. eigenvalues --   -1.22705  -1.18899  -0.99160  -0.95572  -0.72571
  Beta  occ. eigenvalues --   -0.72133  -0.54693  -0.50184  -0.50014  -0.43492
  Beta  occ. eigenvalues --   -0.42206  -0.42167  -0.37586  -0.37140  -0.36934
  Beta  occ. eigenvalues --   -0.35588  -0.33081  -0.32249  -0.31822  -0.30671
  Beta  occ. eigenvalues --   -0.30362  -0.29955  -0.29717  -0.29086  -0.28268
  Beta  occ. eigenvalues --   -0.25849  -0.19832  -0.15965
  Beta virt. eigenvalues --    0.14630   0.17198   0.17987   0.18609   0.18847
  Beta virt. eigenvalues --    0.21131   0.21138   0.22942   0.24925   0.31202
  Beta virt. eigenvalues --    0.32140   0.32169   0.32770   0.33927   0.35076
          Condensed to atoms (all electrons):
               1          2          3          4          5          6
     1  C    4.232033   0.000000   0.000000   0.000000   0.000000   0.000000
     2  C    0.000000   4.041839   0.000000   0.000000   0.000000   0.000000
     3  C    0.000000   0.000000   4.041851   0.000000   0.000000   0.000000
     4  C    0.000000   0.000000   0.000000   4.232034   0.000000   0.000000
     5  C    0.000000   0.000000   0.000000   0.000000   4.041839   0.000000
     6  C    0.000000   0.000000   0.000000   0.000000   0.000000   4.041851
     7  Cl   0.000000   0.000000   0.000000   0.000000   0.000000   0.000000
     8  Cl   0.000000   0.000000   0.000000   0.000000   0.000000   0.000000
     9  Cl   0.000000   0.000000   0.000000   0.000000   0.000000   0.000000
    10  Cl   0.000000   0.000000   0.000000   0.000000   0.000000   0.000000
    11  Cl   0.000000   0.000000   0.000000   0.000000   0.000000   0.000000
    12  Cl   0.000000   0.000000   0.000000   0.000000   0.000000   0.000000
               7          8          9         10         11         12
     1  C    0.000000   0.000000   0.000000   0.000000   0.000000   0.000000
     2  C    0.000000   0.000000   0.000000   0.000000   0.000000   0.000000
     3  C    0.000000   0.000000   0.000000   0.000000   0.000000   0.000000
     4  C    0.000000   0.000000   0.000000   0.000000   0.000000   0.000000
     5  C    0.000000   0.000000   0.000000   0.000000   0.000000   0.000000
     6  C    0.000000   0.000000   0.000000   0.000000   0.000000   0.000000
     7  Cl   7.063245   0.000000   0.000000   0.000000   0.000000   0.000000
     8  Cl   0.000000   7.057785   0.000000   0.000000   0.000000   0.000000
     9  Cl   0.000000   0.000000   7.057785   0.000000   0.000000   0.000000
    10  Cl   0.000000   0.000000   0.000000   7.063245   0.000000   0.000000
    11  Cl   0.000000   0.000000   0.000000   0.000000   7.063245   0.000000
    12  Cl   0.000000   0.000000   0.000000   0.000000   0.000000   7.063245
          Atomic-Atomic Spin Densities.
               1          2          3          4          5          6
     1  C    0.558890   0.000000   0.000000   0.000000   0.000000   0.000000
     2  C    0.000000  -0.022323   0.000000   0.000000   0.000000   0.000000
     3  C    0.000000   0.000000  -0.022288   0.000000   0.000000   0.000000
     4  C    0.000000   0.000000   0.000000   0.558890   0.000000   0.000000
     5  C    0.000000   0.000000   0.000000   0.000000  -0.022322   0.000000
     6  C    0.000000   0.000000   0.000000   0.000000   0.000000  -0.022288
     7  Cl   0.000000   0.000000   0.000000   0.000000   0.000000   0.000000
     8  Cl   0.000000   0.000000   0.000000   0.000000   0.000000   0.000000
     9  Cl   0.000000   0.000000   0.000000   0.000000   0.000000   0.000000
    10  Cl   0.000000   0.000000   0.000000   0.000000   0.000000   0.000000
    11  Cl   0.000000   0.000000   0.000000   0.000000   0.000000   0.000000
    12  Cl   0.000000   0.000000   0.000000   0.000000   0.000000   0.000000
               7          8          9         10         11         12
     1  C    0.000000   0.000000   0.000000   0.000000   0.000000   0.000000
     2  C    0.000000   0.000000   0.000000   0.000000   0.000000   0.000000
     3  C    0.000000   0.000000   0.000000   0.000000   0.000000   0.000000
     4  C    0.000000   0.000000   0.000000   0.000000   0.000000   0.000000
     5  C    0.000000   0.000000   0.000000   0.000000   0.000000   0.000000
     6  C    0.000000   0.000000   0.000000   0.000000   0.000000   0.000000
     7  Cl  -0.002668   0.000000   0.000000   0.000000   0.000000   0.000000
     8  Cl   0.000000  -0.008943   0.000000   0.000000   0.000000   0.000000
     9  Cl   0.000000   0.000000  -0.008943   0.000000   0.000000   0.000000
    10  Cl   0.000000   0.000000   0.000000  -0.002668   0.000000   0.000000
    11  Cl   0.000000   0.000000   0.000000   0.000000  -0.002668   0.000000
    12  Cl   0.000000   0.000000   0.000000   0.000000   0.000000  -0.002668
 Mulliken charges and spin densities:
               1          2
     1  C   -0.232033   0.558890
     2  C   -0.041839  -0.022323
     3  C   -0.041851  -0.022288
     4  C   -0.232034   0.558890
     5  C   -0.041839  -0.022322
     6  C   -0.041851  -0.022288
     7  Cl  -0.063245  -0.002668
     8  Cl  -0.057785  -0.008943
     9  Cl  -0.057785  -0.008943
    10  Cl  -0.063245  -0.002668
    11  Cl  -0.063245  -0.002668
    12  Cl  -0.063245  -0.002668
 Sum of Mulliken charges =  -1.00000   1.00000
 Mulliken charges and spin densities with hydrogens summed into heavy atoms:
               1          2
     1  C   -0.232033   0.558890
     2  C   -0.041839  -0.022323
     3  C   -0.041851  -0.022288
     4  C   -0.232034   0.558890
     5  C   -0.041839  -0.022322
     6  C   -0.041851  -0.022288
     7  Cl  -0.063245  -0.002668
     8  Cl  -0.057785  -0.008943
     9  Cl  -0.057785  -0.008943
    10  Cl  -0.063245  -0.002668
    11  Cl  -0.063245  -0.002668
    12  Cl  -0.063245  -0.002668
 Charge=             -1.0000 electrons
 Dipole moment (field-independent basis, Debye):
    X=             -0.0000    Y=              0.0000    Z=              0.0000  Tot=              0.0000
 N-N= 4.241858239777D+02 E-N=-6.285962091980D+02  KE=-1.801594618848D+02
 Symmetry A'   KE=-1.358905554941D+02
 Symmetry A"   KE=-4.426890639069D+01
 Symmetry A'   SP= 3.774758283726D-15
 Symmetry A"   SP= 1.000000000000D+00
 1\1\GINC-SH02-02N41\FOpt\UAM1\ZDO\C6Cl6(1-,2)\JLAPIER\09-Dec-2025\0\\#
  opt am1 SCF=XQC\\6-Chloro-Benzene Anion Radical (123456)\\-1,2\C,-3.2
 147042248,0.2023670066,0.\C,-1.9980920296,0.9323387701,0.\C,-0.7851291
 483,0.2757700128,0.\C,-0.7310790046,-1.1420053155,0.\C,-1.9476913431,-
 1.8719771458,0.\C,-3.1606541226,-1.215408315,0.\Cl,-4.6257478324,-2.09
 97378812,0.\Cl,-4.7094813102,1.011480154,0.\Cl,0.763698129,-1.95111853
 45,0.\Cl,-1.8870128,-3.5821987006,0.\Cl,-2.0587708849,2.6425603415,0.\
 Cl,0.6799645664,1.1600995985,0.\\Version=ES64L-G16RevB.01\State=2-A"\H
 F=-0.0800675\S2=0.826851\S2-1=0.\S2A=0.75085\RMSD=9.052e-09\RMSF=1.851
 e-04\Dipole=-0.0000009,0.0000001,0.\PG=CS [SG(C6Cl6)]\\@


 TO SEE A WORLD IN A GRAIN OF SAND
 AND A HEAVEN IN A WILD FLOWER
 HOLD INFINITY IN THE PALM OF YOUR HAND
 AND ETERNITY IN AN HOUR

                       -- WILLIAM BLAKE
 Job cpu time:       0 days  0 hours  0 minutes  5.0 seconds.
 Elapsed time:       0 days  0 hours  0 minutes 10.9 seconds.
 File lengths (MBytes):  RWF=     15 Int=      0 D2E=      0 Chk=      2 Scr=      1
 Normal termination of Gaussian 16 at Tue Dec  9 08:34:52 2025.
