 Entering Gaussian System, Link 0=g16
 Initial command:
 /share/software/user/restricted/gaussian/g16.B01/l1.exe "/home/users/jlapier/Chloroaromatics/Gau-8170.inp" -scrdir="/home/users/jlapier/Chloroaromatics/"
 Entering Link 1 = /share/software/user/restricted/gaussian/g16.B01/l1.exe PID=      8172.
  
 Copyright (c) 1988-2017, Gaussian, Inc.  All Rights Reserved.
  
 This is part of the Gaussian(R) 16 program.  It is based on
 the Gaussian(R) 09 system (copyright 2009, Gaussian, Inc.),
 the Gaussian(R) 03 system (copyright 2003, Gaussian, Inc.),
 the Gaussian(R) 98 system (copyright 1998, Gaussian, Inc.),
 the Gaussian(R) 94 system (copyright 1995, Gaussian, Inc.),
 the Gaussian 92(TM) system (copyright 1992, Gaussian, Inc.),
 the Gaussian 90(TM) system (copyright 1990, Gaussian, Inc.),
 the Gaussian 88(TM) system (copyright 1988, Gaussian, Inc.),
 the Gaussian 86(TM) system (copyright 1986, Carnegie Mellon
 University), and the Gaussian 82(TM) system (copyright 1983,
 Carnegie Mellon University). Gaussian is a federally registered
 trademark of Gaussian, Inc.
  
 This software contains proprietary and confidential information,
 including trade secrets, belonging to Gaussian, Inc.
  
 This software is provided under written license and may be
 used, copied, transmitted, or stored only in accord with that
 written license.
  
 The following legend is applicable only to US Government
 contracts under FAR:
  
                    RESTRICTED RIGHTS LEGEND
  
 Use, reproduction and disclosure by the US Government is
 subject to restrictions as set forth in subparagraphs (a)
 and (c) of the Commercial Computer Software - Restricted
 Rights clause in FAR 52.227-19.
  
 Gaussian, Inc.
 340 Quinnipiac St., Bldg. 40, Wallingford CT 06492
  
  
 ---------------------------------------------------------------
 Warning -- This program may not be used in any manner that
 competes with the business of Gaussian, Inc. or will provide
 assistance to any competitor of Gaussian, Inc.  The licensee
 of this program is prohibited from giving any competitor of
 Gaussian, Inc. access to this program.  By using this program,
 the user acknowledges that Gaussian, Inc. is engaged in the
 business of creating and licensing software in the field of
 computational chemistry and represents and warrants to the
 licensee that it is not a competitor of Gaussian, Inc. and that
 it will not use this program in any manner prohibited above.
 ---------------------------------------------------------------
  

 Cite this work as:
 Gaussian 16, Revision B.01,
 M. J. Frisch, G. W. Trucks, H. B. Schlegel, G. E. Scuseria, 
 M. A. Robb, J. R. Cheeseman, G. Scalmani, V. Barone, 
 G. A. Petersson, H. Nakatsuji, X. Li, M. Caricato, A. V. Marenich, 
 J. Bloino, B. G. Janesko, R. Gomperts, B. Mennucci, H. P. Hratchian, 
 J. V. Ortiz, A. F. Izmaylov, J. L. Sonnenberg, D. Williams-Young, 
 F. Ding, F. Lipparini, F. Egidi, J. Goings, B. Peng, A. Petrone, 
 T. Henderson, D. Ranasinghe, V. G. Zakrzewski, J. Gao, N. Rega, 
 G. Zheng, W. Liang, M. Hada, M. Ehara, K. Toyota, R. Fukuda, 
 J. Hasegawa, M. Ishida, T. Nakajima, Y. Honda, O. Kitao, H. Nakai, 
 T. Vreven, K. Throssell, J. A. Montgomery, Jr., J. E. Peralta, 
 F. Ogliaro, M. J. Bearpark, J. J. Heyd, E. N. Brothers, K. N. Kudin, 
 V. N. Staroverov, T. A. Keith, R. Kobayashi, J. Normand, 
 K. Raghavachari, A. P. Rendell, J. C. Burant, S. S. Iyengar, 
 J. Tomasi, M. Cossi, J. M. Millam, M. Klene, C. Adamo, R. Cammi, 
 J. W. Ochterski, R. L. Martin, K. Morokuma, O. Farkas, 
 J. B. Foresman, and D. J. Fox, Gaussian, Inc., Wallingford CT, 2016.
 
 ******************************************
 Gaussian 16:  ES64L-G16RevB.01 20-Dec-2017
                10-Dec-2025 
 ******************************************
 %mem=2GB
 %nprocshare=1
 Will use up to    1 processors via shared memory.
 %chk=geometry_chks/1234-_234-ClBzNeutralRadical.chk
 -----------------
 # opt am1 SCF=XQC
 -----------------
 1/18=20,19=15,26=1,38=1/1,3;
 2/9=110,12=2,17=6,18=5,40=1/2;
 3/5=2,25=1,41=700000,71=1/1,2,3;
 4/35=1/1;
 5/5=2,8=3,13=1,35=1,38=5/2,8;
 6/7=2,8=2,9=2,10=2,28=1/1;
 7//1,2,3,16;
 1/18=20,19=15,26=1/3(2);
 2/9=110/2;
 99//99;
 2/9=110/2;
 3/5=2,25=1,41=700000,71=1,135=20/1,2,3;
 4/5=5,16=3,35=1/1;
 5/5=2,8=3,13=1,35=1,38=5/2,8;
 7//1,2,3,16;
 1/18=20,19=15,26=1/3(-5);
 2/9=110/2;
 6/7=2,8=2,9=2,10=2,19=2,28=1/1;
 99/9=1/99;
 --------------------------------
 Neutral Radical (removed 1) _234
 --------------------------------
 Symbolic Z-matrix:
 Charge =  0 Multiplicity = 2
 C                    -3.20928   0.19943   0. 
 C                    -2.0115    0.93555   0. 
 C                    -0.77511   0.2663    0. 
 C                    -0.7365   -1.13907   0. 
 C                    -1.93429  -1.87519   0. 
 C                    -3.17067  -1.20594   0. 
 Cl                   -4.76193   1.03987   0. 
 Cl                   -2.05998   2.7004    0. 
 Cl                    0.72905   1.19071   0. 
 H                     0.81614  -1.97951   0. 
 H                    -1.8858   -3.64003   0. 
 
 Add virtual bond connecting atoms H11        and C5         Dist= 3.34D+00.
 Add virtual bond connecting atoms H10        and C4         Dist= 3.34D+00.

 GradGradGradGradGradGradGradGradGradGradGradGradGradGradGradGradGradGrad
 Berny optimization.
 Initialization pass.
                           ----------------------------
                           !    Initial Parameters    !
                           ! (Angstroms and Degrees)  !
 --------------------------                            --------------------------
 ! Name  Definition              Value          Derivative Info.                !
 --------------------------------------------------------------------------------
 ! R1    R(1,2)                  1.4059         estimate D2E/DX2                !
 ! R2    R(1,6)                  1.4059         estimate D2E/DX2                !
 ! R3    R(1,7)                  1.7655         estimate D2E/DX2                !
 ! R4    R(2,3)                  1.4059         estimate D2E/DX2                !
 ! R5    R(2,8)                  1.7655         estimate D2E/DX2                !
 ! R6    R(3,4)                  1.4059         estimate D2E/DX2                !
 ! R7    R(3,9)                  1.7655         estimate D2E/DX2                !
 ! R8    R(4,5)                  1.4059         estimate D2E/DX2                !
 ! R9    R(4,10)                 1.7655         estimate D2E/DX2                !
 ! R10   R(5,6)                  1.4059         estimate D2E/DX2                !
 ! R11   R(5,11)                 1.7655         estimate D2E/DX2                !
 ! A1    A(2,1,6)              119.9999         estimate D2E/DX2                !
 ! A2    A(2,1,7)              119.9999         estimate D2E/DX2                !
 ! A3    A(6,1,7)              120.0001         estimate D2E/DX2                !
 ! A4    A(1,2,3)              120.0            estimate D2E/DX2                !
 ! A5    A(1,2,8)              120.0001         estimate D2E/DX2                !
 ! A6    A(3,2,8)              119.9999         estimate D2E/DX2                !
 ! A7    A(2,3,4)              120.0001         estimate D2E/DX2                !
 ! A8    A(2,3,9)              120.0            estimate D2E/DX2                !
 ! A9    A(4,3,9)              119.9999         estimate D2E/DX2                !
 ! A10   A(3,4,5)              119.9997         estimate D2E/DX2                !
 ! A11   A(3,4,10)             120.0003         estimate D2E/DX2                !
 ! A12   A(5,4,10)             120.0            estimate D2E/DX2                !
 ! A13   A(4,5,6)              120.0            estimate D2E/DX2                !
 ! A14   A(4,5,11)             119.9996         estimate D2E/DX2                !
 ! A15   A(6,5,11)             120.0004         estimate D2E/DX2                !
 ! A16   A(1,6,5)              120.0003         estimate D2E/DX2                !
 ! D1    D(6,1,2,3)              0.0            estimate D2E/DX2                !
 ! D2    D(6,1,2,8)            180.0            estimate D2E/DX2                !
 ! D3    D(7,1,2,3)            180.0            estimate D2E/DX2                !
 ! D4    D(7,1,2,8)              0.0            estimate D2E/DX2                !
 ! D5    D(2,1,6,5)              0.0            estimate D2E/DX2                !
 ! D6    D(7,1,6,5)            180.0            estimate D2E/DX2                !
 ! D7    D(1,2,3,4)              0.0            estimate D2E/DX2                !
 ! D8    D(1,2,3,9)            180.0            estimate D2E/DX2                !
 ! D9    D(8,2,3,4)            180.0            estimate D2E/DX2                !
 ! D10   D(8,2,3,9)              0.0            estimate D2E/DX2                !
 ! D11   D(2,3,4,5)              0.0            estimate D2E/DX2                !
 ! D12   D(2,3,4,10)           180.0            estimate D2E/DX2                !
 ! D13   D(9,3,4,5)            180.0            estimate D2E/DX2                !
 ! D14   D(9,3,4,10)             0.0            estimate D2E/DX2                !
 ! D15   D(3,4,5,6)              0.0            estimate D2E/DX2                !
 ! D16   D(3,4,5,11)           180.0            estimate D2E/DX2                !
 ! D17   D(10,4,5,6)           180.0            estimate D2E/DX2                !
 ! D18   D(10,4,5,11)            0.0            estimate D2E/DX2                !
 ! D19   D(4,5,6,1)              0.0            estimate D2E/DX2                !
 ! D20   D(11,5,6,1)           180.0            estimate D2E/DX2                !
 --------------------------------------------------------------------------------
 Trust Radius=3.00D-01 FncErr=1.00D-07 GrdErr=1.00D-07 EigMax=2.50D+02 EigMin=1.00D-04
 Number of steps in this run=     57 maximum allowed number of steps=    100.
 GradGradGradGradGradGradGradGradGradGradGradGradGradGradGradGradGradGrad

                          Input orientation:                          
 ---------------------------------------------------------------------
 Center     Atomic      Atomic             Coordinates (Angstroms)
 Number     Number       Type             X           Y           Z
 ---------------------------------------------------------------------
      1          6           0       -3.209280    0.199430    0.000000
      2          6           0       -2.011500    0.935550    0.000000
      3          6           0       -0.775110    0.266300    0.000000
      4          6           0       -0.736500   -1.139070    0.000000
      5          6           0       -1.934290   -1.875190    0.000000
      6          6           0       -3.170670   -1.205940    0.000000
      7         17           0       -4.761930    1.039870    0.000000
      8         17           0       -2.059980    2.700400    0.000000
      9         17           0        0.729050    1.190710    0.000000
     10          1           0        0.816140   -1.979510    0.000000
     11          1           0       -1.885800   -3.640030    0.000000
 ---------------------------------------------------------------------
                    Distance matrix (angstroms):
                    1          2          3          4          5
     1  C    0.000000
     2  C    1.405898   0.000000
     3  C    2.435088   1.405900   0.000000
     4  C    2.811801   2.435092   1.405900   0.000000
     5  C    2.435087   2.811800   2.435093   1.405907   0.000000
     6  C    1.405900   2.435088   2.811796   2.435088   1.405892
     7  Cl   1.765520   2.752408   4.061175   4.577321   4.061173
     8  Cl   2.752406   1.765516   2.752405   4.061173   4.577316
     9  Cl   4.061167   2.752403   1.765512   2.752401   4.061173
    10  H    4.577312   4.061173   2.752406   1.765511   2.752408
    11  H    4.061164   4.577306   4.061163   2.752397   1.765506
                    6          7          8          9         10
     6  C    0.000000
     7  Cl   2.752412   0.000000
     8  Cl   4.061173   3.171418   0.000000
     9  Cl   4.577308   5.493051   3.171412   0.000000
    10  H    4.061165   6.342832   5.493052   3.171416   0.000000
    11  H    2.752396   5.493049   6.342822   5.493040   3.171404
                   11
    11  H    0.000000
 Stoichiometry    C6H2Cl3(2)
 Framework group  CS[SG(C6H2Cl3)]
 Deg. of freedom    19
 Full point group                 CS      NOp   2
 Largest Abelian subgroup         CS      NOp   2
 Largest concise Abelian subgroup C1      NOp   1
                         Standard orientation:                         
 ---------------------------------------------------------------------
 Center     Atomic      Atomic             Coordinates (Angstroms)
 Number     Number       Type             X           Y           Z
 ---------------------------------------------------------------------
      1          6           0       -1.018374    0.853573    0.000000
      2          6           0        0.199170    0.150625    0.000000
      3          6           0        0.199170   -1.255276    0.000000
      4          6           0       -1.018374   -1.958228    0.000000
      5          6           0       -2.235923   -1.255271    0.000000
      6          6           0       -2.235918    0.150621    0.000000
      7         17           0       -1.018374    2.619093    0.000000
      8         17           0        1.728153    1.033380    0.000000
      9         17           0        1.728148   -2.138032    0.000000
     10          1           0       -1.018379   -3.723739    0.000000
     11          1           0       -3.764892   -2.138030    0.000000
 ---------------------------------------------------------------------
 Rotational constants (GHZ):           1.4523880           0.8332491           0.5294808
 Standard basis: VSTO-6G (5D, 7F)
 There are    29 symmetry adapted cartesian basis functions of A'  symmetry.
 There are     9 symmetry adapted cartesian basis functions of A"  symmetry.
 There are    29 symmetry adapted basis functions of A'  symmetry.
 There are     9 symmetry adapted basis functions of A"  symmetry.
    38 basis functions,   228 primitive gaussians,    38 cartesian basis functions
    24 alpha electrons       23 beta electrons
       nuclear repulsion energy       242.1155805119 Hartrees.
 Integral buffers will be    131072 words long.
 Regular integral format.
 Two-electron integral symmetry is turned off.
 Do NDO integrals.
 One-electron integrals computed using PRISM.
 NBasis=    38 RedAO= T EigKep=  1.00D+00  NBF=    29     9
 NBsUse=    38 1.00D-06 EigRej= -1.00D+00 NBFU=    29     9
 Simple Huckel Guess.
 Initial guess orbital symmetries:
 Alpha Orbitals:
       Occupied  (A') (A') (A') (A') (A') (A') (A') (A') (A') (A")
                 (A') (A') (A') (A') (A") (A") (A') (A") (A') (A')
                 (A') (A") (A") (A')
       Virtual   (A') (A") (A") (A') (A") (A') (A') (A') (A') (A')
                 (A') (A') (A') (A')
 Beta  Orbitals:
       Occupied  (A') (A') (A') (A') (A') (A') (A') (A') (A') (A")
                 (A') (A') (A') (A') (A") (A") (A') (A") (A') (A')
                 (A') (A") (A")
       Virtual   (A') (A') (A") (A") (A') (A") (A') (A') (A') (A')
                 (A') (A') (A') (A') (A')
 The electronic state of the initial guess is 2-A'.
 Initial guess <Sx>= 0.0000 <Sy>= 0.0000 <Sz>= 0.5000 <S**2>= 0.7500 S= 0.5000
 Keep J ints in memory in canonical form, NReq=863588.
 Overlap will be assumed to be unity.
 Requested convergence on RMS density matrix=1.00D-08 within  32 cycles.
 Requested convergence on MAX density matrix=1.00D-06.
 Requested convergence on             energy=1.00D-06.
 No special actions if energy rises.
 Fock symm off for IB=2 I1=    1 I=   30 J=   22 Cut=1.00D-07 Err=1.95D-03
 Fock matrix is not symmetric: symmetry in diagonalization turned off.
 Rare condition: small coef for last iteration:  0.000D+00
 Rare condition: small coef for last iteration:  0.000D+00
 Rare condition: small coef for last iteration:  0.000D+00
 Rare condition: small coef for last iteration:  0.000D+00
 Rare condition: small coef for last iteration:  0.000D+00
 Rare condition: small coef for last iteration:  0.000D+00
 Rare condition: small coef for last iteration:  0.000D+00
 Rare condition: small coef for last iteration:  0.000D+00
 Rare condition: small coef for last iteration:  0.000D+00
 Rare condition: small coef for last iteration:  0.000D+00
 Rare condition: small coef for last iteration:  0.000D+00
 Rare condition: small coef for last iteration:  0.000D+00
 Rare condition: small coef for last iteration:  0.000D+00
 Rare condition: small coef for last iteration:  0.000D+00
 Rare condition: small coef for last iteration:  0.000D+00
 Rare condition: small coef for last iteration:  0.000D+00
 >>>>>>>>>> Convergence criterion not met.
 SCF Done:  E(UAM1) =  0.354711930092     A.U. after   33 cycles
            NFock= 32  Conv=0.29D-04     -V/T= 1.0032
 <Sx>= 0.0000 <Sy>= 0.0000 <Sz>= 0.5000 <S**2>= 1.2454 S= 0.7229
 <L.S>=  0.00000000000    
 Annihilation of the first spin contaminant:
 S**2 before annihilation     1.2454,   after     0.9953
 Keep J ints in memory in canonical form, NReq=863988.
 LinEq1:  Iter=  0 NonCon=     1 RMS=1.38D-04 Max=1.27D-03 NDo=     1
 AX will form     1 AO Fock derivatives at one time.
 LinEq1:  Iter=  1 NonCon=     1 RMS=2.93D-05 Max=1.85D-04 NDo=     1
 LinEq1:  Iter=  2 NonCon=     1 RMS=8.36D-06 Max=1.15D-04 NDo=     1
 LinEq1:  Iter=  3 NonCon=     1 RMS=2.43D-06 Max=2.66D-05 NDo=     1
 LinEq1:  Iter=  4 NonCon=     1 RMS=6.71D-07 Max=9.72D-06 NDo=     1
 LinEq1:  Iter=  5 NonCon=     1 RMS=1.85D-07 Max=1.83D-06 NDo=     1
 LinEq1:  Iter=  6 NonCon=     1 RMS=3.42D-08 Max=2.49D-07 NDo=     1
 LinEq1:  Iter=  7 NonCon=     1 RMS=6.93D-09 Max=5.90D-08 NDo=     1
 LinEq1:  Iter=  8 NonCon=     0 RMS=1.92D-09 Max=1.53D-08 NDo=     1
 Linear equations converged to 2.610D-09 2.610D-08 after     8 iterations.
     Accept linear search using points  4 and  5.
 Gradient too large for Newton-Raphson -- use scaled steepest descent instead.
 Gradient too large for Newton-Raphson -- use scaled steepest descent instead.
     Minimum is close to point  3 DX=  1.56D-01 DF= -2.83D-06 DXR=  7.99D-02 DFR=  6.43D-03 which will be used.
 LinEq1:  Iter=  0 NonCon=     1 RMS=6.83D-04 Max=6.64D-03 NDo=     1
 LinEq1:  Iter=  1 NonCon=     1 RMS=3.17D-04 Max=2.36D-03 NDo=     1
 LinEq1:  Iter=  2 NonCon=     1 RMS=3.01D-05 Max=3.30D-04 NDo=     1
 LinEq1:  Iter=  3 NonCon=     1 RMS=1.02D-05 Max=1.16D-04 NDo=     1
 LinEq1:  Iter=  4 NonCon=     1 RMS=1.90D-06 Max=1.66D-05 NDo=     1
 LinEq1:  Iter=  5 NonCon=     1 RMS=3.84D-07 Max=3.80D-06 NDo=     1
 LinEq1:  Iter=  6 NonCon=     1 RMS=9.77D-08 Max=9.45D-07 NDo=     1
 LinEq1:  Iter=  7 NonCon=     1 RMS=2.19D-08 Max=1.66D-07 NDo=     1
 LinEq1:  Iter=  8 NonCon=     1 RMS=6.96D-09 Max=4.38D-08 NDo=     1
 LinEq1:  Iter=  9 NonCon=     0 RMS=1.48D-09 Max=1.07D-08 NDo=     1
 Linear equations converged to 2.610D-09 2.610D-08 after     9 iterations.
 Incorrect curvature in search direction -- initial direction reversed.
     Minimum is close to point  6 DX= -3.60D-03 DF= -1.91D-05 DXR=  5.49D-02 DFR=  5.80D-03 which will be used.
 LinEq1:  Iter=  0 NonCon=     1 RMS=7.12D-04 Max=7.66D-03 NDo=     1
 LinEq1:  Iter=  1 NonCon=     1 RMS=2.87D-04 Max=2.78D-03 NDo=     1
 LinEq1:  Iter=  2 NonCon=     1 RMS=6.80D-05 Max=7.62D-04 NDo=     1
 LinEq1:  Iter=  3 NonCon=     1 RMS=1.57D-05 Max=1.32D-04 NDo=     1
 LinEq1:  Iter=  4 NonCon=     1 RMS=3.74D-06 Max=2.29D-05 NDo=     1
 LinEq1:  Iter=  5 NonCon=     1 RMS=5.24D-07 Max=3.51D-06 NDo=     1
 LinEq1:  Iter=  6 NonCon=     1 RMS=1.03D-07 Max=8.24D-07 NDo=     1
 LinEq1:  Iter=  7 NonCon=     1 RMS=2.35D-08 Max=1.90D-07 NDo=     1
 LinEq1:  Iter=  8 NonCon=     1 RMS=5.49D-09 Max=5.41D-08 NDo=     1
 LinEq1:  Iter=  9 NonCon=     0 RMS=1.18D-09 Max=9.12D-09 NDo=     1
 Linear equations converged to 2.610D-09 2.610D-08 after     9 iterations.
 LinEq1:  Iter=  0 NonCon=     1 RMS=5.62D-04 Max=6.73D-03 NDo=     1
 LinEq1:  Iter=  1 NonCon=     1 RMS=1.89D-04 Max=2.20D-03 NDo=     1
 LinEq1:  Iter=  2 NonCon=     1 RMS=4.55D-05 Max=3.77D-04 NDo=     1
 LinEq1:  Iter=  3 NonCon=     1 RMS=4.88D-06 Max=2.58D-05 NDo=     1
 LinEq1:  Iter=  4 NonCon=     1 RMS=1.32D-06 Max=8.29D-06 NDo=     1
 LinEq1:  Iter=  5 NonCon=     1 RMS=2.64D-07 Max=1.44D-06 NDo=     1
 LinEq1:  Iter=  6 NonCon=     1 RMS=4.81D-08 Max=2.72D-07 NDo=     1
 LinEq1:  Iter=  7 NonCon=     1 RMS=8.87D-09 Max=5.44D-08 NDo=     1
 LinEq1:  Iter=  8 NonCon=     1 RMS=1.92D-09 Max=2.63D-08 NDo=     1
 LinEq1:  Iter=  9 NonCon=     0 RMS=4.38D-10 Max=4.71D-09 NDo=     1
 Linear equations converged to 2.610D-09 2.610D-08 after     9 iterations.
     Minimum is close to point  2 DX=  1.05D-01 DF= -3.18D-06 DXR=  9.51D-02 DFR=  9.12D-03 which will be used.
 LinEq1:  Iter=  0 NonCon=     1 RMS=3.40D-05 Max=4.61D-04 NDo=     1
 LinEq1:  Iter=  1 NonCon=     1 RMS=4.55D-06 Max=3.53D-05 NDo=     1
 LinEq1:  Iter=  2 NonCon=     1 RMS=9.91D-07 Max=1.07D-05 NDo=     1
 LinEq1:  Iter=  3 NonCon=     1 RMS=2.03D-07 Max=1.39D-06 NDo=     1
 LinEq1:  Iter=  4 NonCon=     1 RMS=4.01D-08 Max=3.51D-07 NDo=     1
 LinEq1:  Iter=  5 NonCon=     1 RMS=8.81D-09 Max=7.42D-08 NDo=     1
 LinEq1:  Iter=  6 NonCon=     0 RMS=1.96D-09 Max=1.52D-08 NDo=     1
 Linear equations converged to 2.610D-09 2.610D-08 after     6 iterations.
     Minimum is close to point  2 DX=  2.09D-02 DF= -1.26D-09 DXR=  2.05D-02 DFR=  4.20D-04 which will be used.
 LinEq1:  Iter=  0 NonCon=     1 RMS=8.79D-07 Max=9.74D-06 NDo=     1
 LinEq1:  Iter=  1 NonCon=     1 RMS=2.84D-07 Max=2.40D-06 NDo=     1
 LinEq1:  Iter=  2 NonCon=     1 RMS=5.57D-08 Max=4.33D-07 NDo=     1
 LinEq1:  Iter=  3 NonCon=     1 RMS=1.23D-08 Max=9.13D-08 NDo=     1
 LinEq1:  Iter=  4 NonCon=     1 RMS=2.55D-09 Max=2.54D-08 NDo=     1
 LinEq1:  Iter=  5 NonCon=     1 RMS=6.54D-10 Max=4.42D-09 NDo=     1
 LinEq1:  Iter=  6 NonCon=     1 RMS=1.43D-10 Max=7.97D-10 NDo=     1
 LinEq1:  Iter=  7 NonCon=     0 RMS=2.92D-11 Max=2.27D-10 NDo=     1
 Linear equations converged to 1.179D-10 1.179D-09 after     7 iterations.
 SCF Done:  E(UAM1) =  0.343320479601     a.u. after    9 cycles
            Convg  =    0.2184D-06                    78 Fock formations.
              S**2 =  1.8806                  -V/T =  1.0031
 <Sx>= 0.0000 <Sy>= 0.0000 <Sz>= 0.5000 <S**2>= 1.8806 S= 0.9597
 <L.S>=  0.00000000000    
 Annihilation of the first spin contaminant:
 S**2 before annihilation     1.8806,   after     2.5654

 **********************************************************************

            Population analysis using the SCF Density.

 **********************************************************************

 Orbital symmetries:
 Alpha Orbitals:
       Occupied  (A') (A') (A') (A') (A') (A') (A') (A') (A') (A')
                 (A') (A") (A') (A') (A") (A") (A') (A') (A") (A')
                 (A') (A') (A") (A")
       Virtual   (A") (A') (A") (A') (A') (A') (A') (A") (A') (A')
                 (A') (A') (A') (A')
 Beta  Orbitals:
       Occupied  (A') (A') (A') (A') (A') (A') (A') (A') (A') (A')
                 (A') (A") (A') (A") (A') (A") (A') (A") (A') (A')
                 (A') (A") (A")
       Virtual   (A') (A") (A') (A') (A") (A') (A') (A') (A") (A')
                 (A') (A') (A') (A') (A')
 The electronic state is 2-A'.
 Alpha  occ. eigenvalues --   -1.44825  -1.38409  -1.37640  -1.36209  -1.13506
 Alpha  occ. eigenvalues --   -1.12835  -0.85385  -0.84317  -0.65690  -0.62630
 Alpha  occ. eigenvalues --   -0.58596  -0.56128  -0.55146  -0.48864  -0.48531
 Alpha  occ. eigenvalues --   -0.47266  -0.45951  -0.45768  -0.44744  -0.43734
 Alpha  occ. eigenvalues --   -0.41603  -0.40489  -0.38509  -0.37481
 Alpha virt. eigenvalues --   -0.00879  -0.00758   0.00387   0.00880   0.01751
 Alpha virt. eigenvalues --    0.03706   0.04367   0.07549   0.12890   0.12943
 Alpha virt. eigenvalues --    0.14803   0.15268   0.16419   0.18061
  Beta  occ. eigenvalues --   -1.44374  -1.38460  -1.37528  -1.35880  -1.12686
  Beta  occ. eigenvalues --   -1.11891  -0.84673  -0.82245  -0.65941  -0.62110
  Beta  occ. eigenvalues --   -0.57381  -0.56029  -0.54685  -0.49566  -0.47136
  Beta  occ. eigenvalues --   -0.46552  -0.45546  -0.44774  -0.44524  -0.43651
  Beta  occ. eigenvalues --   -0.41119  -0.37843  -0.37041
  Beta virt. eigenvalues --   -0.03308  -0.00444   0.00205   0.00687   0.01694
  Beta virt. eigenvalues --    0.02125   0.03898   0.04246   0.08395   0.13287
  Beta virt. eigenvalues --    0.13355   0.15366   0.16436   0.17038   0.19049
          Condensed to atoms (all electrons):
               1          2          3          4          5          6
     1  C    4.040607   0.000000   0.000000   0.000000   0.000000   0.000000
     2  C    0.000000   4.039978   0.000000   0.000000   0.000000   0.000000
     3  C    0.000000   0.000000   4.037859   0.000000   0.000000   0.000000
     4  C    0.000000   0.000000   0.000000   4.118699   0.000000   0.000000
     5  C    0.000000   0.000000   0.000000   0.000000   4.131473   0.000000
     6  C    0.000000   0.000000   0.000000   0.000000   0.000000   4.005244
     7  Cl   0.000000   0.000000   0.000000   0.000000   0.000000   0.000000
     8  Cl   0.000000   0.000000   0.000000   0.000000   0.000000   0.000000
     9  Cl   0.000000   0.000000   0.000000   0.000000   0.000000   0.000000
    10  H    0.000000   0.000000   0.000000   0.000000   0.000000   0.000000
    11  H    0.000000   0.000000   0.000000   0.000000   0.000000   0.000000
               7          8          9         10         11
     1  C    0.000000   0.000000   0.000000   0.000000   0.000000
     2  C    0.000000   0.000000   0.000000   0.000000   0.000000
     3  C    0.000000   0.000000   0.000000   0.000000   0.000000
     4  C    0.000000   0.000000   0.000000   0.000000   0.000000
     5  C    0.000000   0.000000   0.000000   0.000000   0.000000
     6  C    0.000000   0.000000   0.000000   0.000000   0.000000
     7  Cl   6.993870   0.000000   0.000000   0.000000   0.000000
     8  Cl   0.000000   6.985174   0.000000   0.000000   0.000000
     9  Cl   0.000000   0.000000   7.005332   0.000000   0.000000
    10  H    0.000000   0.000000   0.000000   0.811703   0.000000
    11  H    0.000000   0.000000   0.000000   0.000000   0.830061
          Atomic-Atomic Spin Densities.
               1          2          3          4          5          6
     1  C   -0.557040   0.000000   0.000000   0.000000   0.000000   0.000000
     2  C    0.000000   0.561117   0.000000   0.000000   0.000000   0.000000
     3  C    0.000000   0.000000  -0.551250   0.000000   0.000000   0.000000
     4  C    0.000000   0.000000   0.000000   0.966854   0.000000   0.000000
     5  C    0.000000   0.000000   0.000000   0.000000  -0.994781   0.000000
     6  C    0.000000   0.000000   0.000000   0.000000   0.000000   1.495658
     7  Cl   0.000000   0.000000   0.000000   0.000000   0.000000   0.000000
     8  Cl   0.000000   0.000000   0.000000   0.000000   0.000000   0.000000
     9  Cl   0.000000   0.000000   0.000000   0.000000   0.000000   0.000000
    10  H    0.000000   0.000000   0.000000   0.000000   0.000000   0.000000
    11  H    0.000000   0.000000   0.000000   0.000000   0.000000   0.000000
               7          8          9         10         11
     1  C    0.000000   0.000000   0.000000   0.000000   0.000000
     2  C    0.000000   0.000000   0.000000   0.000000   0.000000
     3  C    0.000000   0.000000   0.000000   0.000000   0.000000
     4  C    0.000000   0.000000   0.000000   0.000000   0.000000
     5  C    0.000000   0.000000   0.000000   0.000000   0.000000
     6  C    0.000000   0.000000   0.000000   0.000000   0.000000
     7  Cl   0.007381   0.000000   0.000000   0.000000   0.000000
     8  Cl   0.000000   0.006631   0.000000   0.000000   0.000000
     9  Cl   0.000000   0.000000   0.008597   0.000000   0.000000
    10  H    0.000000   0.000000   0.000000  -0.415432   0.000000
    11  H    0.000000   0.000000   0.000000   0.000000   0.472267
 Mulliken charges and spin densities:
               1          2
     1  C   -0.040607  -0.557040
     2  C   -0.039978   0.561117
     3  C   -0.037859  -0.551250
     4  C   -0.118699   0.966854
     5  C   -0.131473  -0.994781
     6  C   -0.005244   1.495658
     7  Cl   0.006130   0.007381
     8  Cl   0.014826   0.006631
     9  Cl  -0.005332   0.008597
    10  H    0.188297  -0.415432
    11  H    0.169939   0.472267
 Sum of Mulliken charges =  -0.00000   1.00000
 Mulliken charges and spin densities with hydrogens summed into heavy atoms:
               1          2
     1  C   -0.040607  -0.557040
     2  C   -0.039978   0.561117
     3  C   -0.037859  -0.551250
     4  C    0.069598   0.551421
     5  C    0.038466  -0.522514
     6  C   -0.005244   1.495658
     7  Cl   0.006130   0.007381
     8  Cl   0.014826   0.006631
     9  Cl  -0.005332   0.008597
 Charge=              0.0000 electrons
 Dipole moment (field-independent basis, Debye):
    X=             -1.6138    Y=             -2.6544    Z=              0.0000  Tot=              3.1065
 N-N= 2.421155805119D+02 E-N=-3.376627667284D+02  KE=-1.117228343381D+02
 Symmetry A'   KE=-8.574454910606D+01
 Symmetry A"   KE=-2.597828523202D+01
 Symmetry A'   SP= 1.000000000000D+00
 Symmetry A"   SP= 2.220446049250D-16
 Calling FoFJK, ICntrl=      2127 FMM=F ISym2X=1 I1Cent= 0 IOpClX= 1 NMat=1 NMatS=1 NMatT=0.
 ***** Axes restored to original set *****
 -------------------------------------------------------------------
 Center     Atomic                   Forces (Hartrees/Bohr)
 Number     Number              X              Y              Z
 -------------------------------------------------------------------
      1        6          -0.049436363   -0.003253994    0.000000000
      2        6          -0.000472267    0.034963710   -0.000000000
      3        6           0.037276547    0.000407889    0.000000000
      4        6           0.044236611   -0.047522534    0.000000000
      5        6          -0.008409882   -0.057624671    0.000000000
      6        6           0.066199967    0.012481283   -0.000000000
      7       17           0.034357429   -0.021058523    0.000000000
      8       17           0.000675878   -0.040130165    0.000000000
      9       17          -0.032601311   -0.023043679    0.000000000
     10        1          -0.088620935    0.048556596   -0.000000000
     11        1          -0.003205674    0.096224087   -0.000000000
 -------------------------------------------------------------------
 Cartesian Forces:  Max     0.096224087 RMS     0.035471351

 GradGradGradGradGradGradGradGradGradGradGradGradGradGradGradGradGradGrad
 Berny optimization.
 FormGI is forming the generalized inverse of G from B-inverse, IUseBI=4.
 Internal  Forces:  Max     0.101050221 RMS     0.025953493
 Search for a local minimum.
 Step number   1 out of a maximum of   57
 All quantities printed in internal units (Hartrees-Bohrs-Radians)
 Mixed Optimization -- RFO/linear search
 Second derivative matrix not updated -- first step.
 ITU=  0
     Eigenvalues ---    0.02011   0.02011   0.02011   0.02011   0.02011
     Eigenvalues ---    0.02011   0.02011   0.02011   0.06524   0.06524
     Eigenvalues ---    0.16000   0.16000   0.22422   0.24427   0.25000
     Eigenvalues ---    0.25000   0.25000   0.25000   0.29033   0.29033
     Eigenvalues ---    0.29033   0.40957   0.41540   0.44656   0.44657
     Eigenvalues ---    0.44657   0.44657
 RFO step:  Lambda=-1.26736931D-01 EMin= 2.01065650D-02
 Linear search not attempted -- first point.
 Maximum step size (   0.300) exceeded in Quadratic search.
    -- Step size scaled by   0.393
 Iteration  1 RMS(Cart)=  0.04677234 RMS(Int)=  0.00101748
 Iteration  2 RMS(Cart)=  0.00098331 RMS(Int)=  0.00002088
 Iteration  3 RMS(Cart)=  0.00000003 RMS(Int)=  0.00002088
 ClnCor:  largest displacement from symmetrization is 5.18D-09 for atom     3.
 Variable       Old X    -DE/DX   Delta X   Delta X   Delta X     New X
                                 (Linear)    (Quad)   (Total)
    R1        2.65676  -0.00309   0.00000  -0.00117  -0.00117   2.65559
    R2        2.65677  -0.03017   0.00000  -0.02080  -0.02077   2.63600
    R3        3.33635  -0.04024   0.00000  -0.03793  -0.03793   3.29842
    R4        2.65677   0.00056   0.00000   0.00143   0.00140   2.65817
    R5        3.33634  -0.04013   0.00000  -0.03783  -0.03783   3.29851
    R6        2.65677  -0.02164   0.00000  -0.01474  -0.01476   2.64200
    R7        3.33633  -0.03984   0.00000  -0.03756  -0.03756   3.29878
    R8        2.65678  -0.04459   0.00000  -0.03152  -0.03152   2.62526
    R9        3.33633  -0.10105   0.00000  -0.20694  -0.20694   3.12939
   R10        2.65675  -0.05379   0.00000  -0.03794  -0.03791   2.61884
   R11        3.33632  -0.09628   0.00000  -0.19716  -0.19716   3.13916
    A1        2.09439  -0.01504   0.00000  -0.01426  -0.01424   2.08016
    A2        2.09439   0.01113   0.00000   0.01090   0.01089   2.10528
    A3        2.09440   0.00391   0.00000   0.00336   0.00335   2.09775
    A4        2.09439  -0.00823   0.00000  -0.00535  -0.00539   2.08901
    A5        2.09440   0.00340   0.00000   0.00193   0.00195   2.09635
    A6        2.09439   0.00483   0.00000   0.00342   0.00344   2.09783
    A7        2.09440  -0.00415   0.00000  -0.00240  -0.00246   2.09194
    A8        2.09440   0.00635   0.00000   0.00566   0.00569   2.10009
    A9        2.09439  -0.00220   0.00000  -0.00326  -0.00323   2.09116
   A10        2.09439   0.00530   0.00000   0.00473   0.00470   2.09909
   A11        2.09440  -0.00351   0.00000  -0.00354  -0.00353   2.09087
   A12        2.09440  -0.00179   0.00000  -0.00118  -0.00117   2.09322
   A13        2.09439  -0.00058   0.00000  -0.00390  -0.00387   2.09052
   A14        2.09439   0.00123   0.00000   0.00324   0.00322   2.09761
   A15        2.09440  -0.00065   0.00000   0.00067   0.00065   2.09505
   A16        2.09440   0.02270   0.00000   0.02118   0.02126   2.11566
    D1        0.00000  -0.00000   0.00000  -0.00000   0.00000   0.00000
    D2        3.14159  -0.00000   0.00000  -0.00000   0.00000   3.14159
    D3        3.14159   0.00000   0.00000   0.00000   0.00000   3.14159
    D4        0.00000   0.00000   0.00000   0.00000   0.00000   0.00000
    D5        0.00000   0.00000   0.00000   0.00000   0.00000   0.00000
    D6        3.14159  -0.00000   0.00000  -0.00000   0.00000   3.14159
    D7        0.00000   0.00000   0.00000   0.00000   0.00000   0.00000
    D8        3.14159  -0.00000   0.00000  -0.00000   0.00000   3.14159
    D9        3.14159   0.00000   0.00000   0.00000   0.00000   3.14159
   D10        0.00000  -0.00000   0.00000  -0.00000   0.00000   0.00000
   D11        0.00000   0.00000   0.00000   0.00000   0.00000   0.00000
   D12        3.14159  -0.00000   0.00000  -0.00000   0.00000   3.14159
   D13        3.14159   0.00000   0.00000   0.00000   0.00000   3.14159
   D14        0.00000  -0.00000   0.00000  -0.00000   0.00000   0.00000
   D15        0.00000  -0.00000   0.00000  -0.00000   0.00000   0.00000
   D16        3.14159  -0.00000   0.00000  -0.00000   0.00000   3.14159
   D17        3.14159   0.00000   0.00000   0.00000   0.00000   3.14159
   D18        0.00000  -0.00000   0.00000  -0.00000   0.00000   0.00000
   D19        0.00000   0.00000   0.00000   0.00000   0.00000   0.00000
   D20        3.14159   0.00000   0.00000   0.00000   0.00000   3.14159
         Item               Value     Threshold  Converged?
 Maximum Force            0.101050     0.000450     NO 
 RMS     Force            0.025953     0.000300     NO 
 Maximum Displacement     0.202728     0.001800     NO 
 RMS     Displacement     0.047427     0.001200     NO 
 Predicted change in Energy=-4.573503D-02
 GradGradGradGradGradGradGradGradGradGradGradGradGradGradGradGradGradGrad

                          Input orientation:                          
 ---------------------------------------------------------------------
 Center     Atomic      Atomic             Coordinates (Angstroms)
 Number     Number       Type             X           Y           Z
 ---------------------------------------------------------------------
      1          6           0       -3.198836    0.186248    0.000000
      2          6           0       -2.003687    0.925454    0.000000
      3          6           0       -0.768345    0.252716    0.000000
      4          6           0       -0.736932   -1.145019    0.000000
      5          6           0       -1.920727   -1.872055    0.000000
      6          6           0       -3.136706   -1.207277    0.000000
      7         17           0       -4.745103    0.995968    0.000000
      8         17           0       -2.053188    2.670248    0.000000
      9         17           0        0.726352    1.154455    0.000000
     10          1           0        0.718246   -1.935465    0.000000
     11          1           0       -1.880944   -3.532751    0.000000
 ---------------------------------------------------------------------
                    Distance matrix (angstroms):
                    1          2          3          4          5
     1  C    0.000000
     2  C    1.405278   0.000000
     3  C    2.431400   1.406644   0.000000
     4  C    2.798793   2.427246   1.398088   0.000000
     5  C    2.422844   2.798738   2.417155   1.389227   0.000000
     6  C    1.394910   2.415010   2.782214   2.400581   1.385833
     7  Cl   1.745448   2.742322   4.045618   4.544145   4.025252
     8  Cl   2.735464   1.745496   2.737751   4.035937   4.544233
     9  Cl   4.042837   2.739627   1.745638   2.725579   4.020795
    10  H    4.454795   3.948895   2.645390   1.656003   2.639734
    11  H    3.945604   4.459894   3.945585   2.647646   1.661172
                    6          7          8          9         10
     6  C    0.000000
     7  Cl   2.727862   0.000000
     8  Cl   4.026066   3.170113   0.000000
     9  Cl   4.527803   5.473750   3.165987   0.000000
    10  H    3.923125   6.200119   5.375261   3.089930   0.000000
    11  H    2.642870   5.358423   6.205390   5.363571   3.050756
                   11
    11  H    0.000000
 Stoichiometry    C6H2Cl3(2)
 Framework group  CS[SG(C6H2Cl3)]
 Deg. of freedom    19
 Full point group                 CS      NOp   2
 Largest Abelian subgroup         CS      NOp   2
 Largest concise Abelian subgroup C1      NOp   1
                         Standard orientation:                         
 ---------------------------------------------------------------------
 Center     Atomic      Atomic             Coordinates (Angstroms)
 Number     Number       Type             X           Y           Z
 ---------------------------------------------------------------------
      1          6           0       -1.289094   -0.297881    0.000000
      2          6           0        0.000000    0.261620    0.000000
      3          6           0        1.125659   -0.581906    0.000000
      4          6           0        0.955580   -1.969611    0.000000
      5          6           0       -0.320527   -2.518703    0.000000
      6          6           0       -1.428170   -1.685840    0.000000
      7         17           0       -2.702726    0.725951    0.000000
      8         17           0        0.202129    1.995374    0.000000
      9         17           0        2.734576    0.095324    0.000000
     10          1           0        2.281845   -2.961260    0.000000
     11          1           0       -0.520169   -4.167835    0.000000
 ---------------------------------------------------------------------
 Rotational constants (GHZ):           1.4816886           0.8407381           0.5363838
 Standard basis: VSTO-6G (5D, 7F)
 There are    29 symmetry adapted cartesian basis functions of A'  symmetry.
 There are     9 symmetry adapted cartesian basis functions of A"  symmetry.
 There are    29 symmetry adapted basis functions of A'  symmetry.
 There are     9 symmetry adapted basis functions of A"  symmetry.
    38 basis functions,   228 primitive gaussians,    38 cartesian basis functions
    24 alpha electrons       23 beta electrons
       nuclear repulsion energy       243.4221561705 Hartrees.
 Integral buffers will be    131072 words long.
 Regular integral format.
 Two-electron integral symmetry is turned off.
 Do NDO integrals.
 One-electron integrals computed using PRISM.
 NBasis=    38 RedAO= T EigKep=  1.00D+00  NBF=    29     9
 NBsUse=    38 1.00D-06 EigRej= -1.00D+00 NBFU=    29     9
 Initial guess from the checkpoint file:  "geometry_chks/1234-_234-ClBzNeutralRadical.chk"
 B after Tr=     0.000000   -0.000000    0.000000
         Rot=    0.893471   -0.000000   -0.000000   -0.449120 Ang= -53.37 deg.
 Initial guess orbital symmetries:
 Alpha Orbitals:
       Occupied  (A') (A') (A') (A') (A') (A') (A') (A') (A') (A')
                 (A') (A") (A') (A') (A") (A") (A') (A') (A") (A')
                 (A') (A') (A") (A")
       Virtual   (A") (A') (A") (A') (A') (A') (A') (A") (A') (A')
                 (A') (A') (A') (A')
 Beta  Orbitals:
       Occupied  (A') (A') (A') (A') (A') (A') (A') (A') (A') (A')
                 (A') (A") (A') (A") (A') (A") (A') (A") (A') (A')
                 (A') (A") (A")
       Virtual   (A') (A") (A') (A') (A") (A') (A') (A') (A") (A')
                 (A') (A') (A') (A') (A')
 Initial guess <Sx>= 0.0000 <Sy>= 0.0000 <Sz>= 0.5000 <S**2>= 1.8806 S= 0.9597
 Keep J ints in memory in canonical form, NReq=863588.
 Overlap will be assumed to be unity.
 Requested convergence on RMS density matrix=1.00D-08 within  32 cycles.
 Requested convergence on MAX density matrix=1.00D-06.
 Requested convergence on             energy=1.00D-06.
 No special actions if energy rises.
 Fock symm off for IB=2 I1=    1 I=   30 J=   14 Cut=1.00D-07 Err=3.27D-03
 Fock matrix is not symmetric: symmetry in diagonalization turned off.
 SCF Done:  E(UAM1) =  0.290411317032     A.U. after   20 cycles
            NFock= 19  Conv=0.65D-08     -V/T= 1.0026
 <Sx>= 0.0000 <Sy>= 0.0000 <Sz>= 0.5000 <S**2>= 1.3926 S= 0.7816
 <L.S>=  0.00000000000    
 Annihilation of the first spin contaminant:
 S**2 before annihilation     1.3926,   after     1.1852
 QCSCF skips out because SCF is already converged.
 Calling FoFJK, ICntrl=      2127 FMM=F ISym2X=1 I1Cent= 0 IOpClX= 1 NMat=1 NMatS=1 NMatT=0.
 ***** Axes restored to original set *****
 -------------------------------------------------------------------
 Center     Atomic                   Forces (Hartrees/Bohr)
 Number     Number              X              Y              Z
 -------------------------------------------------------------------
      1        6          -0.043548095    0.001439059    0.000000000
      2        6           0.000846465    0.030688400    0.000000000
      3        6           0.029710814    0.005180430   -0.000000000
      4        6           0.081782628   -0.057008700    0.000000000
      5        6          -0.006718426   -0.102852475   -0.000000000
      6        6           0.043806385    0.011183926   -0.000000000
      7       17           0.026720456   -0.015637547   -0.000000000
      8       17           0.000513556   -0.030676760   -0.000000000
      9       17          -0.024660925   -0.016972280   -0.000000000
     10        1          -0.104966924    0.057890466   -0.000000000
     11        1          -0.003485936    0.116765481   -0.000000000
 -------------------------------------------------------------------
 Cartesian Forces:  Max     0.116765481 RMS     0.041621878

 GradGradGradGradGradGradGradGradGradGradGradGradGradGradGradGradGradGrad
 Berny optimization.
 Using GEDIIS/GDIIS optimizer.
 FormGI is forming the generalized inverse of G from B-inverse, IUseBI=4.
 Internal  Forces:  Max     0.119869816 RMS     0.026621973
 Search for a local minimum.
 Step number   2 out of a maximum of   57
 All quantities printed in internal units (Hartrees-Bohrs-Radians)
 Mixed Optimization -- RFO/linear search
 Update second derivatives using D2CorX and points    1    2
 DE= -5.29D-02 DEPred=-4.57D-02 R= 1.16D+00
 TightC=F SS=  1.41D+00  RLast= 3.00D-01 DXNew= 5.0454D-01 9.0000D-01
 Trust test= 1.16D+00 RLast= 3.00D-01 DXMaxT set to 5.05D-01
 ITU=  1  0
 Use linear search instead of GDIIS.
     Eigenvalues ---   -0.31067   0.02011   0.02011   0.02011   0.02011
     Eigenvalues ---    0.02011   0.02011   0.02011   0.02011   0.04458
     Eigenvalues ---    0.06658   0.15998   0.16000   0.22404   0.24341
     Eigenvalues ---    0.24994   0.25000   0.25000   0.25117   0.29031
     Eigenvalues ---    0.29033   0.32819   0.41241   0.42303   0.44646
     Eigenvalues ---    0.44656   0.44657
 RFO step:  Lambda=-3.36094090D-01 EMin=-3.10674423D-01
 Skip linear search -- no minimum in search direction.
 Maximum step size (   0.505) exceeded in Quadratic search.
    -- Step size scaled by   0.464
 Iteration  1 RMS(Cart)=  0.03582631 RMS(Int)=  0.02800340
 Iteration  2 RMS(Cart)=  0.02607954 RMS(Int)=  0.00011936
 Iteration  3 RMS(Cart)=  0.00002546 RMS(Int)=  0.00011861
 Iteration  4 RMS(Cart)=  0.00000000 RMS(Int)=  0.00011861
 ClnCor:  largest displacement from symmetrization is 1.43D-08 for atom     8.
 Variable       Old X    -DE/DX   Delta X   Delta X   Delta X     New X
                                 (Linear)    (Quad)   (Total)
    R1        2.65559   0.00198   0.00000   0.02521   0.02504   2.68063
    R2        2.63600  -0.01667   0.00000   0.05347   0.05344   2.68944
    R3        3.29842  -0.03093   0.00000   0.02665   0.02665   3.32507
    R4        2.65817   0.00398   0.00000   0.01905   0.01890   2.67708
    R5        3.29851  -0.03068   0.00000   0.02774   0.02774   3.32625
    R6        2.64200  -0.00877   0.00000   0.05752   0.05754   2.69955
    R7        3.29878  -0.02988   0.00000   0.03158   0.03158   3.33036
    R8        2.62526  -0.02199   0.00000   0.09649   0.09667   2.72193
    R9        3.12939  -0.11987   0.00000  -0.32965  -0.32965   2.79974
   R10        2.61884  -0.03028   0.00000   0.09394   0.09409   2.71294
   R11        3.13916  -0.11682   0.00000  -0.34101  -0.34101   2.79815
    A1        2.08016  -0.01189   0.00000   0.00557   0.00534   2.08549
    A2        2.10528   0.00835   0.00000  -0.00811  -0.00799   2.09729
    A3        2.09775   0.00354   0.00000   0.00254   0.00266   2.10040
    A4        2.08901  -0.00536   0.00000   0.00955   0.00920   2.09821
    A5        2.09635   0.00209   0.00000  -0.00459  -0.00441   2.09194
    A6        2.09783   0.00327   0.00000  -0.00497  -0.00479   2.09304
    A7        2.09194  -0.00143   0.00000   0.01533   0.01519   2.10713
    A8        2.10009   0.00368   0.00000  -0.01313  -0.01306   2.08703
    A9        2.09116  -0.00224   0.00000  -0.00220  -0.00213   2.08903
   A10        2.09909   0.00325   0.00000  -0.00737  -0.00717   2.09192
   A11        2.09087  -0.00283   0.00000  -0.00027  -0.00037   2.09050
   A12        2.09322  -0.00043   0.00000   0.00764   0.00754   2.10076
   A13        2.09052  -0.00436   0.00000  -0.02626  -0.02592   2.06460
   A14        2.09761   0.00326   0.00000   0.01547   0.01531   2.11292
   A15        2.09505   0.00110   0.00000   0.01079   0.01062   2.10567
   A16        2.11566   0.01979   0.00000   0.00319   0.00336   2.11902
    D1        0.00000  -0.00000   0.00000  -0.00000   0.00000   0.00000
    D2        3.14159  -0.00000   0.00000  -0.00000   0.00000   3.14159
    D3        3.14159   0.00000   0.00000   0.00000   0.00000   3.14159
    D4        0.00000   0.00000   0.00000   0.00000   0.00000   0.00000
    D5        0.00000   0.00000   0.00000   0.00000   0.00000   0.00000
    D6        3.14159  -0.00000   0.00000  -0.00000   0.00000   3.14159
    D7        0.00000   0.00000   0.00000   0.00000   0.00000   0.00000
    D8        3.14159  -0.00000   0.00000  -0.00000   0.00000   3.14159
    D9        3.14159   0.00000   0.00000   0.00000   0.00000   3.14159
   D10        0.00000   0.00000   0.00000   0.00000   0.00000   0.00000
   D11        0.00000   0.00000   0.00000   0.00000   0.00000   0.00000
   D12        3.14159  -0.00000   0.00000  -0.00000   0.00000   3.14159
   D13        3.14159   0.00000   0.00000   0.00000   0.00000   3.14159
   D14        0.00000   0.00000   0.00000   0.00000   0.00000   0.00000
   D15        0.00000  -0.00000   0.00000  -0.00000   0.00000   0.00000
   D16        3.14159  -0.00000   0.00000  -0.00000   0.00000   3.14159
   D17        3.14159   0.00000   0.00000  -0.00000   0.00000   3.14159
   D18        0.00000  -0.00000   0.00000  -0.00000   0.00000   0.00000
   D19        0.00000   0.00000   0.00000   0.00000   0.00000   0.00000
   D20        3.14159   0.00000   0.00000   0.00000   0.00000   3.14159
         Item               Value     Threshold  Converged?
 Maximum Force            0.119870     0.000450     NO 
 RMS     Force            0.026622     0.000300     NO 
 Maximum Displacement     0.184019     0.001800     NO 
 RMS     Displacement     0.053600     0.001200     NO 
 Predicted change in Energy=-1.029948D-01
 GradGradGradGradGradGradGradGradGradGradGradGradGradGradGradGradGradGrad

                          Input orientation:                          
 ---------------------------------------------------------------------
 Center     Atomic      Atomic             Coordinates (Angstroms)
 Number     Number       Type             X           Y           Z
 ---------------------------------------------------------------------
      1          6           0       -3.204653    0.174667    0.000000
      2          6           0       -1.993719    0.913486    0.000000
      3          6           0       -0.747487    0.239844    0.000000
      4          6           0       -0.689248   -1.187508    0.000000
      5          6           0       -1.908158   -1.954945    0.000000
      6          6           0       -3.157509   -1.247740    0.000000
      7         17           0       -4.751765    1.012794    0.000000
      8         17           0       -2.040689    2.673037    0.000000
      9         17           0        0.746596    1.174506    0.000000
     10          1           0        0.625622   -1.870249    0.000000
     11          1           0       -1.878860   -3.435372    0.000000
 ---------------------------------------------------------------------
                    Distance matrix (angstroms):
                    1          2          3          4          5
     1  C    0.000000
     2  C    1.418526   0.000000
     3  C    2.458031   1.416647   0.000000
     4  C    2.860557   2.473019   1.428539   0.000000
     5  C    2.493221   2.869707   2.482792   1.440383   0.000000
     6  C    1.423188   2.454650   2.832157   2.468997   1.435624
     7  Cl   1.759549   2.759834   4.078198   4.620106   4.110180
     8  Cl   2.756205   1.760178   2.755504   4.090257   4.629880
     9  Cl   4.075788   2.752718   1.762349   2.764191   4.103801
    10  H    4.341969   3.822320   2.517523   1.481560   2.535196
    11  H    3.845792   4.350375   3.845415   2.543241   1.480717
                    6          7          8          9         10
     6  C    0.000000
     7  Cl   2.766165   0.000000
     8  Cl   4.076737   3.179047   0.000000
     9  Cl   4.594487   5.500738   3.164577   0.000000
    10  H    3.834006   6.101495   5.267890   3.047157   0.000000
    11  H    2.533906   5.295259   6.110553   5.305091   2.953311
                   11
    11  H    0.000000
 Stoichiometry    C6H2Cl3(2)
 Framework group  CS[SG(C6H2Cl3)]
 Deg. of freedom    19
 Full point group                 CS      NOp   2
 Largest Abelian subgroup         CS      NOp   2
 Largest concise Abelian subgroup C1      NOp   1
                         Standard orientation:                         
 ---------------------------------------------------------------------
 Center     Atomic      Atomic             Coordinates (Angstroms)
 Number     Number       Type             X           Y           Z
 ---------------------------------------------------------------------
      1          6           0       -1.303498   -0.305833    0.000000
      2          6           0        0.000000    0.253727    0.000000
      3          6           0        1.138063   -0.589896    0.000000
      4          6           0        0.993226   -2.011074    0.000000
      5          6           0       -0.322228   -2.597832    0.000000
      6          6           0       -1.458618   -1.720543    0.000000
      7         17           0       -2.716064    0.743294    0.000000
      8         17           0        0.203119    2.002146    0.000000
      9         17           0        2.749629    0.123359    0.000000
     10          1           0        2.197942   -2.873441    0.000000
     11          1           0       -0.503243   -4.067443    0.000000
 ---------------------------------------------------------------------
 Rotational constants (GHZ):           1.4417199           0.8305049           0.5269529
 Standard basis: VSTO-6G (5D, 7F)
 There are    29 symmetry adapted cartesian basis functions of A'  symmetry.
 There are     9 symmetry adapted cartesian basis functions of A"  symmetry.
 There are    29 symmetry adapted basis functions of A'  symmetry.
 There are     9 symmetry adapted basis functions of A"  symmetry.
    38 basis functions,   228 primitive gaussians,    38 cartesian basis functions
    24 alpha electrons       23 beta electrons
       nuclear repulsion energy       242.0558636189 Hartrees.
 Integral buffers will be    131072 words long.
 Regular integral format.
 Two-electron integral symmetry is turned off.
 Do NDO integrals.
 One-electron integrals computed using PRISM.
 NBasis=    38 RedAO= T EigKep=  1.00D+00  NBF=    29     9
 NBsUse=    38 1.00D-06 EigRej= -1.00D+00 NBFU=    29     9
 Initial guess from the checkpoint file:  "geometry_chks/1234-_234-ClBzNeutralRadical.chk"
 B after Tr=    -0.000000    0.000000    0.000000
         Rot=    1.000000   -0.000000   -0.000000   -0.000992 Ang=  -0.11 deg.
 Initial guess orbital symmetries:
 Alpha Orbitals:
       Occupied  (A') (A') (A') (A') (A') (A') (A') (A') (A') (A')
                 (A') (A") (A') (A') (A") (A") (A') (A') (A") (A')
                 (A') (A') (A") (A")
       Virtual   (A") (A") (A') (A') (A') (A') (A') (A") (A') (A')
                 (A') (A') (A') (A')
 Beta  Orbitals:
       Occupied  (A') (A') (A') (A') (A') (A') (A') (A') (A') (A')
                 (A') (A") (A') (A") (A') (A") (A') (A") (A') (A')
                 (A') (A") (A")
       Virtual   (A') (A") (A') (A") (A') (A') (A') (A') (A") (A')
                 (A') (A') (A') (A') (A')
 Initial guess <Sx>= 0.0000 <Sy>= 0.0000 <Sz>= 0.5000 <S**2>= 1.3926 S= 0.7816
 Keep J ints in memory in canonical form, NReq=863588.
 Overlap will be assumed to be unity.
 Requested convergence on RMS density matrix=1.00D-08 within  32 cycles.
 Requested convergence on MAX density matrix=1.00D-06.
 Requested convergence on             energy=1.00D-06.
 No special actions if energy rises.
 Fock symm off for IB=2 I1=    1 I=   30 J=    5 Cut=1.00D-07 Err=4.61D-03
 Fock matrix is not symmetric: symmetry in diagonalization turned off.
 SCF Done:  E(UAM1) =  0.226050283159     A.U. after   19 cycles
            NFock= 18  Conv=0.51D-08     -V/T= 1.0020
 <Sx>= 0.0000 <Sy>= 0.0000 <Sz>= 0.5000 <S**2>= 1.4743 S= 0.8131
 <L.S>=  0.00000000000    
 Annihilation of the first spin contaminant:
 S**2 before annihilation     1.4743,   after     1.2520
 QCSCF skips out because SCF is already converged.
 Calling FoFJK, ICntrl=      2127 FMM=F ISym2X=1 I1Cent= 0 IOpClX= 1 NMat=1 NMatS=1 NMatT=0.
 ***** Axes restored to original set *****
 -------------------------------------------------------------------
 Center     Atomic                   Forces (Hartrees/Bohr)
 Number     Number              X              Y              Z
 -------------------------------------------------------------------
      1        6          -0.029109862   -0.017438517    0.000000000
      2        6          -0.000818811    0.017632042   -0.000000000
      3        6           0.018881568   -0.014825067    0.000000000
      4        6           0.041435583   -0.044976732    0.000000000
      5        6          -0.007817916   -0.054353287    0.000000000
      6        6           0.082797063    0.022749060   -0.000000000
      7       17           0.034291054   -0.021246668   -0.000000000
      8       17           0.000432724   -0.038664863   -0.000000000
      9       17          -0.031866889   -0.023441712   -0.000000000
     10        1          -0.105619447    0.054835711   -0.000000000
     11        1          -0.002605067    0.119730032   -0.000000000
 -------------------------------------------------------------------
 Cartesian Forces:  Max     0.119730032 RMS     0.038674785

 GradGradGradGradGradGradGradGradGradGradGradGradGradGradGradGradGradGrad
 Berny optimization.
 Using GEDIIS/GDIIS optimizer.
 FormGI is forming the generalized inverse of G from B-inverse, IUseBI=4.
 Internal  Forces:  Max     0.119758137 RMS     0.032776818
 Search for a local minimum.
 Step number   3 out of a maximum of   57
 All quantities printed in internal units (Hartrees-Bohrs-Radians)
 Mixed Optimization -- RFO/linear search
 Update second derivatives using D2CorX and points    2    3
 DE= -6.44D-02 DEPred=-1.03D-01 R= 6.25D-01
 TightC=F SS=  1.41D+00  RLast= 5.05D-01 DXNew= 8.4853D-01 1.5136D+00
 Trust test= 6.25D-01 RLast= 5.05D-01 DXMaxT set to 8.49D-01
 ITU=  1  1  0
 Use linear search instead of GDIIS.
     Eigenvalues ---    0.00658   0.02011   0.02011   0.02011   0.02011
     Eigenvalues ---    0.02011   0.02011   0.02011   0.02011   0.06472
     Eigenvalues ---    0.15986   0.16000   0.21198   0.22799   0.24447
     Eigenvalues ---    0.25000   0.25000   0.25025   0.25623   0.29032
     Eigenvalues ---    0.29037   0.38526   0.41363   0.44639   0.44647
     Eigenvalues ---    0.44656   0.78097
 RFO step:  Lambda=-1.77818555D-01 EMin= 6.57916119D-03
 Quartic linear search produced a step of  1.54272.
 Iteration  1 RMS(Cart)=  0.05861625 RMS(Int)=  0.14195244
 Iteration  2 RMS(Cart)=  0.03873167 RMS(Int)=  0.10069594
 Iteration  3 RMS(Cart)=  0.03839158 RMS(Int)=  0.05944514
 Iteration  4 RMS(Cart)=  0.03839546 RMS(Int)=  0.01822092
 Iteration  5 RMS(Cart)=  0.01695624 RMS(Int)=  0.00031777
 Iteration  6 RMS(Cart)=  0.00000498 RMS(Int)=  0.00031773
 Iteration  7 RMS(Cart)=  0.00000000 RMS(Int)=  0.00031773
 ClnCor:  largest displacement from symmetrization is 1.47D-08 for atom     8.
 Variable       Old X    -DE/DX   Delta X   Delta X   Delta X     New X
                                 (Linear)    (Quad)   (Total)
    R1        2.68063  -0.02291   0.03862  -0.02089   0.01755   2.69817
    R2        2.68944  -0.05309   0.08244  -0.11931  -0.03653   2.65291
    R3        3.32507  -0.04027   0.04111  -0.16986  -0.12875   3.19632
    R4        2.67708  -0.01823   0.02916  -0.00717   0.02149   2.69857
    R5        3.32625  -0.03866   0.04280  -0.16894  -0.12614   3.20011
    R6        2.69955  -0.04459   0.08877  -0.09323  -0.00477   2.69477
    R7        3.33036  -0.03945   0.04872  -0.16982  -0.12110   3.20926
    R8        2.72193  -0.06902   0.14914  -0.18083  -0.03152   2.69041
    R9        2.79974  -0.11901  -0.50856  -0.38558  -0.89414   1.90560
   R10        2.71294  -0.07626   0.14516  -0.20828  -0.06262   2.65032
   R11        2.79815  -0.11976  -0.52609  -0.35508  -0.88116   1.91699
    A1        2.08549  -0.01361   0.00824  -0.05923  -0.05092   2.03457
    A2        2.09729   0.01071  -0.01233   0.04736   0.03498   2.13227
    A3        2.10040   0.00290   0.00410   0.01188   0.01594   2.11634
    A4        2.09821  -0.01075   0.01419  -0.02768  -0.01424   2.08396
    A5        2.09194   0.00438  -0.00680   0.01054   0.00412   2.09606
    A6        2.09304   0.00637  -0.00739   0.01714   0.01013   2.10316
    A7        2.10713  -0.00306   0.02344  -0.01609   0.00646   2.11359
    A8        2.08703   0.00648  -0.02015   0.02893   0.00922   2.09624
    A9        2.08903  -0.00342  -0.00329  -0.01283  -0.01568   2.07335
   A10        2.09192   0.00489  -0.01106   0.02093   0.00968   2.10161
   A11        2.09050  -0.00244  -0.00057  -0.01205  -0.01252   2.07798
   A12        2.10076  -0.00245   0.01163  -0.00888   0.00284   2.10360
   A13        2.06460   0.00043  -0.03999  -0.00361  -0.04295   2.02165
   A14        2.11292   0.00012   0.02361   0.00483   0.02811   2.14103
   A15        2.10567  -0.00054   0.01638  -0.00121   0.01484   2.12051
   A16        2.11902   0.02211   0.00518   0.08569   0.09198   2.21099
    D1        0.00000  -0.00000   0.00000   0.00000   0.00000   0.00000
    D2        3.14159  -0.00000   0.00000   0.00000   0.00000   3.14159
    D3        3.14159   0.00000   0.00000  -0.00000   0.00000   3.14159
    D4        0.00000  -0.00000   0.00000  -0.00000   0.00000   0.00000
    D5        0.00000   0.00000   0.00000  -0.00000   0.00000   0.00000
    D6        3.14159  -0.00000   0.00000   0.00000   0.00000   3.14159
    D7        0.00000   0.00000   0.00000   0.00000   0.00000   0.00000
    D8        3.14159  -0.00000   0.00000  -0.00000   0.00000   3.14159
    D9        3.14159   0.00000   0.00000   0.00000   0.00000   3.14159
   D10        0.00000   0.00000   0.00000  -0.00000   0.00000   0.00000
   D11        0.00000  -0.00000   0.00000  -0.00000   0.00000   0.00000
   D12        3.14159  -0.00000   0.00000  -0.00000   0.00000   3.14159
   D13        3.14159   0.00000   0.00000   0.00000   0.00000   3.14159
   D14        0.00000  -0.00000   0.00000  -0.00000   0.00000   0.00000
   D15        0.00000   0.00000   0.00000   0.00000   0.00000   0.00000
   D16        3.14159  -0.00000   0.00000  -0.00000   0.00000   3.14159
   D17        3.14159   0.00000   0.00000   0.00000   0.00000   3.14159
   D18        0.00000   0.00000   0.00000  -0.00000   0.00000   0.00000
   D19        0.00000  -0.00000   0.00000  -0.00000   0.00000   0.00000
   D20        3.14159   0.00000   0.00000   0.00000   0.00000   3.14159
         Item               Value     Threshold  Converged?
 Maximum Force            0.119758     0.000450     NO 
 RMS     Force            0.032777     0.000300     NO 
 Maximum Displacement     0.789914     0.001800     NO 
 RMS     Displacement     0.180466     0.001200     NO 
 Predicted change in Energy=-2.251510D-01
 GradGradGradGradGradGradGradGradGradGradGradGradGradGradGradGradGradGrad

                          Input orientation:                          
 ---------------------------------------------------------------------
 Center     Atomic      Atomic             Coordinates (Angstroms)
 Number     Number       Type             X           Y           Z
 ---------------------------------------------------------------------
      1          6           0       -3.177717    0.129006    0.000000
      2          6           0       -1.963028    0.879457    0.000000
      3          6           0       -0.712718    0.189553    0.000000
      4          6           0       -0.657715   -1.235398    0.000000
      5          6           0       -1.856801   -2.002943    0.000000
      6          6           0       -3.052047   -1.269215    0.000000
      7         17           0       -4.696376    0.873700    0.000000
      8         17           0       -2.010700    2.572213    0.000000
      9         17           0        0.742907    1.064346    0.000000
     10          1           0        0.241980   -1.690830    0.000000
     11          1           0       -1.857654   -3.017368    0.000000
 ---------------------------------------------------------------------
                    Distance matrix (angstroms):
                    1          2          3          4          5
     1  C    0.000000
     2  C    1.427811   0.000000
     3  C    2.465742   1.428021   0.000000
     4  C    2.865660   2.485248   1.426013   0.000000
     5  C    2.507992   2.884357   2.473048   1.423704   0.000000
     6  C    1.403857   2.408890   2.756893   2.394570   1.402486
     7  Cl   1.691418   2.733353   4.041978   4.556213   4.042061
     8  Cl   2.707616   1.693427   2.713268   4.040850   4.577744
     9  Cl   4.030651   2.712244   1.698266   2.692688   4.020789
    10  H    3.873775   3.386508   2.108860   1.008400   2.121862
    11  H    3.412072   3.898250   3.405176   2.148318   1.014425
                    6          7          8          9         10
     6  C    0.000000
     7  Cl   2.701093   0.000000
     8  Cl   3.980072   3.177704   0.000000
     9  Cl   4.455017   5.442623   3.139429   0.000000
    10  H    3.320899   5.564546   4.821629   2.800343   0.000000
    11  H    2.117218   4.816508   5.591676   4.839763   2.483579
                   11
    11  H    0.000000
 Stoichiometry    C6H2Cl3(2)
 Framework group  CS[SG(C6H2Cl3)]
 Deg. of freedom    19
 Full point group                 CS      NOp   2
 Largest Abelian subgroup         CS      NOp   2
 Largest concise Abelian subgroup C1      NOp   1
                         Standard orientation:                         
 ---------------------------------------------------------------------
 Center     Atomic      Atomic             Coordinates (Angstroms)
 Number     Number       Type             X           Y           Z
 ---------------------------------------------------------------------
      1          6           0       -1.296426   -0.302137    0.000000
      2          6           0        0.000000    0.296131   -0.000000
      3          6           0        1.157844   -0.539717    0.000000
      4          6           0        1.040361   -1.960882    0.000000
      5          6           0       -0.242642   -2.578002    0.000000
      6          6           0       -1.340531   -1.705301    0.000000
      7         17           0       -2.714038    0.620507   -0.000000
      8         17           0        0.157102    1.982254   -0.000000
      9         17           0        2.708459    0.152885   -0.000000
     10          1           0        1.878471   -2.521632    0.000000
     11          1           0       -0.365995   -3.584900    0.000000
 ---------------------------------------------------------------------
 Rotational constants (GHZ):           1.5143865           0.8515264           0.5450497
 Standard basis: VSTO-6G (5D, 7F)
 There are    29 symmetry adapted cartesian basis functions of A'  symmetry.
 There are     9 symmetry adapted cartesian basis functions of A"  symmetry.
 There are    29 symmetry adapted basis functions of A'  symmetry.
 There are     9 symmetry adapted basis functions of A"  symmetry.
    38 basis functions,   228 primitive gaussians,    38 cartesian basis functions
    24 alpha electrons       23 beta electrons
       nuclear repulsion energy       246.1429277175 Hartrees.
 Integral buffers will be    131072 words long.
 Regular integral format.
 Two-electron integral symmetry is turned off.
 Do NDO integrals.
 One-electron integrals computed using PRISM.
 NBasis=    38 RedAO= T EigKep=  1.00D+00  NBF=    29     9
 NBsUse=    38 1.00D-06 EigRej= -1.00D+00 NBFU=    29     9
 Initial guess from the checkpoint file:  "geometry_chks/1234-_234-ClBzNeutralRadical.chk"
 B after Tr=    -0.000000    0.000000   -0.000000
         Rot=    0.999916    0.000000   -0.000000   -0.012976 Ang=  -1.49 deg.
 Initial guess orbital symmetries:
 Alpha Orbitals:
       Occupied  (A') (A') (A') (A') (A') (A') (A') (A') (A') (A')
                 (A') (A") (A') (A') (A") (A") (A') (A') (A") (A')
                 (A') (A') (A") (A")
       Virtual   (A") (A") (A') (A') (A') (A') (A') (A") (A') (A')
                 (A') (A') (A') (A')
 Beta  Orbitals:
       Occupied  (A') (A') (A') (A') (A') (A') (A') (A') (A') (A')
                 (A') (A") (A') (A') (A") (A') (A") (A') (A") (A')
                 (A') (A") (A")
       Virtual   (A') (A") (A') (A") (A') (A') (A') (A') (A") (A')
                 (A') (A') (A') (A') (A')
 Initial guess <Sx>= 0.0000 <Sy>= 0.0000 <Sz>= 0.5000 <S**2>= 1.4743 S= 0.8131
 Keep J ints in memory in canonical form, NReq=863588.
 Overlap will be assumed to be unity.
 Requested convergence on RMS density matrix=1.00D-08 within  32 cycles.
 Requested convergence on MAX density matrix=1.00D-06.
 Requested convergence on             energy=1.00D-06.
 No special actions if energy rises.
 Fock symm off for IB=2 I1=    1 I=   30 J=   23 Cut=1.00D-07 Err=1.31D-03
 Fock matrix is not symmetric: symmetry in diagonalization turned off.
 SCF Done:  E(UAM1) =  0.104083999851     A.U. after   17 cycles
            NFock= 16  Conv=0.29D-08     -V/T= 1.0009
 <Sx>= 0.0000 <Sy>= 0.0000 <Sz>= 0.5000 <S**2>= 1.4273 S= 0.7951
 <L.S>=  0.00000000000    
 Annihilation of the first spin contaminant:
 S**2 before annihilation     1.4273,   after     1.1748
 QCSCF skips out because SCF is already converged.
 Calling FoFJK, ICntrl=      2127 FMM=F ISym2X=1 I1Cent= 0 IOpClX= 1 NMat=1 NMatS=1 NMatT=0.
 ***** Axes restored to original set *****
 -------------------------------------------------------------------
 Center     Atomic                   Forces (Hartrees/Bohr)
 Number     Number              X              Y              Z
 -------------------------------------------------------------------
      1        6           0.003939028   -0.019489497    0.000000000
      2        6           0.002895136   -0.010370781    0.000000000
      3        6          -0.015988031   -0.008152947    0.000000000
      4        6          -0.077902379    0.043159033    0.000000000
      5        6          -0.017699850    0.089315770    0.000000000
      6        6           0.035473543    0.021870693   -0.000000000
      7       17           0.007238137   -0.004173613   -0.000000000
      8       17          -0.000181739   -0.006145165   -0.000000000
      9       17          -0.005104919   -0.003855058   -0.000000000
     10        1           0.065935558   -0.035516535   -0.000000000
     11        1           0.001395517   -0.066641900   -0.000000000
 -------------------------------------------------------------------
 Cartesian Forces:  Max     0.089315770 RMS     0.029640621

 GradGradGradGradGradGradGradGradGradGradGradGradGradGradGradGradGradGrad
 Berny optimization.
 Using GEDIIS/GDIIS optimizer.
 FormGI is forming the generalized inverse of G from B-inverse, IUseBI=4.
 Internal  Forces:  Max     0.074868407 RMS     0.017268948
 Search for a local minimum.
 Step number   4 out of a maximum of   57
 All quantities printed in internal units (Hartrees-Bohrs-Radians)
 Mixed Optimization -- RFO/linear search
 Update second derivatives using D2CorX and points    3    4
 DE= -1.22D-01 DEPred=-2.25D-01 R= 5.42D-01
 TightC=F SS=  1.41D+00  RLast= 1.28D+00 DXNew= 1.4270D+00 3.8495D+00
 Trust test= 5.42D-01 RLast= 1.28D+00 DXMaxT set to 1.43D+00
 ITU=  1  1  1  0
 Use linear search instead of GDIIS.
     Eigenvalues ---    0.02011   0.02011   0.02011   0.02011   0.02011
     Eigenvalues ---    0.02011   0.02011   0.02011   0.06451   0.13144
     Eigenvalues ---    0.16000   0.16051   0.21046   0.22640   0.24828
     Eigenvalues ---    0.25000   0.25001   0.25028   0.25682   0.29035
     Eigenvalues ---    0.29036   0.36907   0.41370   0.44616   0.44655
     Eigenvalues ---    0.44686   0.53724
 RFO step:  Lambda=-2.84209983D-02 EMin= 2.01065600D-02
 Quartic linear search produced a step of -0.16771.
 Iteration  1 RMS(Cart)=  0.05922939 RMS(Int)=  0.00723202
 Iteration  2 RMS(Cart)=  0.00664701 RMS(Int)=  0.00036030
 Iteration  3 RMS(Cart)=  0.00001759 RMS(Int)=  0.00036003
 Iteration  4 RMS(Cart)=  0.00000000 RMS(Int)=  0.00036003
 ClnCor:  largest displacement from symmetrization is 1.38D-08 for atom    11.
 Variable       Old X    -DE/DX   Delta X   Delta X   Delta X     New X
                                 (Linear)    (Quad)   (Total)
    R1        2.69817  -0.01776  -0.00294  -0.01811  -0.02119   2.67698
    R2        2.65291  -0.03326   0.00613  -0.11173  -0.10513   2.54777
    R3        3.19632  -0.00834   0.02159  -0.13576  -0.11416   3.08215
    R4        2.69857  -0.01835  -0.00360  -0.00986  -0.01403   2.68453
    R5        3.20011  -0.00614   0.02116  -0.13306  -0.11190   3.08821
    R6        2.69477  -0.01832   0.00080  -0.06691  -0.06653   2.62824
    R7        3.20926  -0.00636   0.02031  -0.13143  -0.11112   3.09814
    R8        2.69041  -0.01904   0.00529  -0.13134  -0.12591   2.56450
    R9        1.90560   0.07487   0.14996   0.09509   0.24505   2.15065
   R10        2.65032  -0.03345   0.01050  -0.17932  -0.16824   2.48208
   R11        1.91699   0.06664   0.14778   0.07177   0.21955   2.13654
    A1        2.03457  -0.00393   0.00854  -0.05811  -0.04933   1.98525
    A2        2.13227   0.00286  -0.00587   0.04217   0.03618   2.16845
    A3        2.11634   0.00107  -0.00267   0.01594   0.01315   2.12949
    A4        2.08396  -0.00340   0.00239  -0.02386  -0.02224   2.06172
    A5        2.09606   0.00113  -0.00069   0.00885   0.00855   2.10460
    A6        2.10316   0.00227  -0.00170   0.01501   0.01370   2.11686
    A7        2.11359   0.00186  -0.00108  -0.00601  -0.00814   2.10545
    A8        2.09624   0.00015  -0.00155   0.01768   0.01665   2.11290
    A9        2.07335  -0.00201   0.00263  -0.01166  -0.00851   2.06484
   A10        2.10161  -0.00414  -0.00162   0.00488   0.00293   2.10453
   A11        2.07798   0.00389   0.00210  -0.00077   0.00150   2.07948
   A12        2.10360   0.00025  -0.00048  -0.00411  -0.00443   2.09918
   A13        2.02165  -0.00264   0.00720  -0.01434  -0.00649   2.01516
   A14        2.14103  -0.00007  -0.00471   0.00652   0.00149   2.14251
   A15        2.12051   0.00271  -0.00249   0.00781   0.00500   2.12552
   A16        2.21099   0.01224  -0.01543   0.09744   0.08328   2.29427
    D1        0.00000  -0.00000   0.00000  -0.00000   0.00000   0.00000
    D2        3.14159  -0.00000   0.00000  -0.00000   0.00000   3.14159
    D3        3.14159   0.00000   0.00000   0.00000   0.00000   3.14159
    D4       -0.00000   0.00000   0.00000   0.00000   0.00000   0.00000
    D5       -0.00000   0.00000   0.00000   0.00000   0.00000   0.00000
    D6        3.14159  -0.00000   0.00000  -0.00000   0.00000   3.14159
    D7       -0.00000   0.00000   0.00000  -0.00000   0.00000   0.00000
    D8        3.14159  -0.00000   0.00000  -0.00000   0.00000   3.14159
    D9        3.14159   0.00000   0.00000   0.00000   0.00000   3.14159
   D10        0.00000   0.00000   0.00000   0.00000  -0.00000   0.00000
   D11       -0.00000   0.00000   0.00000   0.00000   0.00000   0.00000
   D12        3.14159  -0.00000   0.00000   0.00000   0.00000   3.14159
   D13        3.14159   0.00000   0.00000   0.00000   0.00000   3.14159
   D14        0.00000  -0.00000   0.00000   0.00000   0.00000   0.00000
   D15        0.00000  -0.00000   0.00000  -0.00000  -0.00000   0.00000
   D16        3.14159  -0.00000   0.00000  -0.00000   0.00000   3.14159
   D17        3.14159   0.00000   0.00000  -0.00000   0.00000   3.14159
   D18       -0.00000  -0.00000   0.00000  -0.00000   0.00000   0.00000
   D19       -0.00000  -0.00000   0.00000   0.00000   0.00000   0.00000
   D20        3.14159   0.00000   0.00000   0.00000   0.00000   3.14159
         Item               Value     Threshold  Converged?
 Maximum Force            0.074868     0.000450     NO 
 RMS     Force            0.017269     0.000300     NO 
 Maximum Displacement     0.182531     0.001800     NO 
 RMS     Displacement     0.061533     0.001200     NO 
 Predicted change in Energy=-3.339088D-02
 GradGradGradGradGradGradGradGradGradGradGradGradGradGradGradGradGradGrad

                          Input orientation:                          
 ---------------------------------------------------------------------
 Center     Atomic      Atomic             Coordinates (Angstroms)
 Number     Number       Type             X           Y           Z
 ---------------------------------------------------------------------
      1          6           0       -3.167992    0.141044   -0.000000
      2          6           0       -1.970151    0.897302   -0.000000
      3          6           0       -0.735023    0.195484    0.000000
      4          6           0       -0.710084   -1.195099    0.000000
      5          6           0       -1.865840   -1.906352   -0.000000
      6          6           0       -2.968248   -1.192301   -0.000000
      7         17           0       -4.663826    0.791164   -0.000000
      8         17           0       -2.018099    2.530810    0.000000
      9         17           0        0.694227    0.998659    0.000000
     10          1           0        0.293673   -1.731459    0.000000
     11          1           0       -1.888508   -3.036732   -0.000000
 ---------------------------------------------------------------------
                    Distance matrix (angstroms):
                    1          2          3          4          5
     1  C    0.000000
     2  C    1.416598   0.000000
     3  C    2.433578   1.420594   0.000000
     4  C    2.797604   2.442521   1.390807   0.000000
     5  C    2.426403   2.805594   2.386726   1.357075   0.000000
     6  C    1.348223   2.315737   2.629304   2.258165   1.313458
     7  Cl   1.631005   2.695766   3.973705   4.424626   3.886556
     8  Cl   2.652025   1.634212   2.664588   3.948835   4.439774
     9  Cl   3.956291   2.666305   1.639465   2.604739   3.872084
    10  H    3.935657   3.469190   2.184336   1.138074   2.166584
    11  H    3.425688   3.934881   3.431872   2.186388   1.130607
                    6          7          8          9         10
     6  C    0.000000
     7  Cl   2.609429   0.000000
     8  Cl   3.842439   3.166424   0.000000
     9  Cl   4.267789   5.362070   3.115156   0.000000
    10  H    3.306179   5.562412   4.848837   2.759345   0.000000
    11  H    2.137233   4.728127   5.569050   4.791127   2.542765
                   11
    11  H    0.000000
 Stoichiometry    C6H2Cl3(2)
 Framework group  CS[SG(C6H2Cl3)]
 Deg. of freedom    19
 Full point group                 CS      NOp   2
 Largest Abelian subgroup         CS      NOp   2
 Largest concise Abelian subgroup C1      NOp   1
                         Standard orientation:                         
 ---------------------------------------------------------------------
 Center     Atomic      Atomic             Coordinates (Angstroms)
 Number     Number       Type             X           Y           Z
 ---------------------------------------------------------------------
      1          6           0       -1.277565   -0.277892   -0.000000
      2          6           0        0.000000    0.334136    0.000000
      3          6           0        1.145263   -0.506377    0.000000
      4          6           0        1.008535   -1.890446    0.000000
      5          6           0       -0.222002   -2.462661   -0.000000
      6          6           0       -1.234022   -1.625412   -0.000000
      7         17           0       -2.687775    0.541550   -0.000000
      8         17           0        0.142086    1.962159    0.000000
      9         17           0        2.658120    0.125375    0.000000
     10          1           0        1.943210   -2.539749    0.000000
     11          1           0       -0.375795   -3.582760   -0.000000
 ---------------------------------------------------------------------
 Rotational constants (GHZ):           1.6088973           0.8807772           0.5691829
 Standard basis: VSTO-6G (5D, 7F)
 There are    29 symmetry adapted cartesian basis functions of A'  symmetry.
 There are     9 symmetry adapted cartesian basis functions of A"  symmetry.
 There are    29 symmetry adapted basis functions of A'  symmetry.
 There are     9 symmetry adapted basis functions of A"  symmetry.
[...]
                                 (Linear)    (Quad)   (Total)
    R1        2.68449   0.00004   0.00007  -0.00002   0.00005   2.68454
    R2        2.59894   0.00011  -0.00002   0.00022   0.00020   2.59913
    R3        3.17386   0.00004  -0.00005   0.00014   0.00009   3.17395
    R4        2.67402  -0.00001   0.00001  -0.00010  -0.00009   2.67394
    R5        3.18463  -0.00001   0.00000  -0.00007  -0.00007   3.18456
    R6        2.66126  -0.00002  -0.00001  -0.00011  -0.00013   2.66114
    R7        3.20141   0.00003   0.00009   0.00001   0.00010   3.20151
    R8        2.65791   0.00011   0.00010   0.00013   0.00022   2.65814
    R9        2.07849  -0.00003  -0.00039   0.00022  -0.00018   2.07832
   R10        2.58684   0.00010  -0.00007   0.00019   0.00012   2.58696
   R11        2.07312   0.00001  -0.00015   0.00010  -0.00005   2.07307
    A1        2.00986  -0.00003  -0.00000  -0.00011  -0.00011   2.00975
    A2        2.14447  -0.00001  -0.00002  -0.00005  -0.00007   2.14440
    A3        2.12886   0.00004   0.00002   0.00016   0.00018   2.12904
    A4        2.07399   0.00001  -0.00003  -0.00001  -0.00003   2.07395
    A5        2.09686  -0.00001  -0.00001  -0.00001  -0.00002   2.09685
    A6        2.11233   0.00000   0.00004   0.00001   0.00005   2.11239
    A7        2.12612   0.00006   0.00003   0.00022   0.00025   2.12637
    A8        2.09535  -0.00005  -0.00001  -0.00018  -0.00018   2.09517
    A9        2.06171  -0.00001  -0.00003  -0.00004  -0.00007   2.06165
   A10        2.09200  -0.00002  -0.00004  -0.00008  -0.00012   2.09188
   A11        2.09562   0.00003   0.00007   0.00017   0.00024   2.09586
   A12        2.09557  -0.00001  -0.00003  -0.00009  -0.00012   2.09545
   A13        2.00814  -0.00003   0.00002  -0.00010  -0.00008   2.00807
   A14        2.13288  -0.00005  -0.00013  -0.00030  -0.00043   2.13245
   A15        2.14216   0.00008   0.00011   0.00040   0.00050   2.14267
   A16        2.25626   0.00000   0.00002   0.00007   0.00010   2.25636
    D1       -0.00000   0.00000   0.00000   0.00000   0.00000   0.00000
    D2        3.14159  -0.00000  -0.00000  -0.00000   0.00000   3.14159
    D3        3.14159   0.00000  -0.00000   0.00000   0.00000   3.14159
    D4        0.00000  -0.00000   0.00000  -0.00000  -0.00000   0.00000
    D5        0.00000   0.00000   0.00000   0.00000   0.00000   0.00000
    D6        3.14159  -0.00000  -0.00000  -0.00000   0.00000   3.14159
    D7        0.00000   0.00000   0.00000   0.00000  -0.00000   0.00000
    D8        3.14159  -0.00000  -0.00000  -0.00000   0.00000   3.14159
    D9        3.14159   0.00000  -0.00000   0.00000   0.00000   3.14159
   D10        0.00000   0.00000   0.00000   0.00000  -0.00000   0.00000
   D11       -0.00000  -0.00000   0.00000  -0.00000   0.00000   0.00000
   D12        3.14159  -0.00000  -0.00000  -0.00000   0.00000   3.14159
   D13        3.14159   0.00000  -0.00000   0.00000   0.00000   3.14159
   D14       -0.00000   0.00000   0.00000   0.00000   0.00000   0.00000
   D15        0.00000   0.00000   0.00000   0.00000  -0.00000   0.00000
   D16        3.14159  -0.00000  -0.00000  -0.00000   0.00000   3.14159
   D17        3.14159   0.00000  -0.00000   0.00000   0.00000   3.14159
   D18       -0.00000   0.00000   0.00000   0.00000   0.00000   0.00000
   D19       -0.00000  -0.00000   0.00000  -0.00000   0.00000   0.00000
   D20        3.14159   0.00000  -0.00000   0.00000   0.00000   3.14159
         Item               Value     Threshold  Converged?
 Maximum Force            0.000114     0.000450     YES
 RMS     Force            0.000035     0.000300     YES
 Maximum Displacement     0.000862     0.001800     YES
 RMS     Displacement     0.000181     0.001200     YES
 Predicted change in Energy=-9.193669D-08
 Optimization completed.
    -- Stationary point found.
                           ----------------------------
                           !   Optimized Parameters   !
                           ! (Angstroms and Degrees)  !
 --------------------------                            --------------------------
 ! Name  Definition              Value          Derivative Info.                !
 --------------------------------------------------------------------------------
 ! R1    R(1,2)                  1.4206         -DE/DX =    0.0                 !
 ! R2    R(1,6)                  1.3753         -DE/DX =    0.0001              !
 ! R3    R(1,7)                  1.6795         -DE/DX =    0.0                 !
 ! R4    R(2,3)                  1.415          -DE/DX =    0.0                 !
 ! R5    R(2,8)                  1.6852         -DE/DX =    0.0                 !
 ! R6    R(3,4)                  1.4083         -DE/DX =    0.0                 !
 ! R7    R(3,9)                  1.6941         -DE/DX =    0.0                 !
 ! R8    R(4,5)                  1.4065         -DE/DX =    0.0001              !
 ! R9    R(4,10)                 1.0999         -DE/DX =    0.0                 !
 ! R10   R(5,6)                  1.3689         -DE/DX =    0.0001              !
 ! R11   R(5,11)                 1.097          -DE/DX =    0.0                 !
 ! A1    A(2,1,6)              115.1565         -DE/DX =    0.0                 !
 ! A2    A(2,1,7)              122.869          -DE/DX =    0.0                 !
 ! A3    A(6,1,7)              121.9745         -DE/DX =    0.0                 !
 ! A4    A(1,2,3)              118.8308         -DE/DX =    0.0                 !
 ! A5    A(1,2,8)              120.1415         -DE/DX =    0.0                 !
 ! A6    A(3,2,8)              121.0277         -DE/DX =    0.0                 !
 ! A7    A(2,3,4)              121.8177         -DE/DX =    0.0001              !
 ! A8    A(2,3,9)              120.0547         -DE/DX =    0.0                 !
 ! A9    A(4,3,9)              118.1275         -DE/DX =    0.0                 !
 ! A10   A(3,4,5)              119.8627         -DE/DX =    0.0                 !
 ! A11   A(3,4,10)             120.0702         -DE/DX =    0.0                 !
 ! A12   A(5,4,10)             120.0671         -DE/DX =    0.0                 !
 ! A13   A(4,5,6)              115.0581         -DE/DX =    0.0                 !
 ! A14   A(4,5,11)             122.205          -DE/DX =    0.0                 !
 ! A15   A(6,5,11)             122.7369         -DE/DX =    0.0001              !
 ! A16   A(1,6,5)              129.2741         -DE/DX =    0.0                 !
 ! D1    D(6,1,2,3)              0.0            -DE/DX =    0.0                 !
 ! D2    D(6,1,2,8)            180.0            -DE/DX =    0.0                 !
 ! D3    D(7,1,2,3)            180.0            -DE/DX =    0.0                 !
 ! D4    D(7,1,2,8)              0.0            -DE/DX =    0.0                 !
 ! D5    D(2,1,6,5)              0.0            -DE/DX =    0.0                 !
 ! D6    D(7,1,6,5)            180.0            -DE/DX =    0.0                 !
 ! D7    D(1,2,3,4)              0.0            -DE/DX =    0.0                 !
 ! D8    D(1,2,3,9)            180.0            -DE/DX =    0.0                 !
 ! D9    D(8,2,3,4)            180.0            -DE/DX =    0.0                 !
 ! D10   D(8,2,3,9)              0.0            -DE/DX =    0.0                 !
 ! D11   D(2,3,4,5)              0.0            -DE/DX =    0.0                 !
 ! D12   D(2,3,4,10)           180.0            -DE/DX =    0.0                 !
 ! D13   D(9,3,4,5)            180.0            -DE/DX =    0.0                 !
 ! D14   D(9,3,4,10)             0.0            -DE/DX =    0.0                 !
 ! D15   D(3,4,5,6)              0.0            -DE/DX =    0.0                 !
 ! D16   D(3,4,5,11)           180.0            -DE/DX =    0.0                 !
 ! D17   D(10,4,5,6)           180.0            -DE/DX =    0.0                 !
 ! D18   D(10,4,5,11)            0.0            -DE/DX =    0.0                 !
 ! D19   D(4,5,6,1)              0.0            -DE/DX =    0.0                 !
 ! D20   D(11,5,6,1)           180.0            -DE/DX =    0.0                 !
 --------------------------------------------------------------------------------
 GradGradGradGradGradGradGradGradGradGradGradGradGradGradGradGradGradGrad

                          Input orientation:                          
 ---------------------------------------------------------------------
 Center     Atomic      Atomic             Coordinates (Angstroms)
 Number     Number       Type             X           Y           Z
 ---------------------------------------------------------------------
      1          6           0       -3.176621    0.138592   -0.000000
      2          6           0       -1.968493    0.885885   -0.000000
      3          6           0       -0.736063    0.190591    0.000000
      4          6           0       -0.677395   -1.216465    0.000000
      5          6           0       -1.866913   -1.967004   -0.000000
      6          6           0       -3.018964   -1.227640   -0.000000
      7         17           0       -4.693906    0.858791   -0.000000
      8         17           0       -2.015476    2.570462    0.000000
      9         17           0        0.723406    1.050803    0.000000
     10          1           0        0.296598   -1.727445    0.000000
     11          1           0       -1.866044   -3.064051   -0.000000
 ---------------------------------------------------------------------
                    Distance matrix (angstroms):
                    1          2          3          4          5
     1  C    0.000000
     2  C    1.420570   0.000000
     3  C    2.441112   1.415033   0.000000
     4  C    2.842940   2.467146   1.408279   0.000000
     5  C    2.479691   2.854697   2.435989   1.406507   0.000000
     6  C    1.375298   2.360186   2.687567   2.341596   1.368898
     7  Cl   1.679536   2.725548   4.013853   4.520957   3.997125
     8  Cl   2.694857   1.685233   2.701978   4.016376   4.539898
     9  Cl   4.005289   2.696946   1.694111   2.665097   3.977048
    10  H    3.942758   3.458342   2.178360   1.099892   2.176733
    11  H    3.460423   3.951264   3.445222   2.196921   1.097047
                    6          7          8          9         10
     6  C    0.000000
     7  Cl   2.675560   0.000000
     8  Cl   3.928431   3.178649   0.000000
     9  Cl   4.381396   5.420713   3.132225   0.000000
    10  H    3.353022   5.620831   4.880337   2.810841   0.000000
    11  H    2.168324   4.835854   5.636494   4.861818   2.542349
                   11
    11  H    0.000000
 Stoichiometry    C6H2Cl3(2)
 Framework group  CS[SG(C6H2Cl3)]
 Deg. of freedom    19
 Full point group                 CS      NOp   2
 Largest Abelian subgroup         CS      NOp   2
 Largest concise Abelian subgroup C1      NOp   1
                         Standard orientation:                         
 ---------------------------------------------------------------------
 Center     Atomic      Atomic             Coordinates (Angstroms)
 Number     Number       Type             X           Y           Z
 ---------------------------------------------------------------------
      1          6           0       -1.288561   -0.296431   -0.000000
      2          6           0       -0.000000    0.301593   -0.000000
      3          6           0        1.140808   -0.535590    0.000000
      4          6           0        1.031410   -1.939613    0.000000
      5          6           0       -0.239060   -2.543077   -0.000000
      6          6           0       -1.294811   -1.671714   -0.000000
      7         17           0       -2.709227    0.599420   -0.000000
      8         17           0        0.154066    1.979768    0.000000
      9         17           0        2.692372    0.144601    0.000000
     10          1           0        1.937582   -2.563002    0.000000
     11          1           0       -0.368909   -3.632412   -0.000000
 ---------------------------------------------------------------------
 Rotational constants (GHZ):           1.5393973           0.8603289           0.5518913

 **********************************************************************

            Population analysis using the SCF Density.

 **********************************************************************

 Orbital symmetries:
 Alpha Orbitals:
       Occupied  (A') (A') (A') (A') (A') (A') (A') (A') (A') (A')
                 (A') (A') (A") (A') (A') (A") (A") (A') (A") (A')
                 (A') (A') (A") (A")
       Virtual   (A") (A") (A') (A') (A') (A") (A') (A') (A') (A')
                 (A') (A') (A') (A')
 Beta  Orbitals:
       Occupied  (A') (A') (A') (A') (A') (A') (A') (A') (A') (A')
                 (A') (A') (A") (A') (A") (A') (A") (A") (A') (A')
                 (A') (A") (A")
       Virtual   (A') (A") (A") (A') (A') (A') (A") (A') (A') (A')
                 (A') (A') (A') (A') (A')
 The electronic state is 2-A'.
 Alpha  occ. eigenvalues --   -1.48170  -1.40783  -1.39892  -1.38360  -1.17615
 Alpha  occ. eigenvalues --   -1.14786  -0.89806  -0.87209  -0.69762  -0.64248
 Alpha  occ. eigenvalues --   -0.63707  -0.58441  -0.57708  -0.55112  -0.50885
 Alpha  occ. eigenvalues --   -0.50066  -0.48597  -0.45941  -0.45504  -0.45257
 Alpha  occ. eigenvalues --   -0.44485  -0.40479  -0.38006  -0.37124
 Alpha virt. eigenvalues --   -0.01172  -0.00877   0.02503   0.03576   0.04900
 Alpha virt. eigenvalues --    0.06948   0.11622   0.12093   0.13225   0.13790
 Alpha virt. eigenvalues --    0.14554   0.16255   0.17164   0.17714
  Beta  occ. eigenvalues --   -1.47603  -1.40942  -1.39654  -1.38026  -1.17402
  Beta  occ. eigenvalues --   -1.13298  -0.89489  -0.85000  -0.69750  -0.63781
  Beta  occ. eigenvalues --   -0.62233  -0.58289  -0.57592  -0.53923  -0.51179
  Beta  occ. eigenvalues --   -0.50446  -0.47788  -0.45440  -0.45220  -0.45080
  Beta  occ. eigenvalues --   -0.44399  -0.37191  -0.36917
  Beta virt. eigenvalues --   -0.01301  -0.01211   0.00684   0.02052   0.03971
  Beta virt. eigenvalues --    0.04750   0.07905   0.11999   0.12441   0.13819
  Beta virt. eigenvalues --    0.14188   0.15590   0.16236   0.17879   0.19134
          Condensed to atoms (all electrons):
               1          2          3          4          5          6
     1  C    4.053800   0.000000   0.000000   0.000000   0.000000   0.000000
     2  C    0.000000   4.062467   0.000000   0.000000   0.000000   0.000000
     3  C    0.000000   0.000000   4.071368   0.000000   0.000000   0.000000
     4  C    0.000000   0.000000   0.000000   4.112043   0.000000   0.000000
     5  C    0.000000   0.000000   0.000000   0.000000   4.104783   0.000000
     6  C    0.000000   0.000000   0.000000   0.000000   0.000000   4.049513
     7  Cl   0.000000   0.000000   0.000000   0.000000   0.000000   0.000000
     8  Cl   0.000000   0.000000   0.000000   0.000000   0.000000   0.000000
     9  Cl   0.000000   0.000000   0.000000   0.000000   0.000000   0.000000
    10  H    0.000000   0.000000   0.000000   0.000000   0.000000   0.000000
    11  H    0.000000   0.000000   0.000000   0.000000   0.000000   0.000000
               7          8          9         10         11
     1  C    0.000000   0.000000   0.000000   0.000000   0.000000
     2  C    0.000000   0.000000   0.000000   0.000000   0.000000
     3  C    0.000000   0.000000   0.000000   0.000000   0.000000
     4  C    0.000000   0.000000   0.000000   0.000000   0.000000
     5  C    0.000000   0.000000   0.000000   0.000000   0.000000
     6  C    0.000000   0.000000   0.000000   0.000000   0.000000
     7  Cl   6.944477   0.000000   0.000000   0.000000   0.000000
     8  Cl   0.000000   6.953692   0.000000   0.000000   0.000000
     9  Cl   0.000000   0.000000   6.977929   0.000000   0.000000
    10  H    0.000000   0.000000   0.000000   0.839359   0.000000
    11  H    0.000000   0.000000   0.000000   0.000000   0.830569
          Atomic-Atomic Spin Densities.
               1          2          3          4          5          6
     1  C   -0.499096   0.000000   0.000000   0.000000   0.000000   0.000000
     2  C    0.000000   0.515074   0.000000   0.000000   0.000000   0.000000
     3  C    0.000000   0.000000  -0.476372   0.000000   0.000000   0.000000
     4  C    0.000000   0.000000   0.000000   0.525199   0.000000   0.000000
     5  C    0.000000   0.000000   0.000000   0.000000  -0.497510   0.000000
     6  C    0.000000   0.000000   0.000000   0.000000   0.000000   1.407212
     7  Cl   0.000000   0.000000   0.000000   0.000000   0.000000   0.000000
     8  Cl   0.000000   0.000000   0.000000   0.000000   0.000000   0.000000
     9  Cl   0.000000   0.000000   0.000000   0.000000   0.000000   0.000000
    10  H    0.000000   0.000000   0.000000   0.000000   0.000000   0.000000
    11  H    0.000000   0.000000   0.000000   0.000000   0.000000   0.000000
               7          8          9         10         11
     1  C    0.000000   0.000000   0.000000   0.000000   0.000000
     2  C    0.000000   0.000000   0.000000   0.000000   0.000000
     3  C    0.000000   0.000000   0.000000   0.000000   0.000000
     4  C    0.000000   0.000000   0.000000   0.000000   0.000000
     5  C    0.000000   0.000000   0.000000   0.000000   0.000000
     6  C    0.000000   0.000000   0.000000   0.000000   0.000000
     7  Cl  -0.001057   0.000000   0.000000   0.000000   0.000000
     8  Cl   0.000000   0.017143   0.000000   0.000000   0.000000
     9  Cl   0.000000   0.000000  -0.002516   0.000000   0.000000
    10  H    0.000000   0.000000   0.000000  -0.021270   0.000000
    11  H    0.000000   0.000000   0.000000   0.000000   0.033191
 Mulliken charges and spin densities:
               1          2
     1  C   -0.053800  -0.499096
     2  C   -0.062467   0.515074
     3  C   -0.071368  -0.476372
     4  C   -0.112043   0.525199
     5  C   -0.104783  -0.497510
     6  C   -0.049513   1.407212
     7  Cl   0.055523  -0.001057
     8  Cl   0.046308   0.017143
     9  Cl   0.022071  -0.002516
    10  H    0.160641  -0.021270
    11  H    0.169431   0.033191
 Sum of Mulliken charges =  -0.00000   1.00000
 Mulliken charges and spin densities with hydrogens summed into heavy atoms:
               1          2
     1  C   -0.053800  -0.499096
     2  C   -0.062467   0.515074
     3  C   -0.071368  -0.476372
     4  C    0.048598   0.503930
     5  C    0.064648  -0.464318
     6  C   -0.049513   1.407212
     7  Cl   0.055523  -0.001057
     8  Cl   0.046308   0.017143
     9  Cl   0.022071  -0.002516
 Charge=              0.0000 electrons
 Dipole moment (field-independent basis, Debye):
    X=              0.6695    Y=             -1.3509    Z=              0.0000  Tot=              1.5077
 N-N= 2.470133212004D+02 E-N=-3.464015010624D+02  KE=-1.121203756090D+02
 Symmetry A'   KE=-8.615951478339D+01
 Symmetry A"   KE=-2.596086082559D+01
 Symmetry A'   SP= 1.000000000000D+00
 Symmetry A"   SP=-2.220446049250D-15
 1\1\GINC-SH02-01N19\FOpt\UAM1\ZDO\C6H2Cl3(2)\JLAPIER\10-Dec-2025\0\\# 
 opt am1 SCF=XQC\\Neutral Radical (removed 1) _234\\0,2\C,-3.1766209295
 ,0.1385916353,0.\C,-1.968492972,0.88588495,0.\C,-0.7360625316,0.190591
 4163,0.\C,-0.6773946874,-1.2164647383,0.\C,-1.866912629,-1.9670041505,
 0.\C,-3.018963961,-1.2276397228,0.\Cl,-4.6939060186,0.8587906789,0.\Cl
 ,-2.0154757073,2.5704624325,0.\Cl,0.723405555,1.0508029806,0.\H,0.2965
 981357,-1.727444724,0.\H,-1.8660442542,-3.064050758,0.\\Version=ES64L-
 G16RevB.01\State=2-A'\HF=0.0894462\S2=1.304796\S2-1=0.\S2A=1.02264\RMS
 D=4.142e-09\RMSF=5.500e-05\Dipole=0.3248335,-0.4963254,0.\PG=CS [SG(C6
 H2Cl3)]\\@


 TRUST EVERYONE, BUT CUT THE CARDS.
 Job cpu time:       0 days  0 hours  0 minutes  8.1 seconds.
 Elapsed time:       0 days  0 hours  0 minutes 20.8 seconds.
 File lengths (MBytes):  RWF=     10 Int=      0 D2E=      0 Chk=      2 Scr=      1
 Normal termination of Gaussian 16 at Wed Dec 10 10:38:18 2025.
