 Entering Gaussian System, Link 0=g16
 Initial command:
 /share/software/user/restricted/gaussian/g16.B01/l1.exe "/home/users/jlapier/Chloroaromatics/Gau-25271.inp" -scrdir="/home/users/jlapier/Chloroaromatics/"
 Entering Link 1 = /share/software/user/restricted/gaussian/g16.B01/l1.exe PID=     25274.
  
 Copyright (c) 1988-2017, Gaussian, Inc.  All Rights Reserved.
  
 This is part of the Gaussian(R) 16 program.  It is based on
 the Gaussian(R) 09 system (copyright 2009, Gaussian, Inc.),
 the Gaussian(R) 03 system (copyright 2003, Gaussian, Inc.),
 the Gaussian(R) 98 system (copyright 1998, Gaussian, Inc.),
 the Gaussian(R) 94 system (copyright 1995, Gaussian, Inc.),
 the Gaussian 92(TM) system (copyright 1992, Gaussian, Inc.),
 the Gaussian 90(TM) system (copyright 1990, Gaussian, Inc.),
 the Gaussian 88(TM) system (copyright 1988, Gaussian, Inc.),
 the Gaussian 86(TM) system (copyright 1986, Carnegie Mellon
 University), and the Gaussian 82(TM) system (copyright 1983,
 Carnegie Mellon University). Gaussian is a federally registered
 trademark of Gaussian, Inc.
  
 This software contains proprietary and confidential information,
 including trade secrets, belonging to Gaussian, Inc.
  
 This software is provided under written license and may be
 used, copied, transmitted, or stored only in accord with that
 written license.
  
 The following legend is applicable only to US Government
 contracts under FAR:
  
                    RESTRICTED RIGHTS LEGEND
  
 Use, reproduction and disclosure by the US Government is
 subject to restrictions as set forth in subparagraphs (a)
 and (c) of the Commercial Computer Software - Restricted
 Rights clause in FAR 52.227-19.
  
 Gaussian, Inc.
 340 Quinnipiac St., Bldg. 40, Wallingford CT 06492
  
  
 ---------------------------------------------------------------
 Warning -- This program may not be used in any manner that
 competes with the business of Gaussian, Inc. or will provide
 assistance to any competitor of Gaussian, Inc.  The licensee
 of this program is prohibited from giving any competitor of
 Gaussian, Inc. access to this program.  By using this program,
 the user acknowledges that Gaussian, Inc. is engaged in the
 business of creating and licensing software in the field of
 computational chemistry and represents and warrants to the
 licensee that it is not a competitor of Gaussian, Inc. and that
 it will not use this program in any manner prohibited above.
 ---------------------------------------------------------------
  

 Cite this work as:
 Gaussian 16, Revision B.01,
 M. J. Frisch, G. W. Trucks, H. B. Schlegel, G. E. Scuseria, 
 M. A. Robb, J. R. Cheeseman, G. Scalmani, V. Barone, 
 G. A. Petersson, H. Nakatsuji, X. Li, M. Caricato, A. V. Marenich, 
 J. Bloino, B. G. Janesko, R. Gomperts, B. Mennucci, H. P. Hratchian, 
 J. V. Ortiz, A. F. Izmaylov, J. L. Sonnenberg, D. Williams-Young, 
 F. Ding, F. Lipparini, F. Egidi, J. Goings, B. Peng, A. Petrone, 
 T. Henderson, D. Ranasinghe, V. G. Zakrzewski, J. Gao, N. Rega, 
 G. Zheng, W. Liang, M. Hada, M. Ehara, K. Toyota, R. Fukuda, 
 J. Hasegawa, M. Ishida, T. Nakajima, Y. Honda, O. Kitao, H. Nakai, 
 T. Vreven, K. Throssell, J. A. Montgomery, Jr., J. E. Peralta, 
 F. Ogliaro, M. J. Bearpark, J. J. Heyd, E. N. Brothers, K. N. Kudin, 
 V. N. Staroverov, T. A. Keith, R. Kobayashi, J. Normand, 
 K. Raghavachari, A. P. Rendell, J. C. Burant, S. S. Iyengar, 
 J. Tomasi, M. Cossi, J. M. Millam, M. Klene, C. Adamo, R. Cammi, 
 J. W. Ochterski, R. L. Martin, K. Morokuma, O. Farkas, 
 J. B. Foresman, and D. J. Fox, Gaussian, Inc., Wallingford CT, 2016.
 
 ******************************************
 Gaussian 16:  ES64L-G16RevB.01 20-Dec-2017
                 8-Dec-2025 
 ******************************************
 %mem=2GB
 %nprocshare=1
 Will use up to    1 processors via shared memory.
 %chk=geometry_chks/12345_ClBzAnionIntermediate.chk
 ---------------------------
 # opt am1 SCF(maxcyc=10000)
 ---------------------------
 1/18=20,19=15,26=1,38=1/1,3;
 2/9=110,12=2,17=6,18=5,40=1/2;
 3/5=2,25=1,41=700000,71=1/1,2,3;
 4/35=1/1;
 5/5=2,7=10000,35=1,38=5/2;
 6/7=2,8=2,9=2,10=2,28=1/1;
 7//1,2,3,16;
 1/18=20,19=15,26=1/3(2);
 2/9=110/2;
 99//99;
 2/9=110/2;
 3/5=2,25=1,41=700000,71=1,135=20/1,2,3;
 4/5=5,16=3,35=1/1;
 5/5=2,7=10000,35=1,38=5/2;
 7//1,2,3,16;
 1/18=20,19=15,26=1/3(-5);
 2/9=110/2;
 6/7=2,8=2,9=2,10=2,19=2,28=1/1;
 99/9=1/99;
 -------------------------------------
 Anion Intermediate (removed 6) 12345_
 -------------------------------------
 Symbolic Z-matrix:
 Charge = -1 Multiplicity = 1
 C                    -3.20928   0.19943   0. 
 C                    -2.0115    0.93555   0. 
 C                    -0.77511   0.2663    0. 
 C                    -0.7365   -1.13907   0. 
 C                    -1.93429  -1.87519   0. 
 C                    -3.17067  -1.20594   0. 
 Cl                   -4.67483  -2.13035   0. 
 Cl                   -4.76193   1.03987   0. 
 Cl                    0.81614  -1.97951   0. 
 Cl                   -1.8858   -3.64003   0. 
 Cl                   -2.05998   2.7004    0. 
 

 GradGradGradGradGradGradGradGradGradGradGradGradGradGradGradGradGradGrad
 Berny optimization.
 Initialization pass.
                           ----------------------------
                           !    Initial Parameters    !
                           ! (Angstroms and Degrees)  !
 --------------------------                            --------------------------
 ! Name  Definition              Value          Derivative Info.                !
 --------------------------------------------------------------------------------
 ! R1    R(1,2)                  1.4059         estimate D2E/DX2                !
 ! R2    R(1,6)                  1.4059         estimate D2E/DX2                !
 ! R3    R(1,8)                  1.7655         estimate D2E/DX2                !
 ! R4    R(2,3)                  1.4059         estimate D2E/DX2                !
 ! R5    R(2,11)                 1.7655         estimate D2E/DX2                !
 ! R6    R(3,4)                  1.4059         estimate D2E/DX2                !
 ! R7    R(4,5)                  1.4059         estimate D2E/DX2                !
 ! R8    R(4,9)                  1.7655         estimate D2E/DX2                !
 ! R9    R(5,6)                  1.4059         estimate D2E/DX2                !
 ! R10   R(5,10)                 1.7655         estimate D2E/DX2                !
 ! R11   R(6,7)                  1.7655         estimate D2E/DX2                !
 ! A1    A(2,1,6)              119.9999         estimate D2E/DX2                !
 ! A2    A(2,1,8)              119.9999         estimate D2E/DX2                !
 ! A3    A(6,1,8)              120.0001         estimate D2E/DX2                !
 ! A4    A(1,2,3)              120.0            estimate D2E/DX2                !
 ! A5    A(1,2,11)             120.0001         estimate D2E/DX2                !
 ! A6    A(3,2,11)             119.9999         estimate D2E/DX2                !
 ! A7    A(2,3,4)              120.0001         estimate D2E/DX2                !
 ! A8    A(3,4,5)              119.9997         estimate D2E/DX2                !
 ! A9    A(3,4,9)              120.0003         estimate D2E/DX2                !
 ! A10   A(5,4,9)              120.0            estimate D2E/DX2                !
 ! A11   A(4,5,6)              120.0            estimate D2E/DX2                !
 ! A12   A(4,5,10)             119.9996         estimate D2E/DX2                !
 ! A13   A(6,5,10)             120.0004         estimate D2E/DX2                !
 ! A14   A(1,6,5)              120.0003         estimate D2E/DX2                !
 ! A15   A(1,6,7)              119.9999         estimate D2E/DX2                !
 ! A16   A(5,6,7)              119.9998         estimate D2E/DX2                !
 ! D1    D(6,1,2,3)              0.0            estimate D2E/DX2                !
 ! D2    D(6,1,2,11)           180.0            estimate D2E/DX2                !
 ! D3    D(8,1,2,3)            180.0            estimate D2E/DX2                !
 ! D4    D(8,1,2,11)             0.0            estimate D2E/DX2                !
 ! D5    D(2,1,6,5)              0.0            estimate D2E/DX2                !
 ! D6    D(2,1,6,7)            180.0            estimate D2E/DX2                !
 ! D7    D(8,1,6,5)            180.0            estimate D2E/DX2                !
 ! D8    D(8,1,6,7)              0.0            estimate D2E/DX2                !
 ! D9    D(1,2,3,4)              0.0            estimate D2E/DX2                !
 ! D10   D(11,2,3,4)           180.0            estimate D2E/DX2                !
 ! D11   D(2,3,4,5)              0.0            estimate D2E/DX2                !
 ! D12   D(2,3,4,9)            180.0            estimate D2E/DX2                !
 ! D13   D(3,4,5,6)              0.0            estimate D2E/DX2                !
 ! D14   D(3,4,5,10)           180.0            estimate D2E/DX2                !
 ! D15   D(9,4,5,6)            180.0            estimate D2E/DX2                !
 ! D16   D(9,4,5,10)             0.0            estimate D2E/DX2                !
 ! D17   D(4,5,6,1)              0.0            estimate D2E/DX2                !
 ! D18   D(4,5,6,7)            180.0            estimate D2E/DX2                !
 ! D19   D(10,5,6,1)           180.0            estimate D2E/DX2                !
 ! D20   D(10,5,6,7)             0.0            estimate D2E/DX2                !
 --------------------------------------------------------------------------------
 Trust Radius=3.00D-01 FncErr=1.00D-07 GrdErr=1.00D-07 EigMax=2.50D+02 EigMin=1.00D-04
 Number of steps in this run=     57 maximum allowed number of steps=    100.
 GradGradGradGradGradGradGradGradGradGradGradGradGradGradGradGradGradGrad

                          Input orientation:                          
 ---------------------------------------------------------------------
 Center     Atomic      Atomic             Coordinates (Angstroms)
 Number     Number       Type             X           Y           Z
 ---------------------------------------------------------------------
      1          6           0       -3.209280    0.199430    0.000000
      2          6           0       -2.011500    0.935550    0.000000
      3          6           0       -0.775110    0.266300    0.000000
      4          6           0       -0.736500   -1.139070    0.000000
      5          6           0       -1.934290   -1.875190    0.000000
      6          6           0       -3.170670   -1.205940    0.000000
      7         17           0       -4.674830   -2.130350    0.000000
      8         17           0       -4.761930    1.039870    0.000000
      9         17           0        0.816140   -1.979510    0.000000
     10         17           0       -1.885800   -3.640030    0.000000
     11         17           0       -2.059980    2.700400    0.000000
 ---------------------------------------------------------------------
                    Distance matrix (angstroms):
                    1          2          3          4          5
     1  C    0.000000
     2  C    1.405898   0.000000
     3  C    2.435088   1.405900   0.000000
     4  C    2.811801   2.435092   1.405900   0.000000
     5  C    2.435087   2.811800   2.435093   1.405907   0.000000
     6  C    1.405900   2.435088   2.811796   2.435088   1.405892
     7  Cl   2.752401   4.061166   4.577308   4.061167   2.752393
     8  Cl   1.765520   2.752408   4.061175   4.577321   4.061173
     9  Cl   4.577312   4.061173   2.752406   1.765511   2.752408
    10  Cl   4.061164   4.577306   4.061163   2.752397   1.765506
    11  Cl   2.752406   1.765516   2.752405   4.061173   4.577316
                    6          7          8          9         10
     6  C    0.000000
     7  Cl   1.765512   0.000000
     8  Cl   2.752412   3.171416   0.000000
     9  Cl   4.061165   5.493041   6.342832   0.000000
    10  Cl   2.752396   3.171407   5.493049   3.171404   0.000000
    11  Cl   4.061173   5.493049   3.171418   5.493052   6.342822
                   11
    11  Cl   0.000000
 Stoichiometry    C6Cl5(1-)
 Framework group  CS[SG(C6Cl5)]
 Deg. of freedom    19
 Full point group                 CS      NOp   2
 Largest Abelian subgroup         CS      NOp   2
 Largest concise Abelian subgroup C1      NOp   1
                         Standard orientation:                         
 ---------------------------------------------------------------------
 Center     Atomic      Atomic             Coordinates (Angstroms)
 Number     Number       Type             X           Y           Z
 ---------------------------------------------------------------------
      1          6           0       -0.385875   -1.183113    0.000000
      2          6           0       -1.603419   -0.480165    0.000000
      3          6           0       -1.603419    0.925735    0.000000
      4          6           0       -0.385875    1.628688    0.000000
      5          6           0        0.831674    0.925731    0.000000
      6          6           0        0.831669   -0.480161    0.000000
      7         17           0        2.360647   -1.362917    0.000000
      8         17           0       -0.385875   -2.948633    0.000000
      9         17           0       -0.385869    3.394199    0.000000
     10         17           0        2.360644    1.808490    0.000000
     11         17           0       -3.132402   -1.362920    0.000000
 ---------------------------------------------------------------------
 Rotational constants (GHZ):           0.6973114           0.4487103           0.2730235
 Standard basis: VSTO-6G (5D, 7F)
 There are    33 symmetry adapted cartesian basis functions of A'  symmetry.
 There are    11 symmetry adapted cartesian basis functions of A"  symmetry.
 There are    33 symmetry adapted basis functions of A'  symmetry.
 There are    11 symmetry adapted basis functions of A"  symmetry.
    44 basis functions,   264 primitive gaussians,    44 cartesian basis functions
    30 alpha electrons       30 beta electrons
       nuclear repulsion energy       349.2652747444 Hartrees.
 Integral buffers will be    131072 words long.
 Regular integral format.
 Two-electron integral symmetry is turned off.
 Do NDO integrals.
 One-electron integrals computed using PRISM.
 NBasis=    44 RedAO= T EigKep=  1.00D+00  NBF=    33    11
 NBsUse=    44 1.00D-06 EigRej= -1.00D+00 NBFU=    33    11
 Simple Huckel Guess.
 Initial guess orbital symmetries:
       Occupied  (A') (A') (A') (A') (A') (A') (A') (A') (A') (A')
                 (A') (A") (A') (A') (A') (A") (A') (A") (A') (A")
                 (A") (A') (A') (A') (A") (A') (A') (A") (A") (A')
       Virtual   (A") (A") (A") (A') (A') (A') (A') (A') (A') (A')
                 (A') (A') (A') (A')
 The electronic state of the initial guess is 1-A'.
 Keep J ints in memory in canonical form, NReq=865421.
 Overlap will be assumed to be unity.
 Requested convergence on RMS density matrix=1.00D-08 within**** cycles.
 Requested convergence on MAX density matrix=1.00D-06.
 Requested convergence on             energy=1.00D-06.
 No special actions if energy rises.
 Fock symm off for IB=2 I1=    1 I=   34 J=   33 Cut=1.00D-07 Err=9.57D-03
 Fock matrix is not symmetric: symmetry in diagonalization turned off.
 SCF Done:  E(RAM1) =  0.625915911331E-02 A.U. after   15 cycles
            NFock= 14  Conv=0.94D-08     -V/T= 1.0000

 **********************************************************************

            Population analysis using the SCF Density.

 **********************************************************************

 Orbital symmetries:
       Occupied  (A') (A') (A') (A') (A') (A') (A') (A') (A') (A')
                 (A') (A') (A') (A') (A") (A') (A") (A') (A") (A")
                 (A") (A') (A') (A') (A') (A') (A") (A") (A") (A')
       Virtual   (A") (A') (A") (A') (A') (A') (A') (A") (A') (A')
                 (A') (A') (A') (A')
 The electronic state is 1-A'.
 Alpha  occ. eigenvalues --   -1.30054  -1.24842  -1.24262  -1.22973  -1.22327
 Alpha  occ. eigenvalues --   -1.19879  -0.98612  -0.96170  -0.71384  -0.69846
 Alpha  occ. eigenvalues --   -0.53133  -0.48334  -0.47437  -0.43239  -0.42247
 Alpha  occ. eigenvalues --   -0.40059  -0.36425  -0.35627  -0.34815  -0.33014
 Alpha  occ. eigenvalues --   -0.32555  -0.32510  -0.31820  -0.30651  -0.29826
 Alpha  occ. eigenvalues --   -0.28439  -0.27816  -0.20613  -0.19048  -0.14688
 Alpha virt. eigenvalues --    0.13717   0.14922   0.15251   0.16389   0.16999
 Alpha virt. eigenvalues --    0.19258   0.20126   0.24972   0.28978   0.29019
 Alpha virt. eigenvalues --    0.30499   0.31216   0.34482   0.36930
          Condensed to atoms (all electrons):
               1          2          3          4          5          6
     1  C    4.033092   0.000000   0.000000   0.000000   0.000000   0.000000
     2  C    0.000000   4.041528   0.000000   0.000000   0.000000   0.000000
     3  C    0.000000   0.000000   4.314218   0.000000   0.000000   0.000000
     4  C    0.000000   0.000000   0.000000   4.041535   0.000000   0.000000
     5  C    0.000000   0.000000   0.000000   0.000000   4.033095   0.000000
     6  C    0.000000   0.000000   0.000000   0.000000   0.000000   4.109125
     7  Cl   0.000000   0.000000   0.000000   0.000000   0.000000   0.000000
     8  Cl   0.000000   0.000000   0.000000   0.000000   0.000000   0.000000
     9  Cl   0.000000   0.000000   0.000000   0.000000   0.000000   0.000000
    10  Cl   0.000000   0.000000   0.000000   0.000000   0.000000   0.000000
    11  Cl   0.000000   0.000000   0.000000   0.000000   0.000000   0.000000
               7          8          9         10         11
     1  C    0.000000   0.000000   0.000000   0.000000   0.000000
     2  C    0.000000   0.000000   0.000000   0.000000   0.000000
     3  C    0.000000   0.000000   0.000000   0.000000   0.000000
     4  C    0.000000   0.000000   0.000000   0.000000   0.000000
     5  C    0.000000   0.000000   0.000000   0.000000   0.000000
     6  C    0.000000   0.000000   0.000000   0.000000   0.000000
     7  Cl   7.071397   0.000000   0.000000   0.000000   0.000000
     8  Cl   0.000000   7.087753   0.000000   0.000000   0.000000
     9  Cl   0.000000   0.000000   7.090254   0.000000   0.000000
    10  Cl   0.000000   0.000000   0.000000   7.087746   0.000000
    11  Cl   0.000000   0.000000   0.000000   0.000000   7.090257
 Mulliken charges:
               1
     1  C   -0.033092
     2  C   -0.041528
     3  C   -0.314218
     4  C   -0.041535
     5  C   -0.033095
     6  C   -0.109125
     7  Cl  -0.071397
     8  Cl  -0.087753
     9  Cl  -0.090254
    10  Cl  -0.087746
    11  Cl  -0.090257
 Sum of Mulliken charges =  -1.00000
 Mulliken charges with hydrogens summed into heavy atoms:
               1
     1  C   -0.033092
     2  C   -0.041528
     3  C   -0.314218
     4  C   -0.041535
     5  C   -0.033095
     6  C   -0.109125
     7  Cl  -0.071397
     8  Cl  -0.087753
     9  Cl  -0.090254
    10  Cl  -0.087746
    11  Cl  -0.090257
 Charge=             -1.0000 electrons
 Dipole moment (field-independent basis, Debye):
    X=              3.9652    Y=             -2.2893    Z=              0.0000  Tot=              4.5786
 N-N= 3.492652747444D+02 E-N=-5.056583819979D+02  KE=-1.576067529908D+02
 Symmetry A'   KE=-1.203412805076D+02
 Symmetry A"   KE=-3.726547248323D+01
 Calling FoFJK, ICntrl=      2127 FMM=F ISym2X=1 I1Cent= 0 IOpClX= 0 NMat=1 NMatS=1 NMatT=0.
 ***** Axes restored to original set *****
 -------------------------------------------------------------------
 Center     Atomic                   Forces (Hartrees/Bohr)
 Number     Number              X              Y              Z
 -------------------------------------------------------------------
      1        6          -0.015589369    0.014756506    0.000000000
      2        6           0.012904296   -0.006292332    0.000000000
      3        6          -0.009416611   -0.005789789    0.000000000
      4        6           0.000209289    0.014355763    0.000000000
      5        6           0.006134047   -0.020569155   -0.000000000
      6        6          -0.015100897   -0.009273808   -0.000000000
      7       17           0.026263710    0.016141370   -0.000000000
      8       17           0.022707980   -0.015142464   -0.000000000
      9       17          -0.026799102    0.015742239   -0.000000000
     10       17          -0.003252528    0.027092993   -0.000000000
     11       17           0.001939184   -0.031021323   -0.000000000
 -------------------------------------------------------------------
 Cartesian Forces:  Max     0.031021323 RMS     0.013642575

 GradGradGradGradGradGradGradGradGradGradGradGradGradGradGradGradGradGrad
 Berny optimization.
 FormGI is forming the generalized inverse of G from B-inverse, IUseBI=4.
 Internal  Forces:  Max     0.031062874 RMS     0.012523693
 Search for a local minimum.
 Step number   1 out of a maximum of   57
 All quantities printed in internal units (Hartrees-Bohrs-Radians)
 Mixed Optimization -- RFO/linear search
 Second derivative matrix not updated -- first step.
 ITU=  0
     Eigenvalues ---    0.02011   0.02011   0.02011   0.02011   0.02011
     Eigenvalues ---    0.02011   0.02011   0.02011   0.25000   0.25000
     Eigenvalues ---    0.25000   0.25000   0.25000   0.25000   0.25000
     Eigenvalues ---    0.25000   0.29033   0.29033   0.29033   0.29033
     Eigenvalues ---    0.29034   0.41211   0.41600   0.44656   0.44657
     Eigenvalues ---    0.44657   0.44657
 RFO step:  Lambda=-2.13191158D-02 EMin= 2.01064753D-02
 Linear search not attempted -- first point.
 Iteration  1 RMS(Cart)=  0.05167662 RMS(Int)=  0.00028728
 Iteration  2 RMS(Cart)=  0.00033252 RMS(Int)=  0.00002331
 Iteration  3 RMS(Cart)=  0.00000013 RMS(Int)=  0.00002331
 ClnCor:  largest displacement from symmetrization is 1.63D-10 for atom     9.
 Variable       Old X    -DE/DX   Delta X   Delta X   Delta X     New X
                                 (Linear)    (Quad)   (Total)
    R1        2.65676  -0.01242   0.00000  -0.02654  -0.02654   2.63022
    R2        2.65677  -0.01494   0.00000  -0.03088  -0.03091   2.62585
    R3        3.33635  -0.02718   0.00000  -0.08721  -0.08721   3.24914
    R4        2.65677  -0.02888   0.00000  -0.06276  -0.06273   2.59404
    R5        3.33634  -0.03106   0.00000  -0.09967  -0.09967   3.23667
    R6        2.65677  -0.02888   0.00000  -0.06277  -0.06274   2.59403
    R7        2.65678  -0.01242   0.00000  -0.02655  -0.02655   2.63023
    R8        3.33633  -0.03106   0.00000  -0.09967  -0.09967   3.23667
    R9        2.65675  -0.01493   0.00000  -0.03087  -0.03090   2.62585
   R10        3.33632  -0.02717   0.00000  -0.08719  -0.08719   3.24914
   R11        3.33633  -0.03083   0.00000  -0.09892  -0.09892   3.23742
    A1        2.09439  -0.00434   0.00000  -0.01386  -0.01390   2.08050
    A2        2.09439   0.00635   0.00000   0.02234   0.02236   2.11676
    A3        2.09440  -0.00201   0.00000  -0.00848  -0.00847   2.08593
    A4        2.09439   0.01075   0.00000   0.03806   0.03808   2.13248
    A5        2.09440  -0.00356   0.00000  -0.01235  -0.01236   2.08204
    A6        2.09439  -0.00719   0.00000  -0.02571  -0.02572   2.06867
    A7        2.09440  -0.00941   0.00000  -0.03976  -0.03967   2.05473
    A8        2.09439   0.01075   0.00000   0.03806   0.03809   2.13248
    A9        2.09440  -0.00719   0.00000  -0.02571  -0.02573   2.06867
   A10        2.09440  -0.00356   0.00000  -0.01235  -0.01236   2.08204
   A11        2.09439  -0.00434   0.00000  -0.01386  -0.01390   2.08050
   A12        2.09439   0.00635   0.00000   0.02235   0.02236   2.11675
   A13        2.09440  -0.00201   0.00000  -0.00848  -0.00847   2.08594
   A14        2.09440  -0.00342   0.00000  -0.00863  -0.00870   2.08570
   A15        2.09439   0.00171   0.00000   0.00431   0.00435   2.09874
   A16        2.09439   0.00171   0.00000   0.00432   0.00435   2.09875
    D1        0.00000  -0.00000   0.00000  -0.00000   0.00000   0.00000
    D2        3.14159  -0.00000   0.00000  -0.00000   0.00000   3.14159
    D3        3.14159   0.00000   0.00000   0.00000   0.00000   3.14159
    D4        0.00000  -0.00000   0.00000  -0.00000   0.00000   0.00000
    D5        0.00000   0.00000   0.00000   0.00000   0.00000   0.00000
    D6        3.14159   0.00000   0.00000   0.00000   0.00000   3.14159
    D7        3.14159  -0.00000   0.00000  -0.00000   0.00000   3.14159
    D8        0.00000  -0.00000   0.00000  -0.00000   0.00000   0.00000
    D9        0.00000   0.00000   0.00000   0.00000   0.00000   0.00000
   D10        3.14159   0.00000   0.00000   0.00000   0.00000   3.14159
   D11        0.00000   0.00000   0.00000   0.00000   0.00000   0.00000
   D12        3.14159  -0.00000   0.00000  -0.00000   0.00000   3.14159
   D13        0.00000  -0.00000   0.00000  -0.00000   0.00000   0.00000
   D14        3.14159  -0.00000   0.00000  -0.00000   0.00000   3.14159
   D15        3.14159   0.00000   0.00000   0.00000   0.00000   3.14159
   D16        0.00000   0.00000   0.00000   0.00000   0.00000   0.00000
   D17        0.00000  -0.00000   0.00000  -0.00000   0.00000   0.00000
   D18        3.14159  -0.00000   0.00000  -0.00000   0.00000   3.14159
   D19        3.14159   0.00000   0.00000   0.00000   0.00000   3.14159
   D20        0.00000   0.00000   0.00000   0.00000   0.00000   0.00000
         Item               Value     Threshold  Converged?
 Maximum Force            0.031063     0.000450     NO 
 RMS     Force            0.012524     0.000300     NO 
 Maximum Displacement     0.181181     0.001800     NO 
 RMS     Displacement     0.051682     0.001200     NO 
 Predicted change in Energy=-1.134000D-02
 GradGradGradGradGradGradGradGradGradGradGradGradGradGradGradGradGradGrad

                          Input orientation:                          
 ---------------------------------------------------------------------
 Center     Atomic      Atomic             Coordinates (Angstroms)
 Number     Number       Type             X           Y           Z
 ---------------------------------------------------------------------
      1          6           0       -3.199680    0.185143    0.000000
      2          6           0       -2.000765    0.892151    0.000000
      3          6           0       -0.780845    0.262774    0.000000
      4          6           0       -0.770372   -1.109888    0.000000
      5          6           0       -1.942696   -1.860170    0.000000
      6          6           0       -3.167564   -1.204027    0.000000
      7         17           0       -4.627131   -2.101026    0.000000
      8         17           0       -4.715100    0.997386    0.000000
      9         17           0        0.740662   -1.916336    0.000000
     10         17           0       -1.902545   -3.579070    0.000000
     11         17           0       -2.037715    2.604523    0.000000
 ---------------------------------------------------------------------
                    Distance matrix (angstroms):
                    1          2          3          4          5
     1  C    0.000000
     2  C    1.391854   0.000000
     3  C    2.420080   1.372704   0.000000
     4  C    2.752933   2.349899   1.372702   0.000000
     5  C    2.400690   2.752933   2.420080   1.391858   0.000000
     6  C    1.389541   2.399037   2.801416   2.399040   1.389541
     7  Cl   2.695215   3.982073   4.514583   3.982078   2.695218
     8  Cl   1.719371   2.716374   4.002251   4.472302   3.981438
     9  Cl   4.465703   3.924667   2.657725   1.712770   2.683945
    10  Cl   3.981439   4.472300   4.002247   2.716372   1.719369
    11  Cl   2.683946   1.712771   2.657727   3.924667   4.465704
                    6          7          8          9         10
     6  C    0.000000
     7  Cl   1.713168   0.000000
     8  Cl   2.690927   3.099660   0.000000
     9  Cl   3.972607   5.370968   6.185071   0.000000
    10  Cl   2.690930   3.099674   5.371630   3.122696   0.000000
    11  Cl   3.972608   5.370965   3.122704   5.306368   6.185071
                   11
    11  Cl   0.000000
 Stoichiometry    C6Cl5(1-)
 Framework group  CS[SG(C6Cl5)]
 Deg. of freedom    19
 Full point group                 CS      NOp   2
 Largest Abelian subgroup         CS      NOp   2
 Largest concise Abelian subgroup C1      NOp   1
                         Standard orientation:                         
 ---------------------------------------------------------------------
 Center     Atomic      Atomic             Coordinates (Angstroms)
 Number     Number       Type             X           Y           Z
 ---------------------------------------------------------------------
      1          6           0       -1.200345   -0.259303    0.000000
      2          6           0       -1.174949    1.132319   -0.000000
      3          6           0        0.000001    1.842115   -0.000000
      4          6           0        1.174949    1.132322   -0.000000
      5          6           0        1.200345   -0.259304    0.000000
      6          6           0       -0.000000   -0.959301    0.000000
      7         17           0       -0.000004   -2.672468    0.000000
      8         17           0       -2.685813   -1.125108    0.000000
      9         17           0        2.653184    1.997424   -0.000000
     10         17           0        2.685817   -1.125101    0.000000
     11         17           0       -2.653184    1.997425   -0.000000
 ---------------------------------------------------------------------
 Rotational constants (GHZ):           0.7204688           0.4747423           0.2861729
 Standard basis: VSTO-6G (5D, 7F)
 There are    33 symmetry adapted cartesian basis functions of A'  symmetry.
 There are    11 symmetry adapted cartesian basis functions of A"  symmetry.
 There are    33 symmetry adapted basis functions of A'  symmetry.
 There are    11 symmetry adapted basis functions of A"  symmetry.
    44 basis functions,   264 primitive gaussians,    44 cartesian basis functions
    30 alpha electrons       30 beta electrons
       nuclear repulsion energy       354.1618170530 Hartrees.
 Integral buffers will be    131072 words long.
 Regular integral format.
 Two-electron integral symmetry is turned off.
 Do NDO integrals.
 One-electron integrals computed using PRISM.
 NBasis=    44 RedAO= T EigKep=  1.00D+00  NBF=    33    11
 NBsUse=    44 1.00D-06 EigRej= -1.00D+00 NBFU=    33    11
 Initial guess from the checkpoint file:  "geometry_chks/12345_ClBzAnionIntermediate.chk"
 B after Tr=    -0.000000    0.000000   -0.000000
         Rot=    0.866026    0.000000   -0.000000    0.500000 Ang=  60.00 deg.
 Initial guess orbital symmetries:
       Occupied  (A') (A') (A') (A') (A') (A') (A') (A') (A') (A')
                 (A') (A') (A') (A') (A") (A') (A") (A') (A") (A")
                 (A") (A') (A') (A') (A') (A') (A") (A") (A") (A')
       Virtual   (A") (A') (A") (A') (A') (A') (A') (A") (A') (A')
                 (A') (A') (A') (A')
 Keep J ints in memory in canonical form, NReq=865421.
 Overlap will be assumed to be unity.
 Requested convergence on RMS density matrix=1.00D-08 within**** cycles.
 Requested convergence on MAX density matrix=1.00D-06.
 Requested convergence on             energy=1.00D-06.
 No special actions if energy rises.
 Fock symm off for IB=2 I1=    1 I=   34 J=    4 Cut=1.00D-07 Err=1.86D-03
 Fock matrix is not symmetric: symmetry in diagonalization turned off.
 SCF Done:  E(RAM1) = -0.225064368948E-02 A.U. after   13 cycles
            NFock= 12  Conv=0.70D-08     -V/T= 1.0000
 Calling FoFJK, ICntrl=      2127 FMM=F ISym2X=1 I1Cent= 0 IOpClX= 0 NMat=1 NMatS=1 NMatT=0.
 ***** Axes restored to original set *****
 -------------------------------------------------------------------
 Center     Atomic                   Forces (Hartrees/Bohr)
 Number     Number              X              Y              Z
 -------------------------------------------------------------------
      1        6          -0.018164082    0.014187071    0.000000000
      2        6          -0.000042974    0.017508709    0.000000000
      3        6           0.009783284    0.006014334    0.000000000
      4        6           0.015598186   -0.007949622    0.000000000
      5        6           0.004453848   -0.022611405    0.000000000
      6        6          -0.017398866   -0.010694128   -0.000000000
      7       17           0.000596371    0.000365895   -0.000000000
      8       17           0.002189447   -0.001205936   -0.000000000
      9       17           0.003146291   -0.001675337   -0.000000000
     10       17          -0.000087816    0.002497575   -0.000000000
     11       17          -0.000073689    0.003562843   -0.000000000
 -------------------------------------------------------------------
 Cartesian Forces:  Max     0.022611405 RMS     0.008280561

 GradGradGradGradGradGradGradGradGradGradGradGradGradGradGradGradGradGrad
 Berny optimization.
 Using GEDIIS/GDIIS optimizer.
 FormGI is forming the generalized inverse of G from B-inverse, IUseBI=4.
 Internal  Forces:  Max     0.022325968 RMS     0.006990132
 Search for a local minimum.
 Step number   2 out of a maximum of   57
 All quantities printed in internal units (Hartrees-Bohrs-Radians)
 Mixed Optimization -- RFO/linear search
 Update second derivatives using D2CorX and points    1    2
 DE= -8.51D-03 DEPred=-1.13D-02 R= 7.50D-01
 TightC=F SS=  1.41D+00  RLast= 2.53D-01 DXNew= 5.0454D-01 7.5774D-01
 Trust test= 7.50D-01 RLast= 2.53D-01 DXMaxT set to 5.05D-01
 ITU=  1  0
 Use linear search instead of GDIIS.
     Eigenvalues ---    0.02011   0.02011   0.02011   0.02011   0.02011
     Eigenvalues ---    0.02011   0.02011   0.02011   0.23527   0.25000
     Eigenvalues ---    0.25000   0.25000   0.25000   0.25000   0.25000
     Eigenvalues ---    0.25458   0.25554   0.29033   0.29033   0.29034
     Eigenvalues ---    0.29280   0.41027   0.41189   0.44603   0.44656
     Eigenvalues ---    0.44657   0.70687
 RFO step:  Lambda=-2.67718269D-03 EMin= 2.01064734D-02
 Quartic linear search produced a step of -0.18149.
 Iteration  1 RMS(Cart)=  0.01299989 RMS(Int)=  0.00003517
 Iteration  2 RMS(Cart)=  0.00003827 RMS(Int)=  0.00000783
 Iteration  3 RMS(Cart)=  0.00000000 RMS(Int)=  0.00000783
 ClnCor:  largest displacement from symmetrization is 2.71D-11 for atom    10.
 Variable       Old X    -DE/DX   Delta X   Delta X   Delta X     New X
                                 (Linear)    (Quad)   (Total)
    R1        2.63022   0.01666   0.00482   0.02175   0.02656   2.65679
    R2        2.62585   0.02233   0.00561   0.03097   0.03659   2.66244
    R3        3.24914  -0.00250   0.01583  -0.03610  -0.02027   3.22887
    R4        2.59404   0.01781   0.01139   0.01188   0.02326   2.61729
    R5        3.23667   0.00356   0.01809  -0.02335  -0.00526   3.23141
    R6        2.59403   0.01782   0.01139   0.01189   0.02326   2.61729
    R7        2.63023   0.01666   0.00482   0.02174   0.02656   2.65679
    R8        3.23667   0.00356   0.01809  -0.02335  -0.00526   3.23141
    R9        2.62585   0.02232   0.00561   0.03097   0.03659   2.66244
   R10        3.24914  -0.00250   0.01582  -0.03609  -0.02027   3.22887
   R11        3.23742  -0.00070   0.01795  -0.03499  -0.01704   3.22038
    A1        2.08050  -0.00112   0.00252  -0.00770  -0.00516   2.07533
    A2        2.11676   0.00061  -0.00406   0.00923   0.00517   2.12192
    A3        2.08593   0.00051   0.00154  -0.00153  -0.00000   2.08593
    A4        2.13248  -0.00286  -0.00691   0.00322  -0.00370   2.12877
    A5        2.08204   0.00143   0.00224   0.00067   0.00292   2.08496
    A6        2.06867   0.00142   0.00467  -0.00389   0.00078   2.06945
    A7        2.05473   0.00624   0.00720   0.00515   0.01232   2.06705
    A8        2.13248  -0.00286  -0.00691   0.00322  -0.00370   2.12877
    A9        2.06867   0.00142   0.00467  -0.00390   0.00078   2.06945
   A10        2.08204   0.00143   0.00224   0.00068   0.00292   2.08496
   A11        2.08050  -0.00112   0.00252  -0.00770  -0.00516   2.07533
   A12        2.11675   0.00061  -0.00406   0.00924   0.00517   2.12192
   A13        2.08594   0.00051   0.00154  -0.00154  -0.00001   2.08593
   A14        2.08570   0.00172   0.00158   0.00380   0.00541   2.09111
   A15        2.09874  -0.00086  -0.00079  -0.00190  -0.00270   2.09604
   A16        2.09875  -0.00086  -0.00079  -0.00190  -0.00271   2.09604
    D1        0.00000  -0.00000   0.00000  -0.00000  -0.00000   0.00000
    D2        3.14159  -0.00000   0.00000  -0.00000   0.00000   3.14159
    D3        3.14159   0.00000   0.00000   0.00000   0.00000   3.14159
    D4       -0.00000  -0.00000   0.00000  -0.00000   0.00000   0.00000
    D5       -0.00000   0.00000   0.00000   0.00000   0.00000   0.00000
    D6        3.14159   0.00000   0.00000   0.00000   0.00000   3.14159
    D7        3.14159  -0.00000   0.00000  -0.00000   0.00000   3.14159
    D8        0.00000  -0.00000   0.00000  -0.00000  -0.00000   0.00000
    D9       -0.00000  -0.00000   0.00000  -0.00000   0.00000   0.00000
   D10        3.14159   0.00000   0.00000   0.00000   0.00000   3.14159
   D11        0.00000   0.00000   0.00000   0.00000  -0.00000   0.00000
   D12        3.14159  -0.00000   0.00000  -0.00000   0.00000   3.14159
   D13       -0.00000  -0.00000   0.00000  -0.00000   0.00000   0.00000
   D14        3.14159  -0.00000   0.00000  -0.00000   0.00000   3.14159
   D15        3.14159   0.00000   0.00000   0.00000   0.00000   3.14159
   D16        0.00000   0.00000   0.00000   0.00000   0.00000   0.00000
   D17        0.00000   0.00000   0.00000  -0.00000  -0.00000   0.00000
   D18        3.14159  -0.00000   0.00000  -0.00000   0.00000   3.14159
   D19        3.14159   0.00000   0.00000   0.00000   0.00000   3.14159
   D20       -0.00000   0.00000   0.00000   0.00000   0.00000   0.00000
         Item               Value     Threshold  Converged?
 Maximum Force            0.022326     0.000450     NO 
 RMS     Force            0.006990     0.000300     NO 
 Maximum Displacement     0.037291     0.001800     NO 
 RMS     Displacement     0.012994     0.001200     NO 
 Predicted change in Energy=-1.793506D-03
 GradGradGradGradGradGradGradGradGradGradGradGradGradGradGradGradGradGrad

                          Input orientation:                          
 ---------------------------------------------------------------------
 Center     Atomic      Atomic             Coordinates (Angstroms)
 Number     Number       Type             X           Y           Z
 ---------------------------------------------------------------------
      1          6           0       -3.215709    0.197171    0.000000
      2          6           0       -2.002933    0.908339    0.000000
      3          6           0       -0.776012    0.265746   -0.000000
      4          6           0       -0.756911   -1.119134   -0.000000
      5          6           0       -1.939205   -1.879903   -0.000000
      6          6           0       -3.179336   -1.211263    0.000000
      7         17           0       -4.631219   -2.103545    0.000000
      8         17           0       -4.723852    1.000268    0.000000
      9         17           0        0.755981   -1.916139   -0.000000
     10         17           0       -1.903934   -3.588182   -0.000000
     11         17           0       -2.030621    2.618102    0.000000
 ---------------------------------------------------------------------
                    Distance matrix (angstroms):
                    1          2          3          4          5
     1  C    0.000000
     2  C    1.405911   0.000000
     3  C    2.440661   1.385013   0.000000
     4  C    2.788969   2.379751   1.385012   0.000000
     5  C    2.437971   2.788970   2.440662   1.405912   0.000000
     6  C    1.408904   2.424177   2.820909   2.424177   1.408902
     7  Cl   2.701289   3.997416   4.525059   3.997416   2.701288
     8  Cl   1.708642   2.722472   4.015590   4.497609   4.006200
     9  Cl   4.498933   3.948326   2.666012   1.709987   2.695429
    10  Cl   4.006202   4.497610   4.015591   2.722474   1.708643
    11  Cl   2.695429   1.709987   2.666012   3.948325   4.498934
                    6          7          8          9         10
     6  C    0.000000
     7  Cl   1.704151   0.000000
     8  Cl   2.697479   3.105195   0.000000
     9  Cl   3.997946   5.390459   6.207575   0.000000
    10  Cl   2.697480   3.105194   5.385704   3.141795   0.000000
    11  Cl   3.997947   5.390460   3.141796   5.322075   6.207577
                   11
    11  Cl   0.000000
 Stoichiometry    C6Cl5(1-)
 Framework group  CS[SG(C6Cl5)]
 Deg. of freedom    19
 Full point group                 CS      NOp   2
 Largest Abelian subgroup         CS      NOp   2
 Largest concise Abelian subgroup C1      NOp   1
                         Standard orientation:                         
 ---------------------------------------------------------------------
 Center     Atomic      Atomic             Coordinates (Angstroms)
 Number     Number       Type             X           Y           Z
 ---------------------------------------------------------------------
      1          6           0       -1.218986   -0.267535    0.000000
      2          6           0       -1.189876    1.138075    0.000000
      3          6           0       -0.000000    1.846916    0.000000
      4          6           0        1.189875    1.138076    0.000000
      5          6           0        1.218985   -0.267535    0.000000
      6          6           0       -0.000000   -0.973993    0.000000
      7         17           0        0.000000   -2.678144    0.000000
      8         17           0       -2.692852   -1.131928    0.000000
      9         17           0        2.661038    2.009705    0.000000
     10         17           0        2.692852   -1.131929    0.000000
     11         17           0       -2.661038    2.009706    0.000000
 ---------------------------------------------------------------------
 Rotational constants (GHZ):           0.7138016           0.4714230           0.2839145
 Standard basis: VSTO-6G (5D, 7F)
 There are    33 symmetry adapted cartesian basis functions of A'  symmetry.
 There are    11 symmetry adapted cartesian basis functions of A"  symmetry.
 There are    33 symmetry adapted basis functions of A'  symmetry.
 There are    11 symmetry adapted basis functions of A"  symmetry.
    44 basis functions,   264 primitive gaussians,    44 cartesian basis functions
    30 alpha electrons       30 beta electrons
       nuclear repulsion energy       353.2085646754 Hartrees.
 Integral buffers will be    131072 words long.
 Regular integral format.
 Two-electron integral symmetry is turned off.
 Do NDO integrals.
 One-electron integrals computed using PRISM.
 NBasis=    44 RedAO= T EigKep=  1.00D+00  NBF=    33    11
 NBsUse=    44 1.00D-06 EigRej= -1.00D+00 NBFU=    33    11
 Initial guess from the checkpoint file:  "geometry_chks/12345_ClBzAnionIntermediate.chk"
 B after Tr=     0.000000   -0.000000    0.000000
         Rot=    1.000000    0.000000   -0.000000    0.000000 Ang=   0.00 deg.
 Initial guess orbital symmetries:
       Occupied  (A') (A') (A') (A') (A') (A') (A') (A') (A') (A')
                 (A') (A') (A') (A') (A") (A') (A") (A') (A") (A")
                 (A") (A') (A') (A') (A') (A') (A") (A") (A") (A')
       Virtual   (A") (A") (A') (A') (A') (A') (A') (A") (A') (A')
                 (A') (A') (A') (A')
 Keep J ints in memory in canonical form, NReq=865421.
 Overlap will be assumed to be unity.
 Requested convergence on RMS density matrix=1.00D-08 within**** cycles.
 Requested convergence on MAX density matrix=1.00D-06.
 Requested convergence on             energy=1.00D-06.
 No special actions if energy rises.
 Fock symm off for IB=2 I1=    1 I=   34 J=   13 Cut=1.00D-07 Err=6.42D-04
 Fock matrix is not symmetric: symmetry in diagonalization turned off.
 SCF Done:  E(RAM1) = -0.367703352350E-02 A.U. after   13 cycles
            NFock= 12  Conv=0.22D-08     -V/T= 1.0000
 Calling FoFJK, ICntrl=      2127 FMM=F ISym2X=1 I1Cent= 0 IOpClX= 0 NMat=1 NMatS=1 NMatT=0.
 ***** Axes restored to original set *****
 -------------------------------------------------------------------
 Center     Atomic                   Forces (Hartrees/Bohr)
 Number     Number              X              Y              Z
 -------------------------------------------------------------------
      1        6           0.003813977   -0.003196186    0.000000000
      2        6          -0.001829800   -0.003910808   -0.000000000
      3        6          -0.001806278   -0.001109599   -0.000000000
      4        6          -0.004316152    0.000132927    0.000000000
      5        6          -0.001127642    0.004846178   -0.000000000
      6        6           0.006016362    0.003697905    0.000000000
      7       17          -0.001910731   -0.001174156   -0.000000000
      8       17          -0.000538317    0.000492101   -0.000000000
      9       17           0.001957967   -0.001501580   -0.000000000
     10       17           0.000195922   -0.000701861   -0.000000000
     11       17          -0.000455308    0.002425080   -0.000000000
 -------------------------------------------------------------------
 Cartesian Forces:  Max     0.006016362 RMS     0.002198089

 GradGradGradGradGradGradGradGradGradGradGradGradGradGradGradGradGradGrad
 Berny optimization.
 Using GEDIIS/GDIIS optimizer.
 FormGI is forming the generalized inverse of G from B-inverse, IUseBI=4.
 Internal  Forces:  Max     0.004219004 RMS     0.001379881
 Search for a local minimum.
 Step number   3 out of a maximum of   57
 All quantities printed in internal units (Hartrees-Bohrs-Radians)
 Mixed Optimization -- RFO/linear search
 Update second derivatives using D2CorX and points    1    2    3
 DE= -1.43D-03 DEPred=-1.79D-03 R= 7.95D-01
 TightC=F SS=  1.41D+00  RLast= 8.18D-02 DXNew= 8.4853D-01 2.4531D-01
 Trust test= 7.95D-01 RLast= 8.18D-02 DXMaxT set to 5.05D-01
 ITU=  1  1  0
 Use linear search instead of GDIIS.
     Eigenvalues ---    0.02011   0.02011   0.02011   0.02011   0.02011
     Eigenvalues ---    0.02011   0.02011   0.02011   0.24132   0.25000
     Eigenvalues ---    0.25000   0.25000   0.25000   0.25000   0.25065
     Eigenvalues ---    0.25369   0.26504   0.29033   0.29033   0.29047
     Eigenvalues ---    0.30171   0.41125   0.41907   0.44656   0.44657
     Eigenvalues ---    0.44865   0.78923
 RFO step:  Lambda=-9.39376239D-05 EMin= 2.01064726D-02
 Quartic linear search produced a step of -0.16024.
 Iteration  1 RMS(Cart)=  0.00369755 RMS(Int)=  0.00000477
 Iteration  2 RMS(Cart)=  0.00000844 RMS(Int)=  0.00000052
 Iteration  3 RMS(Cart)=  0.00000000 RMS(Int)=  0.00000052
 ClnCor:  largest displacement from symmetrization is 2.39D-11 for atom    11.
 Variable       Old X    -DE/DX   Delta X   Delta X   Delta X     New X
                                 (Linear)    (Quad)   (Total)
    R1        2.65679  -0.00380  -0.00426  -0.00205  -0.00631   2.65048
    R2        2.66244  -0.00422  -0.00586  -0.00140  -0.00726   2.65518
    R3        3.22887   0.00071   0.00325   0.00118   0.00443   3.23329
    R4        2.61729  -0.00107  -0.00373   0.00334  -0.00039   2.61691
    R5        3.23141   0.00243   0.00084   0.00835   0.00919   3.24060
    R6        2.61729  -0.00106  -0.00373   0.00334  -0.00039   2.61690
    R7        2.65679  -0.00380  -0.00426  -0.00205  -0.00631   2.65048
    R8        3.23141   0.00243   0.00084   0.00835   0.00919   3.24060
    R9        2.66244  -0.00422  -0.00586  -0.00140  -0.00726   2.65518
   R10        3.22887   0.00071   0.00325   0.00118   0.00442   3.23329
   R11        3.22038   0.00224   0.00273   0.00610   0.00883   3.22921
    A1        2.07533   0.00037   0.00083   0.00037   0.00120   2.07653
    A2        2.12192  -0.00048  -0.00083  -0.00113  -0.00196   2.11996
    A3        2.08593   0.00011   0.00000   0.00076   0.00076   2.08669
    A4        2.12877  -0.00069   0.00059  -0.00339  -0.00280   2.12598
    A5        2.08496  -0.00033  -0.00047  -0.00043  -0.00090   2.08406
    A6        2.06945   0.00102  -0.00012   0.00382   0.00370   2.07315
    A7        2.06705  -0.00014  -0.00197   0.00338   0.00140   2.06845
    A8        2.12877  -0.00069   0.00059  -0.00339  -0.00280   2.12598
    A9        2.06945   0.00102  -0.00012   0.00382   0.00370   2.07315
   A10        2.08496  -0.00032  -0.00047  -0.00043  -0.00090   2.08406
   A11        2.07533   0.00037   0.00083   0.00037   0.00120   2.07653
   A12        2.12192  -0.00048  -0.00083  -0.00113  -0.00196   2.11996
   A13        2.08593   0.00011   0.00000   0.00076   0.00076   2.08669
   A14        2.09111   0.00078  -0.00087   0.00267   0.00180   2.09291
   A15        2.09604  -0.00039   0.00043  -0.00133  -0.00090   2.09514
   A16        2.09604  -0.00039   0.00043  -0.00133  -0.00090   2.09514
    D1        0.00000  -0.00000   0.00000  -0.00000   0.00000   0.00000
    D2        3.14159  -0.00000   0.00000  -0.00000   0.00000   3.14159
    D3        3.14159   0.00000   0.00000   0.00000   0.00000   3.14159
    D4        0.00000   0.00000   0.00000   0.00000   0.00000   0.00000
    D5        0.00000   0.00000   0.00000   0.00000   0.00000   0.00000
    D6        3.14159   0.00000   0.00000   0.00000   0.00000   3.14159
    D7        3.14159  -0.00000   0.00000  -0.00000   0.00000   3.14159
    D8        0.00000  -0.00000   0.00000  -0.00000   0.00000   0.00000
    D9        0.00000   0.00000   0.00000   0.00000   0.00000   0.00000
   D10        3.14159   0.00000   0.00000   0.00000   0.00000   3.14159
   D11        0.00000   0.00000   0.00000   0.00000   0.00000   0.00000
   D12        3.14159  -0.00000   0.00000  -0.00000   0.00000   3.14159
   D13        0.00000  -0.00000   0.00000  -0.00000   0.00000   0.00000
   D14        3.14159  -0.00000   0.00000  -0.00000   0.00000   3.14159
   D15        3.14159   0.00000   0.00000   0.00000   0.00000   3.14159
   D16        0.00000   0.00000   0.00000   0.00000   0.00000   0.00000
   D17        0.00000   0.00000   0.00000   0.00000   0.00000   0.00000
   D18        3.14159  -0.00000   0.00000  -0.00000   0.00000   3.14159
   D19        3.14159   0.00000   0.00000   0.00000   0.00000   3.14159
   D20        0.00000  -0.00000   0.00000  -0.00000   0.00000   0.00000
         Item               Value     Threshold  Converged?
 Maximum Force            0.004219     0.000450     NO 
 RMS     Force            0.001380     0.000300     NO 
 Maximum Displacement     0.014599     0.001800     NO 
 RMS     Displacement     0.003702     0.001200     NO 
 Predicted change in Energy=-9.652647D-05
 GradGradGradGradGradGradGradGradGradGradGradGradGradGradGradGradGradGrad

                          Input orientation:                          
 ---------------------------------------------------------------------
 Center     Atomic      Atomic             Coordinates (Angstroms)
 Number     Number       Type             X           Y           Z
 ---------------------------------------------------------------------
      1          6           0       -3.212548    0.195957   -0.000000
      2          6           0       -2.004140    0.907972   -0.000000
      3          6           0       -0.777853    0.264614   -0.000000
      4          6           0       -0.757783   -1.120046   -0.000000
      5          6           0       -1.938860   -1.876534   -0.000000
      6          6           0       -3.175009   -1.208603   -0.000000
      7         17           0       -4.630873   -2.103332   -0.000000
      8         17           0       -4.722869    0.999947   -0.000000
      9         17           0        0.757009   -1.923864   -0.000000
     10         17           0       -1.903775   -3.587159   -0.000000
     11         17           0       -2.037049    2.622508   -0.000000
 ---------------------------------------------------------------------
                    Distance matrix (angstroms):
                    1          2          3          4          5
     1  C    0.000000
     2  C    1.402574   0.000000
     3  C    2.435663   1.384807   0.000000
     4  C    2.785271   2.380391   1.384806   0.000000
     5  C    2.432592   2.785271   2.435663   1.402575   0.000000
     6  C    1.405062   2.418847   2.813668   2.418847   1.405061
     7  Cl   2.701551   3.995957   4.522492   3.995958   2.701551
     8  Cl   1.710985   2.720284   4.012962   4.496251   4.003106
     9  Cl   4.500114   3.955153   2.673058   1.714852   2.696284
    10  Cl   4.003106   4.496251   4.012962   2.720284   1.710984
    11  Cl   2.696284   1.714852   2.673057   3.955152   4.500114
                    6          7          8          9         10
     6  C    0.000000
     7  Cl   1.708825   0.000000
     8  Cl   2.696955   3.104642   0.000000
     9  Cl   3.996543   5.390870   6.211097   0.000000
    10  Cl   2.696954   3.104643   5.384128   3.137885   0.000000
    11  Cl   3.996544   5.390871   3.137887   5.336315   6.211097
                   11
    11  Cl   0.000000
 Stoichiometry    C6Cl5(1-)
 Framework group  CS[SG(C6Cl5)]
 Deg. of freedom    19
 Full point group                 CS      NOp   2
 Largest Abelian subgroup         CS      NOp   2
 Largest concise Abelian subgroup C1      NOp   1
                         Standard orientation:                         
 ---------------------------------------------------------------------
 Center     Atomic      Atomic             Coordinates (Angstroms)
 Number     Number       Type             X           Y           Z
 ---------------------------------------------------------------------
      1          6           0       -1.216296   -0.265060    0.000000
      2          6           0       -1.190196    1.137272    0.000000
      3          6           0        0.000000    1.845172   -0.000000
      4          6           0        1.190195    1.137272   -0.000000
      5          6           0        1.216296   -0.265060   -0.000000
      6          6           0        0.000000   -0.968495    0.000000
      7         17           0       -0.000000   -2.677320    0.000000
      8         17           0       -2.692064   -1.130841    0.000000
      9         17           0        2.668158    2.006953   -0.000000
     10         17           0        2.692064   -1.130841   -0.000000
     11         17           0       -2.668157    2.006954    0.000000
 ---------------------------------------------------------------------
 Rotational constants (GHZ):           0.7151960           0.4704497           0.2837810
 Standard basis: VSTO-6G (5D, 7F)
 There are    33 symmetry adapted cartesian basis functions of A'  symmetry.
 There are    11 symmetry adapted cartesian basis functions of A"  symmetry.
 There are    33 symmetry adapted basis functions of A'  symmetry.
 There are    11 symmetry adapted basis functions of A"  symmetry.
    44 basis functions,   264 primitive gaussians,    44 cartesian basis functions
    30 alpha electrons       30 beta electrons
       nuclear repulsion energy       353.2079408135 Hartrees.
 Integral buffers will be    131072 words long.
 Regular integral format.
 Two-electron integral symmetry is turned off.
 Do NDO integrals.
 One-electron integrals computed using PRISM.
 NBasis=    44 RedAO= T EigKep=  1.00D+00  NBF=    33    11
 NBsUse=    44 1.00D-06 EigRej= -1.00D+00 NBFU=    33    11
 Initial guess from the checkpoint file:  "geometry_chks/12345_ClBzAnionIntermediate.chk"
 B after Tr=    -0.000000   -0.000000   -0.000000
         Rot=    1.000000    0.000000    0.000000   -0.000000 Ang=  -0.00 deg.
 Initial guess orbital symmetries:
       Occupied  (A') (A') (A') (A') (A') (A') (A') (A') (A') (A')
                 (A') (A') (A') (A') (A") (A') (A") (A') (A") (A")
                 (A") (A') (A') (A') (A') (A') (A") (A") (A") (A')
       Virtual   (A") (A") (A') (A') (A') (A') (A') (A") (A') (A')
                 (A') (A') (A') (A')
 Keep J ints in memory in canonical form, NReq=865421.
 Overlap will be assumed to be unity.
 Requested convergence on RMS density matrix=1.00D-08 within**** cycles.
 Requested convergence on MAX density matrix=1.00D-06.
 Requested convergence on             energy=1.00D-06.
 No special actions if energy rises.
 Fock symm off for IB=2 I1=    1 I=   34 J=   16 Cut=1.00D-07 Err=1.85D-04
 Fock matrix is not symmetric: symmetry in diagonalization turned off.
 SCF Done:  E(RAM1) = -0.376780869647E-02 A.U. after   12 cycles
            NFock= 11  Conv=0.53D-08     -V/T= 1.0000
 Calling FoFJK, ICntrl=      2127 FMM=F ISym2X=1 I1Cent= 0 IOpClX= 0 NMat=1 NMatS=1 NMatT=0.
 ***** Axes restored to original set *****
 -------------------------------------------------------------------
 Center     Atomic                   Forces (Hartrees/Bohr)
 Number     Number              X              Y              Z
 -------------------------------------------------------------------
      1        6          -0.000681315    0.000180870    0.000000000
      2        6           0.001070607   -0.000269171    0.000000000
      3        6          -0.000393837   -0.000241791   -0.000000000
      4        6           0.000243160    0.001076349    0.000000000
      5        6          -0.000145904   -0.000689484    0.000000000
      6        6           0.000149354    0.000092115   -0.000000000
      7       17          -0.000116333   -0.000071508   -0.000000000
      8       17           0.000041738   -0.000032722   -0.000000000
      9       17          -0.000223024    0.000186966   -0.000000000
     10       17          -0.000010416    0.000051862   -0.000000000
     11       17           0.000065969   -0.000283485   -0.000000000
 -------------------------------------------------------------------
 Cartesian Forces:  Max     0.001076349 RMS     0.000342359

 GradGradGradGradGradGradGradGradGradGradGradGradGradGradGradGradGradGrad
 Berny optimization.
 Using GEDIIS/GDIIS optimizer.
 FormGI is forming the generalized inverse of G from B-inverse, IUseBI=4.
 Internal  Forces:  Max     0.000790576 RMS     0.000224727
 Search for a local minimum.
 Step number   4 out of a maximum of   57
 All quantities printed in internal units (Hartrees-Bohrs-Radians)
 Mixed Optimization -- En-DIIS/RFO-DIIS
 Update second derivatives using D2CorX and points    1    2    3    4
 DE= -9.08D-05 DEPred=-9.65D-05 R= 9.40D-01
 TightC=F SS=  1.41D+00  RLast= 2.31D-02 DXNew= 8.4853D-01 6.9369D-02
 Trust test= 9.40D-01 RLast= 2.31D-02 DXMaxT set to 5.05D-01
 ITU=  1  1  1  0
 Use linear search instead of GDIIS.
     Eigenvalues ---    0.02011   0.02011   0.02011   0.02011   0.02011
     Eigenvalues ---    0.02011   0.02011   0.02011   0.23984   0.24805
     Eigenvalues ---    0.25000   0.25000   0.25000   0.25000   0.25118
     Eigenvalues ---    0.25332   0.26355   0.28774   0.29033   0.29033
     Eigenvalues ---    0.30548   0.41122   0.43027   0.44656   0.44657
     Eigenvalues ---    0.50125   0.76213
 RFO step:  Lambda=-3.91829526D-06 EMin= 2.01064735D-02
 Quartic linear search produced a step of -0.07542.
 Iteration  1 RMS(Cart)=  0.00080386 RMS(Int)=  0.00000021
 Iteration  2 RMS(Cart)=  0.00000028 RMS(Int)=  0.00000004
 ClnCor:  largest displacement from symmetrization is 1.14D-11 for atom     8.
 Variable       Old X    -DE/DX   Delta X   Delta X   Delta X     New X
                                 (Linear)    (Quad)   (Total)
    R1        2.65048   0.00045   0.00048   0.00040   0.00087   2.65136
    R2        2.65518   0.00014   0.00055  -0.00020   0.00035   2.65553
    R3        3.23329  -0.00005  -0.00033   0.00019  -0.00014   3.23315
    R4        2.61691  -0.00079   0.00003  -0.00157  -0.00154   2.61537
    R5        3.24060  -0.00028  -0.00069   0.00011  -0.00058   3.24002
    R6        2.61690  -0.00079   0.00003  -0.00157  -0.00154   2.61537
    R7        2.65048   0.00045   0.00048   0.00040   0.00087   2.65136
    R8        3.24060  -0.00028  -0.00069   0.00011  -0.00058   3.24002
    R9        2.65518   0.00014   0.00055  -0.00020   0.00035   2.65553
   R10        3.23329  -0.00005  -0.00033   0.00019  -0.00014   3.23315
   R11        3.22921   0.00014  -0.00067   0.00131   0.00064   3.22985
    A1        2.07653  -0.00026  -0.00009  -0.00069  -0.00078   2.07575
    A2        2.11996   0.00014   0.00015   0.00026   0.00041   2.12037
    A3        2.08669   0.00011  -0.00006   0.00043   0.00037   2.08706
    A4        2.12598   0.00029   0.00021   0.00059   0.00080   2.12677
    A5        2.08406  -0.00004   0.00007  -0.00019  -0.00012   2.08394
    A6        2.07315  -0.00024  -0.00028  -0.00040  -0.00068   2.07247
    A7        2.06845  -0.00000  -0.00011  -0.00009  -0.00020   2.06825
    A8        2.12598   0.00029   0.00021   0.00059   0.00080   2.12677
    A9        2.07315  -0.00024  -0.00028  -0.00040  -0.00068   2.07247
   A10        2.08406  -0.00004   0.00007  -0.00019  -0.00012   2.08394
   A11        2.07653  -0.00026  -0.00009  -0.00069  -0.00078   2.07575
   A12        2.11996   0.00014   0.00015   0.00026   0.00041   2.12037
   A13        2.08669   0.00011  -0.00006   0.00043   0.00037   2.08706
   A14        2.09291  -0.00006  -0.00014   0.00030   0.00017   2.09307
   A15        2.09514   0.00003   0.00007  -0.00015  -0.00008   2.09506
   A16        2.09514   0.00003   0.00007  -0.00015  -0.00008   2.09506
    D1        0.00000  -0.00000   0.00000  -0.00000   0.00000   0.00000
    D2        3.14159  -0.00000   0.00000  -0.00000   0.00000   3.14159
    D3        3.14159   0.00000   0.00000   0.00000   0.00000   3.14159
    D4        0.00000  -0.00000   0.00000  -0.00000  -0.00000   0.00000
    D5        0.00000   0.00000   0.00000   0.00000  -0.00000   0.00000
    D6        3.14159   0.00000   0.00000   0.00000   0.00000   3.14159
    D7        3.14159  -0.00000   0.00000  -0.00000   0.00000   3.14159
    D8       -0.00000  -0.00000   0.00000  -0.00000   0.00000   0.00000
    D9       -0.00000  -0.00000   0.00000  -0.00000   0.00000   0.00000
   D10        3.14159   0.00000   0.00000   0.00000   0.00000   3.14159
   D11       -0.00000   0.00000   0.00000   0.00000   0.00000   0.00000
   D12        3.14159  -0.00000   0.00000  -0.00000   0.00000   3.14159
   D13        0.00000  -0.00000   0.00000  -0.00000  -0.00000   0.00000
   D14        3.14159  -0.00000   0.00000  -0.00000   0.00000   3.14159
   D15        3.14159   0.00000   0.00000   0.00000   0.00000   3.14159
   D16       -0.00000   0.00000   0.00000   0.00000   0.00000   0.00000
   D17       -0.00000  -0.00000   0.00000  -0.00000   0.00000   0.00000
   D18        3.14159  -0.00000   0.00000  -0.00000   0.00000   3.14159
   D19        3.14159   0.00000   0.00000   0.00000   0.00000   3.14159
   D20        0.00000   0.00000   0.00000   0.00000  -0.00000   0.00000
         Item               Value     Threshold  Converged?
 Maximum Force            0.000791     0.000450     NO 
 RMS     Force            0.000225     0.000300     YES
 Maximum Displacement     0.003257     0.001800     NO 
 RMS     Displacement     0.000804     0.001200     YES
 Predicted change in Energy=-2.568262D-06
 GradGradGradGradGradGradGradGradGradGradGradGradGradGradGradGradGradGrad

                          Input orientation:                          
 ---------------------------------------------------------------------
 Center     Atomic      Atomic             Coordinates (Angstroms)
 Number     Number       Type             X           Y           Z
 ---------------------------------------------------------------------
      1          6           0       -3.212965    0.195956    0.000000
      2          6           0       -2.003662    0.907362    0.000000
      3          6           0       -0.778032    0.264504   -0.000000
      4          6           0       -0.758111   -1.119345   -0.000000
      5          6           0       -1.939049   -1.876906   -0.000000
      6          6           0       -3.175305   -1.208785   -0.000000
      7         17           0       -4.631458   -2.103691    0.000000
      8         17           0       -4.722991    1.000344    0.000000
      9         17           0        0.756874   -1.922141   -0.000000
     10         17           0       -1.903477   -3.587447   -0.000000
     11         17           0       -2.035573    2.621609    0.000000
 ---------------------------------------------------------------------
                    Distance matrix (angstroms):
                    1          2          3          4          5
     1  C    0.000000
     2  C    1.403037   0.000000
     3  C    2.435898   1.383993   0.000000
     4  C    2.785018   2.378852   1.383993   0.000000
     5  C    2.433028   2.785018   2.435899   1.403037   0.000000
     6  C    1.405246   2.418847   2.813805   2.418848   1.405246
     7  Cl   2.701943   3.996467   4.522968   3.996467   2.701943
     8  Cl   1.710911   2.720917   4.012999   4.495926   4.003611
     9  Cl   4.499551   3.953055   2.671582   1.714544   2.696302
    10  Cl   4.003611   4.495926   4.012999   2.720918   1.710911
    11  Cl   2.696302   1.714544   2.671582   3.953055   4.499551
                    6          7          8          9         10
     6  C    0.000000
     7  Cl   1.709163   0.000000
     8  Cl   2.697328   3.105384   0.000000
     9  Cl   3.996361   5.391389   6.210461   0.000000
    10  Cl   2.697328   3.105384   5.384931   3.138585   0.000000
    11  Cl   3.996361   5.391389   3.138585   5.333237   6.210461
                   11
    11  Cl   0.000000
 Stoichiometry    C6Cl5(1-)
 Framework group  CS[SG(C6Cl5)]
 Deg. of freedom    19
 Full point group                 CS      NOp   2
 Largest Abelian subgroup         CS      NOp   2
 Largest concise Abelian subgroup C1      NOp   1
                         Standard orientation:                         
 ---------------------------------------------------------------------
 Center     Atomic      Atomic             Coordinates (Angstroms)
 Number     Number       Type             X           Y           Z
 ---------------------------------------------------------------------
      1          6           0       -0.265515    1.216514   -0.000000
      2          6           0        1.137260    1.189426   -0.000000
      3          6           0        1.844863    0.000000    0.000000
      4          6           0        1.137260   -1.189426    0.000000
      5          6           0       -0.265515   -1.216514    0.000000
      6          6           0       -0.968942   -0.000000   -0.000000
      7         17           0       -2.678106   -0.000000   -0.000000
      8         17           0       -1.130837    2.692465   -0.000000
      9         17           0        2.007641   -2.666618    0.000000
     10         17           0       -1.130837   -2.692466    0.000000
     11         17           0        2.007641    2.666618   -0.000000
 ---------------------------------------------------------------------
 Rotational constants (GHZ):           0.7148507           0.4706487           0.2837990
 Standard basis: VSTO-6G (5D, 7F)
 There are    33 symmetry adapted cartesian basis functions of A'  symmetry.
 There are    11 symmetry adapted cartesian basis functions of A"  symmetry.
 There are    33 symmetry adapted basis functions of A'  symmetry.
 There are    11 symmetry adapted basis functions of A"  symmetry.
    44 basis functions,   264 primitive gaussians,    44 cartesian basis functions
    30 alpha electrons       30 beta electrons
       nuclear repulsion energy       353.2100102798 Hartrees.
 Integral buffers will be    131072 words long.
 Regular integral format.
 Two-electron integral symmetry is turned off.
 Do NDO integrals.
 One-electron integrals computed using PRISM.
 NBasis=    44 RedAO= T EigKep=  1.00D+00  NBF=    33    11
 NBsUse=    44 1.00D-06 EigRej= -1.00D+00 NBFU=    33    11
 Initial guess from the checkpoint file:  "geometry_chks/12345_ClBzAnionIntermediate.chk"
 B after Tr=    -0.000000    0.000000   -0.000000
         Rot=    0.707107    0.000000   -0.000000    0.707107 Ang=  90.00 deg.
 Initial guess orbital symmetries:
       Occupied  (A') (A') (A') (A') (A') (A') (A') (A') (A') (A')
                 (A') (A') (A') (A') (A") (A') (A") (A') (A") (A")
                 (A") (A') (A') (A') (A') (A') (A") (A") (A") (A')
       Virtual   (A") (A") (A') (A') (A') (A') (A') (A") (A') (A')
                 (A') (A') (A') (A')
 Keep J ints in memory in canonical form, NReq=865421.
 Overlap will be assumed to be unity.
 Requested convergence on RMS density matrix=1.00D-08 within**** cycles.
 Requested convergence on MAX density matrix=1.00D-06.
 Requested convergence on             energy=1.00D-06.
 No special actions if energy rises.
 Fock symm off for IB=2 I1=    1 I=   34 J=   22 Cut=1.00D-07 Err=3.10D-05
 Fock matrix is not symmetric: symmetry in diagonalization turned off.
 SCF Done:  E(RAM1) = -0.377028869690E-02 A.U. after   10 cycles
            NFock=  9  Conv=0.41D-08     -V/T= 1.0000
 Calling FoFJK, ICntrl=      2127 FMM=F ISym2X=1 I1Cent= 0 IOpClX= 0 NMat=1 NMatS=1 NMatT=0.
 ***** Axes restored to original set *****
 -------------------------------------------------------------------
 Center     Atomic                   Forces (Hartrees/Bohr)
 Number     Number              X              Y              Z
 -------------------------------------------------------------------
      1        6          -0.000262887    0.000031527    0.000000000
      2        6           0.000073147    0.000067437    0.000000000
      3        6          -0.000077631   -0.000047671    0.000000000
      4        6           0.000093007    0.000034593    0.000000000
      5        6          -0.000090337   -0.000248715    0.000000000
      6        6           0.000151688    0.000093336   -0.000000000
      7       17           0.000057573    0.000035371   -0.000000000
      8       17           0.000120701   -0.000066059   -0.000000000
      9       17          -0.000017835   -0.000039155   -0.000000000
     10       17          -0.000004419    0.000137529   -0.000000000
     11       17          -0.000043007    0.000001807   -0.000000000
 -------------------------------------------------------------------
 Cartesian Forces:  Max     0.000262887 RMS     0.000086344

 GradGradGradGradGradGradGradGradGradGradGradGradGradGradGradGradGradGrad
 Berny optimization.
 Using GEDIIS/GDIIS optimizer.
 FormGI is forming the generalized inverse of G from B-inverse, IUseBI=4.
 Internal  Forces:  Max     0.000141446 RMS     0.000051079
 Search for a local minimum.
 Step number   5 out of a maximum of   57
 All quantities printed in internal units (Hartrees-Bohrs-Radians)
 Mixed Optimization -- En-DIIS/RFO-DIIS
 Swapping is turned off.
 Update second derivatives using D2CorX and points    1    2    3    4    5
 DE= -2.48D-06 DEPred=-2.57D-06 R= 9.66D-01
 TightC=F SS=  1.41D+00  RLast= 3.43D-03 DXNew= 8.4853D-01 1.0285D-02
 Trust test= 9.66D-01 RLast= 3.43D-03 DXMaxT set to 5.05D-01
 ITU=  1  1  1  1  0
     Eigenvalues ---    0.02011   0.02011   0.02011   0.02011   0.02011
     Eigenvalues ---    0.02011   0.02011   0.02011   0.20946   0.24903
     Eigenvalues ---    0.25000   0.25000   0.25000   0.25000   0.25129
     Eigenvalues ---    0.26527   0.26828   0.28597   0.29033   0.29033
     Eigenvalues ---    0.30533   0.41120   0.43268   0.44656   0.44657
     Eigenvalues ---    0.55955   0.75497
 En-DIIS/RFO-DIIS/Sim-DIIS IScMMF=       -3 using points:     5    4
 RFO step:  Lambda=-4.40247092D-07.
 DidBck=F Rises=F RFO-DIIS coefs:    1.06576   -0.06576
 Iteration  1 RMS(Cart)=  0.00021482 RMS(Int)=  0.00000002
 Iteration  2 RMS(Cart)=  0.00000003 RMS(Int)=  0.00000001
 ClnCor:  largest displacement from symmetrization is 6.18D-12 for atom    11.
 Variable       Old X    -DE/DX   Delta X   Delta X   Delta X     New X
                                 (Linear)    (Quad)   (Total)
    R1        2.65136   0.00002   0.00006   0.00007   0.00012   2.65148
    R2        2.65553  -0.00005   0.00002  -0.00010  -0.00008   2.65545
    R3        3.23315  -0.00014  -0.00001  -0.00052  -0.00053   3.23263
    R4        2.61537   0.00004  -0.00010   0.00005  -0.00005   2.61532
    R5        3.24002   0.00000  -0.00004  -0.00002  -0.00006   3.23996
    R6        2.61537   0.00004  -0.00010   0.00005  -0.00005   2.61532
    R7        2.65136   0.00002   0.00006   0.00007   0.00012   2.65148
    R8        3.24002   0.00000  -0.00004  -0.00002  -0.00006   3.23996
    R9        2.65553  -0.00005   0.00002  -0.00010  -0.00008   2.65545
   R10        3.23315  -0.00014  -0.00001  -0.00052  -0.00053   3.23263
   R11        3.22985  -0.00007   0.00004  -0.00023  -0.00019   3.22966
    A1        2.07575  -0.00006  -0.00005  -0.00028  -0.00033   2.07542
    A2        2.12037   0.00003   0.00003   0.00015   0.00018   2.12056
    A3        2.08706   0.00003   0.00002   0.00012   0.00015   2.08721
    A4        2.12677  -0.00005   0.00005  -0.00014  -0.00009   2.12669
    A5        2.08394  -0.00005  -0.00001  -0.00020  -0.00020   2.08373
    A6        2.07247   0.00009  -0.00004   0.00034   0.00029   2.07277
    A7        2.06825   0.00007  -0.00001   0.00030   0.00029   2.06854
    A8        2.12677  -0.00005   0.00005  -0.00014  -0.00009   2.12669
    A9        2.07247   0.00009  -0.00004   0.00034   0.00029   2.07277
   A10        2.08394  -0.00005  -0.00001  -0.00020  -0.00020   2.08373
   A11        2.07575  -0.00006  -0.00005  -0.00028  -0.00033   2.07542
   A12        2.12037   0.00003   0.00003   0.00015   0.00018   2.12056
   A13        2.08706   0.00003   0.00002   0.00012   0.00015   2.08721
   A14        2.09307   0.00014   0.00001   0.00054   0.00055   2.09362
   A15        2.09506  -0.00007  -0.00001  -0.00027  -0.00027   2.09478
   A16        2.09506  -0.00007  -0.00001  -0.00027  -0.00027   2.09478
    D1        0.00000  -0.00000   0.00000  -0.00000   0.00000   0.00000
    D2        3.14159  -0.00000  -0.00000  -0.00000   0.00000   3.14159
    D3        3.14159   0.00000  -0.00000   0.00000   0.00000   3.14159
    D4        0.00000  -0.00000   0.00000  -0.00000  -0.00000   0.00000
    D5       -0.00000   0.00000   0.00000   0.00000   0.00000   0.00000
    D6        3.14159   0.00000  -0.00000   0.00000   0.00000   3.14159
    D7        3.14159  -0.00000  -0.00000  -0.00000   0.00000   3.14159
    D8       -0.00000  -0.00000   0.00000  -0.00000   0.00000   0.00000
    D9       -0.00000   0.00000   0.00000   0.00000   0.00000   0.00000
   D10        3.14159   0.00000  -0.00000   0.00000   0.00000   3.14159
   D11        0.00000   0.00000   0.00000   0.00000  -0.00000   0.00000
   D12        3.14159  -0.00000  -0.00000  -0.00000   0.00000   3.14159
   D13       -0.00000  -0.00000   0.00000  -0.00000   0.00000   0.00000
   D14        3.14159  -0.00000  -0.00000  -0.00000   0.00000   3.14159
   D15        3.14159   0.00000  -0.00000   0.00000   0.00000   3.14159
   D16        0.00000   0.00000   0.00000   0.00000  -0.00000   0.00000
   D17        0.00000   0.00000   0.00000   0.00000  -0.00000   0.00000
   D18        3.14159  -0.00000  -0.00000  -0.00000   0.00000   3.14159
   D19        3.14159   0.00000  -0.00000   0.00000   0.00000   3.14159
   D20       -0.00000   0.00000   0.00000   0.00000   0.00000   0.00000
         Item               Value     Threshold  Converged?
 Maximum Force            0.000141     0.000450     YES
 RMS     Force            0.000051     0.000300     YES
 Maximum Displacement     0.000675     0.001800     YES
 RMS     Displacement     0.000215     0.001200     YES
 Predicted change in Energy=-2.201244D-07
 Optimization completed.
    -- Stationary point found.
                           ----------------------------
                           !   Optimized Parameters   !
                           ! (Angstroms and Degrees)  !
 --------------------------                            --------------------------
 ! Name  Definition              Value          Derivative Info.                !
 --------------------------------------------------------------------------------
 ! R1    R(1,2)                  1.403          -DE/DX =    0.0                 !
 ! R2    R(1,6)                  1.4052         -DE/DX =   -0.0001              !
 ! R3    R(1,8)                  1.7109         -DE/DX =   -0.0001              !
 ! R4    R(2,3)                  1.384          -DE/DX =    0.0                 !
 ! R5    R(2,11)                 1.7145         -DE/DX =    0.0                 !
 ! R6    R(3,4)                  1.384          -DE/DX =    0.0                 !
 ! R7    R(4,5)                  1.403          -DE/DX =    0.0                 !
 ! R8    R(4,9)                  1.7145         -DE/DX =    0.0                 !
 ! R9    R(5,6)                  1.4052         -DE/DX =   -0.0001              !
 ! R10   R(5,10)                 1.7109         -DE/DX =   -0.0001              !
 ! R11   R(6,7)                  1.7092         -DE/DX =   -0.0001              !
 ! A1    A(2,1,6)              118.9316         -DE/DX =   -0.0001              !
 ! A2    A(2,1,8)              121.4885         -DE/DX =    0.0                 !
 ! A3    A(6,1,8)              119.5799         -DE/DX =    0.0                 !
 ! A4    A(1,2,3)              121.8551         -DE/DX =    0.0                 !
 ! A5    A(1,2,11)             119.4009         -DE/DX =    0.0                 !
 ! A6    A(3,2,11)             118.744          -DE/DX =    0.0001              !
 ! A7    A(2,3,4)              118.5022         -DE/DX =    0.0001              !
 ! A8    A(3,4,5)              121.8551         -DE/DX =    0.0                 !
 ! A9    A(3,4,9)              118.744          -DE/DX =    0.0001              !
 ! A10   A(5,4,9)              119.4009         -DE/DX =    0.0                 !
 ! A11   A(4,5,6)              118.9316         -DE/DX =   -0.0001              !
 ! A12   A(4,5,10)             121.4885         -DE/DX =    0.0                 !
 ! A13   A(6,5,10)             119.5799         -DE/DX =    0.0                 !
 ! A14   A(1,6,5)              119.9243         -DE/DX =    0.0001              !
 ! A15   A(1,6,7)              120.0379         -DE/DX =   -0.0001              !
 ! A16   A(5,6,7)              120.0379         -DE/DX =   -0.0001              !
 ! D1    D(6,1,2,3)              0.0            -DE/DX =    0.0                 !
 ! D2    D(6,1,2,11)           180.0            -DE/DX =    0.0                 !
 ! D3    D(8,1,2,3)            180.0            -DE/DX =    0.0                 !
 ! D4    D(8,1,2,11)             0.0            -DE/DX =    0.0                 !
 ! D5    D(2,1,6,5)              0.0            -DE/DX =    0.0                 !
 ! D6    D(2,1,6,7)            180.0            -DE/DX =    0.0                 !
 ! D7    D(8,1,6,5)            180.0            -DE/DX =    0.0                 !
 ! D8    D(8,1,6,7)              0.0            -DE/DX =    0.0                 !
 ! D9    D(1,2,3,4)              0.0            -DE/DX =    0.0                 !
 ! D10   D(11,2,3,4)           180.0            -DE/DX =    0.0                 !
 ! D11   D(2,3,4,5)              0.0            -DE/DX =    0.0                 !
 ! D12   D(2,3,4,9)            180.0            -DE/DX =    0.0                 !
 ! D13   D(3,4,5,6)              0.0            -DE/DX =    0.0                 !
 ! D14   D(3,4,5,10)           180.0            -DE/DX =    0.0                 !
 ! D15   D(9,4,5,6)            180.0            -DE/DX =    0.0                 !
 ! D16   D(9,4,5,10)             0.0            -DE/DX =    0.0                 !
 ! D17   D(4,5,6,1)              0.0            -DE/DX =    0.0                 !
 ! D18   D(4,5,6,7)            180.0            -DE/DX =    0.0                 !
 ! D19   D(10,5,6,1)           180.0            -DE/DX =    0.0                 !
 ! D20   D(10,5,6,7)             0.0            -DE/DX =    0.0                 !
 --------------------------------------------------------------------------------
 GradGradGradGradGradGradGradGradGradGradGradGradGradGradGradGradGradGrad

                          Input orientation:                          
 ---------------------------------------------------------------------
 Center     Atomic      Atomic             Coordinates (Angstroms)
 Number     Number       Type             X           Y           Z
 ---------------------------------------------------------------------
      1          6           0       -3.212965    0.195956    0.000000
      2          6           0       -2.003662    0.907362    0.000000
      3          6           0       -0.778032    0.264504   -0.000000
      4          6           0       -0.758111   -1.119345   -0.000000
      5          6           0       -1.939049   -1.876906   -0.000000
      6          6           0       -3.175305   -1.208785   -0.000000
      7         17           0       -4.631458   -2.103691    0.000000
      8         17           0       -4.722991    1.000344    0.000000
      9         17           0        0.756874   -1.922141   -0.000000
     10         17           0       -1.903477   -3.587447   -0.000000
     11         17           0       -2.035573    2.621609    0.000000
 ---------------------------------------------------------------------
                    Distance matrix (angstroms):
                    1          2          3          4          5
     1  C    0.000000
     2  C    1.403037   0.000000
     3  C    2.435898   1.383993   0.000000
     4  C    2.785018   2.378852   1.383993   0.000000
     5  C    2.433028   2.785018   2.435899   1.403037   0.000000
     6  C    1.405246   2.418847   2.813805   2.418848   1.405246
     7  Cl   2.701943   3.996467   4.522968   3.996467   2.701943
     8  Cl   1.710911   2.720917   4.012999   4.495926   4.003611
     9  Cl   4.499551   3.953055   2.671582   1.714544   2.696302
    10  Cl   4.003611   4.495926   4.012999   2.720918   1.710911
    11  Cl   2.696302   1.714544   2.671582   3.953055   4.499551
                    6          7          8          9         10
     6  C    0.000000
     7  Cl   1.709163   0.000000
     8  Cl   2.697328   3.105384   0.000000
     9  Cl   3.996361   5.391389   6.210461   0.000000
    10  Cl   2.697328   3.105384   5.384931   3.138585   0.000000
    11  Cl   3.996361   5.391389   3.138585   5.333237   6.210461
                   11
    11  Cl   0.000000
 Stoichiometry    C6Cl5(1-)
 Framework group  CS[SG(C6Cl5)]
 Deg. of freedom    19
 Full point group                 CS      NOp   2
 Largest Abelian subgroup         CS      NOp   2
 Largest concise Abelian subgroup C1      NOp   1
                         Standard orientation:                         
 ---------------------------------------------------------------------
 Center     Atomic      Atomic             Coordinates (Angstroms)
 Number     Number       Type             X           Y           Z
 ---------------------------------------------------------------------
      1          6           0       -0.265515    1.216514   -0.000000
      2          6           0        1.137260    1.189426    0.000000
      3          6           0        1.844863    0.000000    0.000000
      4          6           0        1.137260   -1.189426    0.000000
      5          6           0       -0.265515   -1.216514   -0.000000
      6          6           0       -0.968942   -0.000000   -0.000000
      7         17           0       -2.678106    0.000000   -0.000000
      8         17           0       -1.130837    2.692465   -0.000000
      9         17           0        2.007641   -2.666618    0.000000
     10         17           0       -1.130837   -2.692466   -0.000000
     11         17           0        2.007641    2.666618    0.000000
 ---------------------------------------------------------------------
 Rotational constants (GHZ):           0.7148507           0.4706487           0.2837990

 **********************************************************************

            Population analysis using the SCF Density.

 **********************************************************************

 Orbital symmetries:
       Occupied  (A') (A') (A') (A') (A') (A') (A') (A') (A') (A')
                 (A') (A') (A') (A') (A") (A') (A") (A') (A") (A")
                 (A") (A') (A') (A') (A') (A') (A") (A") (A") (A')
       Virtual   (A") (A") (A') (A') (A') (A') (A') (A") (A') (A')
                 (A') (A') (A') (A')
 The electronic state is 1-A'.
 Alpha  occ. eigenvalues --   -1.31536  -1.26000  -1.25168  -1.23766  -1.22923
 Alpha  occ. eigenvalues --   -1.19836  -0.98545  -0.96878  -0.72248  -0.70553
 Alpha  occ. eigenvalues --   -0.54028  -0.49088  -0.48369  -0.43484  -0.42980
 Alpha  occ. eigenvalues --   -0.40421  -0.37026  -0.35825  -0.35260  -0.33214
 Alpha  occ. eigenvalues --   -0.32664  -0.32376  -0.31314  -0.30405  -0.29474
 Alpha  occ. eigenvalues --   -0.27745  -0.27040  -0.19685  -0.18500  -0.14221
 Alpha virt. eigenvalues --    0.14325   0.15769   0.16355   0.17832   0.18220
 Alpha virt. eigenvalues --    0.20678   0.21426   0.25818   0.29598   0.29721
 Alpha virt. eigenvalues --    0.30829   0.31988   0.35691   0.37665
          Condensed to atoms (all electrons):
               1          2          3          4          5          6
     1  C    4.061231   0.000000   0.000000   0.000000   0.000000   0.000000
     2  C    0.000000   4.044812   0.000000   0.000000   0.000000   0.000000
     3  C    0.000000   0.000000   4.331251   0.000000   0.000000   0.000000
     4  C    0.000000   0.000000   0.000000   4.044812   0.000000   0.000000
     5  C    0.000000   0.000000   0.000000   0.000000   4.061231   0.000000
     6  C    0.000000   0.000000   0.000000   0.000000   0.000000   4.121555
     7  Cl   0.000000   0.000000   0.000000   0.000000   0.000000   0.000000
     8  Cl   0.000000   0.000000   0.000000   0.000000   0.000000   0.000000
     9  Cl   0.000000   0.000000   0.000000   0.000000   0.000000   0.000000
    10  Cl   0.000000   0.000000   0.000000   0.000000   0.000000   0.000000
    11  Cl   0.000000   0.000000   0.000000   0.000000   0.000000   0.000000
               7          8          9         10         11
     1  C    0.000000   0.000000   0.000000   0.000000   0.000000
     2  C    0.000000   0.000000   0.000000   0.000000   0.000000
     3  C    0.000000   0.000000   0.000000   0.000000   0.000000
     4  C    0.000000   0.000000   0.000000   0.000000   0.000000
     5  C    0.000000   0.000000   0.000000   0.000000   0.000000
     6  C    0.000000   0.000000   0.000000   0.000000   0.000000
     7  Cl   7.052832   0.000000   0.000000   0.000000   0.000000
     8  Cl   0.000000   7.062087   0.000000   0.000000   0.000000
     9  Cl   0.000000   0.000000   7.079050   0.000000   0.000000
    10  Cl   0.000000   0.000000   0.000000   7.062087   0.000000
    11  Cl   0.000000   0.000000   0.000000   0.000000   7.079050
 Mulliken charges:
               1
     1  C   -0.061231
     2  C   -0.044812
     3  C   -0.331251
     4  C   -0.044812
     5  C   -0.061231
     6  C   -0.121555
     7  Cl  -0.052832
     8  Cl  -0.062087
     9  Cl  -0.079050
    10  Cl  -0.062087
    11  Cl  -0.079050
 Sum of Mulliken charges =  -1.00000
 Mulliken charges with hydrogens summed into heavy atoms:
               1
     1  C   -0.061231
     2  C   -0.044812
     3  C   -0.331251
     4  C   -0.044812
     5  C   -0.061231
     6  C   -0.121555
     7  Cl  -0.052832
     8  Cl  -0.062087
     9  Cl  -0.079050
    10  Cl  -0.062087
    11  Cl  -0.079050
 Charge=             -1.0000 electrons
 Dipole moment (field-independent basis, Debye):
    X=             -4.8791    Y=              0.0000    Z=              0.0000  Tot=              4.8791
 N-N= 3.532100102798D+02 E-N=-5.133892871311D+02  KE=-1.576268640366D+02
 Symmetry A'   KE=-1.203770372507D+02
 Symmetry A"   KE=-3.724982678597D+01
 1\1\GINC-SH02-01N55\FOpt\RAM1\ZDO\C6Cl5(1-)\JLAPIER\08-Dec-2025\0\\# o
 pt am1 SCF(maxcyc=10000)\\Anion Intermediate (removed 6) 12345_\\-1,1\
 C,-3.2129654879,0.1959562308,0.\C,-2.0036624129,0.9073618788,0.\C,-0.7
 780317152,0.2645044675,0.\C,-0.7581114058,-1.1193448237,0.\C,-1.939048
 8968,-1.8769064508,0.\C,-3.175304795,-1.2087848549,0.\Cl,-4.6314578844
 ,-2.1036908844,0.\Cl,-4.7229906749,1.0003436666,0.\Cl,0.7568735062,-1.
 9221406093,0.\Cl,-1.9034773812,-3.58744726,0.\Cl,-2.0355728545,2.62160
 8643,0.\\Version=ES64L-G16RevB.01\State=1-A'\HF=-0.0037703\RMSD=4.107e
 -09\RMSF=8.634e-05\Dipole=-1.6354115,-1.0050724,0.\PG=CS [SG(C6Cl5)]\\
 @


 CHINESE FORTUNE COOKIE OF JAN 1 1967 SAY....
 ALL THINGS ARE DIFFICULT BEFORE THEY ARE EASY.
 WE LEARN SO LITTLE AND FORGET SO MUCH.
 YOU WILL OVERCOME OBSTACLES TO ACHIEVE SUCCESS.
 AH SO.
 Job cpu time:       0 days  0 hours  0 minutes  4.4 seconds.
 Elapsed time:       0 days  0 hours  0 minutes 17.1 seconds.
 File lengths (MBytes):  RWF=     10 Int=      0 D2E=      0 Chk=      2 Scr=      1
 Normal termination of Gaussian 16 at Mon Dec  8 17:08:47 2025.
