 Entering Gaussian System, Link 0=g16
 Initial command:
 /share/software/user/restricted/gaussian/g16.B01/l1.exe "/home/users/jlapier/Chloroaromatics/Gau-305.inp" -scrdir="/home/users/jlapier/Chloroaromatics/"
 Entering Link 1 = /share/software/user/restricted/gaussian/g16.B01/l1.exe PID=       306.
  
 Copyright (c) 1988-2017, Gaussian, Inc.  All Rights Reserved.
  
 This is part of the Gaussian(R) 16 program.  It is based on
 the Gaussian(R) 09 system (copyright 2009, Gaussian, Inc.),
 the Gaussian(R) 03 system (copyright 2003, Gaussian, Inc.),
 the Gaussian(R) 98 system (copyright 1998, Gaussian, Inc.),
 the Gaussian(R) 94 system (copyright 1995, Gaussian, Inc.),
 the Gaussian 92(TM) system (copyright 1992, Gaussian, Inc.),
 the Gaussian 90(TM) system (copyright 1990, Gaussian, Inc.),
 the Gaussian 88(TM) system (copyright 1988, Gaussian, Inc.),
 the Gaussian 86(TM) system (copyright 1986, Carnegie Mellon
 University), and the Gaussian 82(TM) system (copyright 1983,
 Carnegie Mellon University). Gaussian is a federally registered
 trademark of Gaussian, Inc.
  
 This software contains proprietary and confidential information,
 including trade secrets, belonging to Gaussian, Inc.
  
 This software is provided under written license and may be
 used, copied, transmitted, or stored only in accord with that
 written license.
  
 The following legend is applicable only to US Government
 contracts under FAR:
  
                    RESTRICTED RIGHTS LEGEND
  
 Use, reproduction and disclosure by the US Government is
 subject to restrictions as set forth in subparagraphs (a)
 and (c) of the Commercial Computer Software - Restricted
 Rights clause in FAR 52.227-19.
  
 Gaussian, Inc.
 340 Quinnipiac St., Bldg. 40, Wallingford CT 06492
  
  
 ---------------------------------------------------------------
 Warning -- This program may not be used in any manner that
 competes with the business of Gaussian, Inc. or will provide
 assistance to any competitor of Gaussian, Inc.  The licensee
 of this program is prohibited from giving any competitor of
 Gaussian, Inc. access to this program.  By using this program,
 the user acknowledges that Gaussian, Inc. is engaged in the
 business of creating and licensing software in the field of
 computational chemistry and represents and warrants to the
 licensee that it is not a competitor of Gaussian, Inc. and that
 it will not use this program in any manner prohibited above.
 ---------------------------------------------------------------
  

 Cite this work as:
 Gaussian 16, Revision B.01,
 M. J. Frisch, G. W. Trucks, H. B. Schlegel, G. E. Scuseria, 
 M. A. Robb, J. R. Cheeseman, G. Scalmani, V. Barone, 
 G. A. Petersson, H. Nakatsuji, X. Li, M. Caricato, A. V. Marenich, 
 J. Bloino, B. G. Janesko, R. Gomperts, B. Mennucci, H. P. Hratchian, 
 J. V. Ortiz, A. F. Izmaylov, J. L. Sonnenberg, D. Williams-Young, 
 F. Ding, F. Lipparini, F. Egidi, J. Goings, B. Peng, A. Petrone, 
 T. Henderson, D. Ranasinghe, V. G. Zakrzewski, J. Gao, N. Rega, 
 G. Zheng, W. Liang, M. Hada, M. Ehara, K. Toyota, R. Fukuda, 
 J. Hasegawa, M. Ishida, T. Nakajima, Y. Honda, O. Kitao, H. Nakai, 
 T. Vreven, K. Throssell, J. A. Montgomery, Jr., J. E. Peralta, 
 F. Ogliaro, M. J. Bearpark, J. J. Heyd, E. N. Brothers, K. N. Kudin, 
 V. N. Staroverov, T. A. Keith, R. Kobayashi, J. Normand, 
 K. Raghavachari, A. P. Rendell, J. C. Burant, S. S. Iyengar, 
 J. Tomasi, M. Cossi, J. M. Millam, M. Klene, C. Adamo, R. Cammi, 
 J. W. Ochterski, R. L. Martin, K. Morokuma, O. Farkas, 
 J. B. Foresman, and D. J. Fox, Gaussian, Inc., Wallingford CT, 2016.
 
 ******************************************
 Gaussian 16:  ES64L-G16RevB.01 20-Dec-2017
                10-Dec-2025 
 ******************************************
 %mem=2GB
 %nprocshare=1
 Will use up to    1 processors via shared memory.
 %chk=geometry_chks/1234-12_4-ClBzNeutralRadical.chk
 -----------------
 # opt am1 SCF=XQC
 -----------------
 1/18=20,19=15,26=1,38=1/1,3;
 2/9=110,12=2,17=6,18=5,40=1/2;
 3/5=2,25=1,41=700000,71=1/1,2,3;
 4/35=1/1;
 5/5=2,8=3,13=1,35=1,38=5/2,8;
 6/7=2,8=2,9=2,10=2,28=1/1;
 7//1,2,3,16;
 1/18=20,19=15,26=1/3(2);
 2/9=110/2;
 99//99;
 2/9=110/2;
 3/5=2,25=1,41=700000,71=1,135=20/1,2,3;
 4/5=5,16=3,35=1/1;
 5/5=2,8=3,13=1,35=1,38=5/2,8;
 7//1,2,3,16;
 1/18=20,19=15,26=1/3(-5);
 2/9=110/2;
 6/7=2,8=2,9=2,10=2,19=2,28=1/1;
 99/9=1/99;
 --------------------------------
 Neutral Radical (removed 3) 12_4
 --------------------------------
 Symbolic Z-matrix:
 Charge =  0 Multiplicity = 2
 C                    -3.20928   0.19943   0. 
 C                    -2.0115    0.93555   0. 
 C                    -0.77511   0.2663    0. 
 C                    -0.7365   -1.13907   0. 
 C                    -1.93429  -1.87519   0. 
 C                    -3.17067  -1.20594   0. 
 Cl                   -4.67483  -2.13035   0. 
 Cl                   -4.76193   1.03987   0. 
 Cl                    0.72905   1.19071   0. 
 H                     0.81614  -1.97951   0. 
 H                    -1.8858   -3.64003   0. 
 
 Add virtual bond connecting atoms H11        and C5         Dist= 3.34D+00.
 Add virtual bond connecting atoms H10        and C4         Dist= 3.34D+00.

 GradGradGradGradGradGradGradGradGradGradGradGradGradGradGradGradGradGrad
 Berny optimization.
 Initialization pass.
                           ----------------------------
                           !    Initial Parameters    !
                           ! (Angstroms and Degrees)  !
 --------------------------                            --------------------------
 ! Name  Definition              Value          Derivative Info.                !
 --------------------------------------------------------------------------------
 ! R1    R(1,2)                  1.4059         estimate D2E/DX2                !
 ! R2    R(1,6)                  1.4059         estimate D2E/DX2                !
 ! R3    R(1,8)                  1.7655         estimate D2E/DX2                !
 ! R4    R(2,3)                  1.4059         estimate D2E/DX2                !
 ! R5    R(3,4)                  1.4059         estimate D2E/DX2                !
 ! R6    R(3,9)                  1.7655         estimate D2E/DX2                !
 ! R7    R(4,5)                  1.4059         estimate D2E/DX2                !
 ! R8    R(4,10)                 1.7655         estimate D2E/DX2                !
 ! R9    R(5,6)                  1.4059         estimate D2E/DX2                !
 ! R10   R(5,11)                 1.7655         estimate D2E/DX2                !
 ! R11   R(6,7)                  1.7655         estimate D2E/DX2                !
 ! A1    A(2,1,6)              119.9999         estimate D2E/DX2                !
 ! A2    A(2,1,8)              119.9999         estimate D2E/DX2                !
 ! A3    A(6,1,8)              120.0001         estimate D2E/DX2                !
 ! A4    A(1,2,3)              120.0            estimate D2E/DX2                !
 ! A5    A(2,3,4)              120.0001         estimate D2E/DX2                !
 ! A6    A(2,3,9)              120.0            estimate D2E/DX2                !
 ! A7    A(4,3,9)              119.9999         estimate D2E/DX2                !
 ! A8    A(3,4,5)              119.9997         estimate D2E/DX2                !
 ! A9    A(3,4,10)             120.0003         estimate D2E/DX2                !
 ! A10   A(5,4,10)             120.0            estimate D2E/DX2                !
 ! A11   A(4,5,6)              120.0            estimate D2E/DX2                !
 ! A12   A(4,5,11)             119.9996         estimate D2E/DX2                !
 ! A13   A(6,5,11)             120.0004         estimate D2E/DX2                !
 ! A14   A(1,6,5)              120.0003         estimate D2E/DX2                !
 ! A15   A(1,6,7)              119.9999         estimate D2E/DX2                !
 ! A16   A(5,6,7)              119.9998         estimate D2E/DX2                !
 ! D1    D(6,1,2,3)              0.0            estimate D2E/DX2                !
 ! D2    D(8,1,2,3)            180.0            estimate D2E/DX2                !
 ! D3    D(2,1,6,5)              0.0            estimate D2E/DX2                !
 ! D4    D(2,1,6,7)            180.0            estimate D2E/DX2                !
 ! D5    D(8,1,6,5)            180.0            estimate D2E/DX2                !
 ! D6    D(8,1,6,7)              0.0            estimate D2E/DX2                !
 ! D7    D(1,2,3,4)              0.0            estimate D2E/DX2                !
 ! D8    D(1,2,3,9)            180.0            estimate D2E/DX2                !
 ! D9    D(2,3,4,5)              0.0            estimate D2E/DX2                !
 ! D10   D(2,3,4,10)           180.0            estimate D2E/DX2                !
 ! D11   D(9,3,4,5)            180.0            estimate D2E/DX2                !
 ! D12   D(9,3,4,10)             0.0            estimate D2E/DX2                !
 ! D13   D(3,4,5,6)              0.0            estimate D2E/DX2                !
 ! D14   D(3,4,5,11)           180.0            estimate D2E/DX2                !
 ! D15   D(10,4,5,6)           180.0            estimate D2E/DX2                !
 ! D16   D(10,4,5,11)            0.0            estimate D2E/DX2                !
 ! D17   D(4,5,6,1)              0.0            estimate D2E/DX2                !
 ! D18   D(4,5,6,7)            180.0            estimate D2E/DX2                !
 ! D19   D(11,5,6,1)           180.0            estimate D2E/DX2                !
 ! D20   D(11,5,6,7)             0.0            estimate D2E/DX2                !
 --------------------------------------------------------------------------------
 Trust Radius=3.00D-01 FncErr=1.00D-07 GrdErr=1.00D-07 EigMax=2.50D+02 EigMin=1.00D-04
 Number of steps in this run=     57 maximum allowed number of steps=    100.
 GradGradGradGradGradGradGradGradGradGradGradGradGradGradGradGradGradGrad

                          Input orientation:                          
 ---------------------------------------------------------------------
 Center     Atomic      Atomic             Coordinates (Angstroms)
 Number     Number       Type             X           Y           Z
 ---------------------------------------------------------------------
      1          6           0       -3.209280    0.199430    0.000000
      2          6           0       -2.011500    0.935550    0.000000
      3          6           0       -0.775110    0.266300    0.000000
      4          6           0       -0.736500   -1.139070    0.000000
      5          6           0       -1.934290   -1.875190    0.000000
      6          6           0       -3.170670   -1.205940    0.000000
      7         17           0       -4.674830   -2.130350    0.000000
      8         17           0       -4.761930    1.039870    0.000000
      9         17           0        0.729050    1.190710    0.000000
     10          1           0        0.816140   -1.979510    0.000000
     11          1           0       -1.885800   -3.640030    0.000000
 ---------------------------------------------------------------------
                    Distance matrix (angstroms):
                    1          2          3          4          5
     1  C    0.000000
     2  C    1.405898   0.000000
     3  C    2.435088   1.405900   0.000000
     4  C    2.811801   2.435092   1.405900   0.000000
     5  C    2.435087   2.811800   2.435093   1.405907   0.000000
     6  C    1.405900   2.435088   2.811796   2.435088   1.405892
     7  Cl   2.752401   4.061166   4.577308   4.061167   2.752393
     8  Cl   1.765520   2.752408   4.061175   4.577321   4.061173
     9  Cl   4.061167   2.752403   1.765512   2.752401   4.061173
    10  H    4.577312   4.061173   2.752406   1.765511   2.752408
    11  H    4.061164   4.577306   4.061163   2.752397   1.765506
                    6          7          8          9         10
     6  C    0.000000
     7  Cl   1.765512   0.000000
     8  Cl   2.752412   3.171416   0.000000
     9  Cl   4.577308   6.342819   5.493051   0.000000
    10  H    4.061165   5.493041   6.342832   3.171416   0.000000
    11  H    2.752396   3.171407   5.493049   5.493040   3.171404
                   11
    11  H    0.000000
 Stoichiometry    C6H2Cl3(2)
 Framework group  CS[SG(C6H2Cl3)]
 Deg. of freedom    19
 Full point group                 CS      NOp   2
 Largest Abelian subgroup         CS      NOp   2
 Largest concise Abelian subgroup C1      NOp   1
                         Standard orientation:                         
 ---------------------------------------------------------------------
 Center     Atomic      Atomic             Coordinates (Angstroms)
 Number     Number       Type             X           Y           Z
 ---------------------------------------------------------------------
      1          6           0        0.030860    0.853574    0.000000
      2          6           0        1.248404    0.150625    0.000000
      3          6           0        1.248404   -1.255275    0.000000
      4          6           0        0.030860   -1.958227    0.000000
      5          6           0       -1.186689   -1.255270    0.000000
      6          6           0       -1.186684    0.150621    0.000000
      7         17           0       -2.715662    1.033377    0.000000
      8         17           0        0.030860    2.619094    0.000000
      9         17           0        2.777382   -2.138031    0.000000
     10          1           0        0.030855   -3.723739    0.000000
     11          1           0       -2.715658   -2.138030    0.000000
 ---------------------------------------------------------------------
 Rotational constants (GHZ):           1.8217059           0.5760405           0.4376511
 Standard basis: VSTO-6G (5D, 7F)
 There are    29 symmetry adapted cartesian basis functions of A'  symmetry.
 There are     9 symmetry adapted cartesian basis functions of A"  symmetry.
 There are    29 symmetry adapted basis functions of A'  symmetry.
 There are     9 symmetry adapted basis functions of A"  symmetry.
    38 basis functions,   228 primitive gaussians,    38 cartesian basis functions
    24 alpha electrons       23 beta electrons
       nuclear repulsion energy       238.8629692107 Hartrees.
 Integral buffers will be    131072 words long.
 Regular integral format.
 Two-electron integral symmetry is turned off.
 Do NDO integrals.
 One-electron integrals computed using PRISM.
 NBasis=    38 RedAO= T EigKep=  1.00D+00  NBF=    29     9
 NBsUse=    38 1.00D-06 EigRej= -1.00D+00 NBFU=    29     9
 Simple Huckel Guess.
 Initial guess orbital symmetries:
 Alpha Orbitals:
       Occupied  (A') (A') (A') (A') (A') (A') (A') (A') (A') (A")
                 (A') (A') (A') (A") (A') (A") (A') (A") (A') (A')
                 (A') (A") (A") (A')
       Virtual   (A') (A") (A") (A') (A") (A') (A') (A') (A') (A')
                 (A') (A') (A') (A')
 Beta  Orbitals:
       Occupied  (A') (A') (A') (A') (A') (A') (A') (A') (A') (A")
                 (A') (A') (A') (A") (A') (A") (A') (A") (A') (A')
                 (A') (A") (A")
       Virtual   (A') (A') (A") (A") (A') (A") (A') (A') (A') (A')
                 (A') (A') (A') (A') (A')
 The electronic state of the initial guess is 2-A'.
 Initial guess <Sx>= 0.0000 <Sy>= 0.0000 <Sz>= 0.5000 <S**2>= 0.7500 S= 0.5000
 Keep J ints in memory in canonical form, NReq=863588.
 Overlap will be assumed to be unity.
 Requested convergence on RMS density matrix=1.00D-08 within  32 cycles.
 Requested convergence on MAX density matrix=1.00D-06.
 Requested convergence on             energy=1.00D-06.
 No special actions if energy rises.
 Fock symm off for IB=2 I1=    1 I=   30 J=   22 Cut=1.00D-07 Err=3.13D-03
 Fock matrix is not symmetric: symmetry in diagonalization turned off.
 Rare condition: small coef for last iteration:  0.000D+00
 Rare condition: small coef for last iteration:  0.000D+00
 Rare condition: small coef for last iteration:  0.000D+00
 Rare condition: small coef for last iteration:  0.000D+00
 Rare condition: small coef for last iteration:  0.000D+00
 Rare condition: small coef for last iteration:  0.000D+00
 Rare condition: small coef for last iteration:  0.000D+00
 Rare condition: small coef for last iteration:  0.000D+00
 Rare condition: small coef for last iteration:  0.000D+00
 Rare condition: small coef for last iteration:  0.000D+00
 >>>>>>>>>> Convergence criterion not met.
 SCF Done:  E(UAM1) =  0.351254141598     A.U. after   33 cycles
            NFock= 32  Conv=0.68D-02     -V/T= 1.0031
 <Sx>= 0.0000 <Sy>= 0.0000 <Sz>= 0.5000 <S**2>= 1.2156 S= 0.7106
 <L.S>=  0.00000000000    
 Annihilation of the first spin contaminant:
 S**2 before annihilation     1.2156,   after     0.9595
 Keep J ints in memory in canonical form, NReq=863988.
 LinEq1:  Iter=  0 NonCon=     1 RMS=4.67D-04 Max=4.99D-03 NDo=     1
 AX will form     1 AO Fock derivatives at one time.
 LinEq1:  Iter=  1 NonCon=     1 RMS=1.13D-04 Max=9.01D-04 NDo=     1
 LinEq1:  Iter=  2 NonCon=     1 RMS=2.43D-05 Max=1.79D-04 NDo=     1
 LinEq1:  Iter=  3 NonCon=     1 RMS=5.35D-06 Max=5.49D-05 NDo=     1
 LinEq1:  Iter=  4 NonCon=     1 RMS=1.46D-06 Max=1.38D-05 NDo=     1
 LinEq1:  Iter=  5 NonCon=     1 RMS=4.24D-07 Max=4.07D-06 NDo=     1
 LinEq1:  Iter=  6 NonCon=     1 RMS=1.01D-07 Max=7.29D-07 NDo=     1
 LinEq1:  Iter=  7 NonCon=     1 RMS=2.16D-08 Max=1.75D-07 NDo=     1
 LinEq1:  Iter=  8 NonCon=     1 RMS=6.00D-09 Max=5.35D-08 NDo=     1
 LinEq1:  Iter=  9 NonCon=     0 RMS=1.17D-09 Max=7.91D-09 NDo=     1
 Linear equations converged to 2.610D-09 2.610D-08 after     9 iterations.
 Incorrect curvature in search direction -- initial direction reversed.
 LinEq1:  Iter=  0 NonCon=     1 RMS=5.18D-04 Max=6.77D-03 NDo=     1
 LinEq1:  Iter=  1 NonCon=     1 RMS=1.32D-04 Max=1.12D-03 NDo=     1
 LinEq1:  Iter=  2 NonCon=     1 RMS=2.99D-05 Max=2.90D-04 NDo=     1
 LinEq1:  Iter=  3 NonCon=     1 RMS=5.30D-06 Max=4.99D-05 NDo=     1
 LinEq1:  Iter=  4 NonCon=     1 RMS=1.27D-06 Max=1.46D-05 NDo=     1
 LinEq1:  Iter=  5 NonCon=     1 RMS=3.43D-07 Max=4.37D-06 NDo=     1
 LinEq1:  Iter=  6 NonCon=     1 RMS=8.74D-08 Max=7.94D-07 NDo=     1
 LinEq1:  Iter=  7 NonCon=     1 RMS=1.29D-08 Max=7.67D-08 NDo=     1
 LinEq1:  Iter=  8 NonCon=     1 RMS=2.83D-09 Max=1.86D-08 NDo=     1
 LinEq1:  Iter=  9 NonCon=     0 RMS=9.49D-10 Max=6.34D-09 NDo=     1
 Linear equations converged to 2.610D-09 2.610D-08 after     9 iterations.
     Minimum is close to point  3 DX= -7.19D-03 DF= -1.12D-05 DXR=  8.45D-02 DFR=  7.19D-03 which will be used.
 LinEq1:  Iter=  0 NonCon=     1 RMS=4.23D-04 Max=5.84D-03 NDo=     1
 LinEq1:  Iter=  1 NonCon=     1 RMS=1.18D-04 Max=1.06D-03 NDo=     1
 LinEq1:  Iter=  2 NonCon=     1 RMS=2.89D-05 Max=2.58D-04 NDo=     1
 LinEq1:  Iter=  3 NonCon=     1 RMS=7.02D-06 Max=5.64D-05 NDo=     1
 LinEq1:  Iter=  4 NonCon=     1 RMS=1.90D-06 Max=1.14D-05 NDo=     1
 LinEq1:  Iter=  5 NonCon=     1 RMS=3.82D-07 Max=3.23D-06 NDo=     1
 LinEq1:  Iter=  6 NonCon=     1 RMS=9.88D-08 Max=9.91D-07 NDo=     1
 LinEq1:  Iter=  7 NonCon=     1 RMS=2.16D-08 Max=2.30D-07 NDo=     1
 LinEq1:  Iter=  8 NonCon=     1 RMS=4.61D-09 Max=4.27D-08 NDo=     1
 LinEq1:  Iter=  9 NonCon=     0 RMS=8.20D-10 Max=5.87D-09 NDo=     1
 Linear equations converged to 2.610D-09 2.610D-08 after     9 iterations.
 Incorrect curvature in search direction -- initial direction reversed.
 LinEq1:  Iter=  0 NonCon=     1 RMS=4.37D-04 Max=4.12D-03 NDo=     1
 LinEq1:  Iter=  1 NonCon=     1 RMS=1.18D-04 Max=1.10D-03 NDo=     1
 LinEq1:  Iter=  2 NonCon=     1 RMS=3.77D-05 Max=2.71D-04 NDo=     1
 LinEq1:  Iter=  3 NonCon=     1 RMS=5.01D-06 Max=4.73D-05 NDo=     1
 LinEq1:  Iter=  4 NonCon=     1 RMS=9.15D-07 Max=8.79D-06 NDo=     1
 LinEq1:  Iter=  5 NonCon=     1 RMS=2.40D-07 Max=2.88D-06 NDo=     1
 LinEq1:  Iter=  6 NonCon=     1 RMS=6.38D-08 Max=5.72D-07 NDo=     1
 LinEq1:  Iter=  7 NonCon=     1 RMS=1.22D-08 Max=6.71D-08 NDo=     1
 LinEq1:  Iter=  8 NonCon=     1 RMS=2.90D-09 Max=2.78D-08 NDo=     1
 LinEq1:  Iter=  9 NonCon=     0 RMS=6.42D-10 Max=3.74D-09 NDo=     1
 Linear equations converged to 2.610D-09 2.610D-08 after     9 iterations.
     Accept linear search using points  1 and  2.
 LinEq1:  Iter=  0 NonCon=     1 RMS=5.00D-05 Max=3.97D-04 NDo=     1
 LinEq1:  Iter=  1 NonCon=     1 RMS=1.07D-05 Max=7.11D-05 NDo=     1
 LinEq1:  Iter=  2 NonCon=     1 RMS=4.08D-06 Max=3.40D-05 NDo=     1
 LinEq1:  Iter=  3 NonCon=     1 RMS=5.97D-07 Max=3.67D-06 NDo=     1
 LinEq1:  Iter=  4 NonCon=     1 RMS=1.06D-07 Max=1.14D-06 NDo=     1
 LinEq1:  Iter=  5 NonCon=     1 RMS=2.81D-08 Max=2.34D-07 NDo=     1
 LinEq1:  Iter=  6 NonCon=     1 RMS=7.80D-09 Max=8.66D-08 NDo=     1
 LinEq1:  Iter=  7 NonCon=     0 RMS=1.47D-09 Max=1.16D-08 NDo=     1
 Linear equations converged to 2.610D-09 2.610D-08 after     7 iterations.
     Minimum is close to point  2 DX=  5.74D-03 DF= -6.96D-11 DXR=  5.71D-03 DFR=  3.26D-05 which will be used.
 LinEq1:  Iter=  0 NonCon=     1 RMS=7.43D-07 Max=6.28D-06 NDo=     1
 LinEq1:  Iter=  1 NonCon=     1 RMS=2.12D-07 Max=1.55D-06 NDo=     1
 LinEq1:  Iter=  2 NonCon=     1 RMS=5.43D-08 Max=4.24D-07 NDo=     1
 LinEq1:  Iter=  3 NonCon=     1 RMS=1.37D-08 Max=1.35D-07 NDo=     1
 LinEq1:  Iter=  4 NonCon=     1 RMS=2.70D-09 Max=1.96D-08 NDo=     1
 LinEq1:  Iter=  5 NonCon=     1 RMS=5.48D-10 Max=6.28D-09 NDo=     1
 LinEq1:  Iter=  6 NonCon=     1 RMS=1.44D-10 Max=1.55D-09 NDo=     1
 LinEq1:  Iter=  7 NonCon=     0 RMS=3.13D-11 Max=2.19D-10 NDo=     1
 Linear equations converged to 1.127D-10 1.127D-09 after     7 iterations.
 LinEq1:  Iter=  0 NonCon=     1 RMS=1.76D-08 Max=1.23D-07 NDo=     1
 LinEq1:  Iter=  1 NonCon=     1 RMS=5.16D-09 Max=3.63D-08 NDo=     1
 LinEq1:  Iter=  2 NonCon=     1 RMS=1.32D-09 Max=9.59D-09 NDo=     1
 LinEq1:  Iter=  3 NonCon=     1 RMS=2.84D-10 Max=2.80D-09 NDo=     1
 LinEq1:  Iter=  4 NonCon=     1 RMS=6.03D-11 Max=4.44D-10 NDo=     1
 LinEq1:  Iter=  5 NonCon=     1 RMS=1.31D-11 Max=1.16D-10 NDo=     1
 LinEq1:  Iter=  6 NonCon=     1 RMS=3.09D-12 Max=2.48D-11 NDo=     1
 LinEq1:  Iter=  7 NonCon=     0 RMS=8.31D-13 Max=6.67D-12 NDo=     1
 Linear equations converged to 2.790D-12 2.790D-11 after     7 iterations.
 QCLLim is confused:  Bigger=F Turned=T
 NLin=  3 IMin12=  2  3 I12=  1  1 IX=  2 XLMin= 0.000D+00 XLMax= 0.000D+00
 X = 0.000D+00 1.000D+00 5.000D-01
 DE= 0.000D+00-1.421D-13-8.527D-14
 QCLLim is confused:  Bigger=F Turned=T
 NLin=  4 IMin12=  2  3 I12=  1  1 IX=  2 XLMin= 0.000D+00 XLMax= 0.000D+00
 X = 0.000D+00 1.000D+00 5.000D-01 3.000D-01
 DE= 0.000D+00-1.421D-13-8.527D-14 1.421D-13
 QCLLim is confused:  Bigger=F Turned=T
 NLin=  5 IMin12=  2  3 I12=  1  1 IX=  2 XLMin= 0.000D+00 XLMax= 0.000D+00
 X = 0.000D+00 1.000D+00 5.000D-01 3.000D-01 1.000D-01
 DE= 0.000D+00-1.421D-13-8.527D-14 1.421D-13-8.527D-14
 QCLLim is confused:  Bigger=F Turned=T
 NLin=  6 IMin12=  2  3 I12=  1  1 IX=  2 XLMin= 0.000D+00 XLMax= 0.000D+00
 X = 0.000D+00 1.000D+00 5.000D-01 3.000D-01 1.000D-01 6.250D-02
 DE= 0.000D+00-1.421D-13-8.527D-14 1.421D-13-8.527D-14-2.842D-14
 QCLLim is confused:  Bigger=F Turned=T
 NLin=  7 IMin12=  2  3 I12=  1  1 IX=  2 XLMin= 0.000D+00 XLMax= 0.000D+00
 X = 0.000D+00 1.000D+00 5.000D-01 3.000D-01 1.000D-01 6.250D-02 3.125D-02
 DE= 0.000D+00-1.421D-13-8.527D-14 1.421D-13-8.527D-14-2.842D-14 1.421D-13
 QCLLim is confused:  Bigger=F Turned=T
 NLin=  8 IMin12=  2  3 I12=  1  1 IX=  2 XLMin= 0.000D+00 XLMax= 0.000D+00
 X = 0.000D+00 1.000D+00 5.000D-01 3.000D-01 1.000D-01 6.250D-02 3.125D-02 1.563D-02
 DE= 0.000D+00-1.421D-13-8.527D-14 1.421D-13-8.527D-14-2.842D-14 1.421D-13 1.421D-13
 QCLLim is confused:  Bigger=F Turned=T
 NLin=  9 IMin12=  2  3 I12=  1  1 IX=  2 XLMin= 0.000D+00 XLMax= 0.000D+00
 X = 0.000D+00 1.000D+00 5.000D-01 3.000D-01 1.000D-01 6.250D-02 3.125D-02 1.563D-02 7.813D-03
 DE= 0.000D+00-1.421D-13-8.527D-14 1.421D-13-8.527D-14-2.842D-14 1.421D-13 1.421D-13-2.842D-14
 QCLLim is confused:  Bigger=F Turned=T
 NLin= 10 IMin12=  2  3 I12=  1  1 IX=  2 XLMin= 0.000D+00 XLMax= 0.000D+00
 X = 0.000D+00 1.000D+00 5.000D-01 3.000D-01 1.000D-01 6.250D-02 3.125D-02 1.563D-02 7.813D-03 3.906D-03
 DE= 0.000D+00-1.421D-13-8.527D-14 1.421D-13-8.527D-14-2.842D-14 1.421D-13 1.421D-13-2.842D-14-2.842D-14
 QCLLim is confused:  Bigger=F Turned=T
 NLin= 11 IMin12=  2  3 I12=  1  1 IX=  2 XLMin= 0.000D+00 XLMax= 0.000D+00
 X = 0.000D+00 1.000D+00 5.000D-01 3.000D-01 1.000D-01 6.250D-02 3.125D-02 1.563D-02 7.813D-03 3.906D-03 1.953D-03
 DE= 0.000D+00-1.421D-13-8.527D-14 1.421D-13-8.527D-14-2.842D-14 1.421D-13 1.421D-13-2.842D-14-2.842D-14 5.684D-14
 SCF Done:  E(UAM1) =  0.342641343274     a.u. after    8 cycles
            Convg  =    0.3523D-08                    90 Fock formations.
              S**2 =  1.8719                  -V/T =  1.0031
 <Sx>= 0.0000 <Sy>= 0.0000 <Sz>= 0.5000 <S**2>= 1.8719 S= 0.9567
 <L.S>=  0.00000000000    
 Annihilation of the first spin contaminant:
 S**2 before annihilation     1.8719,   after     2.5333

 **********************************************************************

            Population analysis using the SCF Density.

 **********************************************************************

 Orbital symmetries:
 Alpha Orbitals:
       Occupied  (A') (A') (A') (A') (A') (A') (A') (A') (A') (A')
                 (A') (A") (A') (A") (A") (A') (A') (A') (A') (A")
                 (A') (A') (A") (A")
       Virtual   (A') (A") (A") (A') (A') (A') (A') (A") (A') (A')
                 (A') (A') (A') (A')
 Beta  Orbitals:
       Occupied  (A') (A') (A') (A') (A') (A') (A') (A') (A') (A')
                 (A') (A") (A') (A") (A") (A') (A') (A') (A") (A')
                 (A') (A") (A")
       Virtual   (A') (A") (A') (A') (A") (A') (A') (A') (A") (A')
                 (A') (A') (A') (A') (A')
 The electronic state is 2-A'.
 Alpha  occ. eigenvalues --   -1.44622  -1.38799  -1.37801  -1.36035  -1.13985
 Alpha  occ. eigenvalues --   -1.12379  -0.85928  -0.84007  -0.64443  -0.62492
 Alpha  occ. eigenvalues --   -0.60982  -0.55788  -0.54867  -0.49750  -0.47220
 Alpha  occ. eigenvalues --   -0.46761  -0.46116  -0.45777  -0.44450  -0.43918
 Alpha  occ. eigenvalues --   -0.43407  -0.39903  -0.39149  -0.37247
 Alpha virt. eigenvalues --   -0.01086  -0.00779   0.00283   0.01108   0.01843
 Alpha virt. eigenvalues --    0.03302   0.04577   0.07467   0.12721   0.12982
 Alpha virt. eigenvalues --    0.14873   0.15126   0.16380   0.17952
  Beta  occ. eigenvalues --   -1.44081  -1.38771  -1.37750  -1.35760  -1.13477
  Beta  occ. eigenvalues --   -1.11074  -0.85270  -0.81986  -0.64760  -0.62046
  Beta  occ. eigenvalues --   -0.59871  -0.55625  -0.53893  -0.50215  -0.47445
  Beta  occ. eigenvalues --   -0.46776  -0.45387  -0.44267  -0.43844  -0.43376
  Beta  occ. eigenvalues --   -0.42129  -0.37972  -0.37109
  Beta virt. eigenvalues --   -0.03844  -0.00411   0.00296   0.00847   0.01719
  Beta virt. eigenvalues --    0.02219   0.03379   0.04466   0.08169   0.13179
  Beta virt. eigenvalues --    0.13551   0.15412   0.16568   0.16962   0.18367
          Condensed to atoms (all electrons):
               1          2          3          4          5          6
     1  C    4.049109   0.000000   0.000000   0.000000   0.000000   0.000000
     2  C    0.000000   3.989433   0.000000   0.000000   0.000000   0.000000
     3  C    0.000000   0.000000   4.044027   0.000000   0.000000   0.000000
     4  C    0.000000   0.000000   0.000000   4.128069   0.000000   0.000000
     5  C    0.000000   0.000000   0.000000   0.000000   4.122769   0.000000
     6  C    0.000000   0.000000   0.000000   0.000000   0.000000   4.033318
     7  Cl   0.000000   0.000000   0.000000   0.000000   0.000000   0.000000
     8  Cl   0.000000   0.000000   0.000000   0.000000   0.000000   0.000000
     9  Cl   0.000000   0.000000   0.000000   0.000000   0.000000   0.000000
    10  H    0.000000   0.000000   0.000000   0.000000   0.000000   0.000000
    11  H    0.000000   0.000000   0.000000   0.000000   0.000000   0.000000
               7          8          9         10         11
     1  C    0.000000   0.000000   0.000000   0.000000   0.000000
     2  C    0.000000   0.000000   0.000000   0.000000   0.000000
     3  C    0.000000   0.000000   0.000000   0.000000   0.000000
     4  C    0.000000   0.000000   0.000000   0.000000   0.000000
     5  C    0.000000   0.000000   0.000000   0.000000   0.000000
     6  C    0.000000   0.000000   0.000000   0.000000   0.000000
     7  Cl   7.003414   0.000000   0.000000   0.000000   0.000000
     8  Cl   0.000000   6.991151   0.000000   0.000000   0.000000
     9  Cl   0.000000   0.000000   7.010191   0.000000   0.000000
    10  H    0.000000   0.000000   0.000000   0.806150   0.000000
    11  H    0.000000   0.000000   0.000000   0.000000   0.822369
          Atomic-Atomic Spin Densities.
               1          2          3          4          5          6
     1  C   -0.563529   0.000000   0.000000   0.000000   0.000000   0.000000
     2  C    0.000000   1.501686   0.000000   0.000000   0.000000   0.000000
     3  C    0.000000   0.000000  -0.572089   0.000000   0.000000   0.000000
     4  C    0.000000   0.000000   0.000000   0.949555   0.000000   0.000000
     5  C    0.000000   0.000000   0.000000   0.000000  -0.970130   0.000000
     6  C    0.000000   0.000000   0.000000   0.000000   0.000000   0.571788
     7  Cl   0.000000   0.000000   0.000000   0.000000   0.000000   0.000000
     8  Cl   0.000000   0.000000   0.000000   0.000000   0.000000   0.000000
     9  Cl   0.000000   0.000000   0.000000   0.000000   0.000000   0.000000
    10  H    0.000000   0.000000   0.000000   0.000000   0.000000   0.000000
    11  H    0.000000   0.000000   0.000000   0.000000   0.000000   0.000000
               7          8          9         10         11
     1  C    0.000000   0.000000   0.000000   0.000000   0.000000
     2  C    0.000000   0.000000   0.000000   0.000000   0.000000
     3  C    0.000000   0.000000   0.000000   0.000000   0.000000
     4  C    0.000000   0.000000   0.000000   0.000000   0.000000
     5  C    0.000000   0.000000   0.000000   0.000000   0.000000
     6  C    0.000000   0.000000   0.000000   0.000000   0.000000
     7  Cl   0.005035   0.000000   0.000000   0.000000   0.000000
     8  Cl   0.000000   0.008962   0.000000   0.000000   0.000000
     9  Cl   0.000000   0.000000   0.010553   0.000000   0.000000
    10  H    0.000000   0.000000   0.000000  -0.400239   0.000000
    11  H    0.000000   0.000000   0.000000   0.000000   0.458408
 Mulliken charges and spin densities:
               1          2
     1  C   -0.049109  -0.563529
     2  C    0.010567   1.501686
     3  C   -0.044027  -0.572089
     4  C   -0.128069   0.949555
     5  C   -0.122769  -0.970130
     6  C   -0.033318   0.571788
     7  Cl  -0.003414   0.005035
     8  Cl   0.008849   0.008962
     9  Cl  -0.010191   0.010553
    10  H    0.193850  -0.400239
    11  H    0.177631   0.458408
 Sum of Mulliken charges =  -0.00000   1.00000
 Mulliken charges and spin densities with hydrogens summed into heavy atoms:
               1          2
     1  C   -0.049109  -0.563529
     2  C    0.010567   1.501686
     3  C   -0.044027  -0.572089
     4  C    0.065781   0.549316
     5  C    0.054862  -0.511722
     6  C   -0.033318   0.571788
     7  Cl  -0.003414   0.005035
     8  Cl   0.008849   0.008962
     9  Cl  -0.010191   0.010553
 Charge=              0.0000 electrons
 Dipole moment (field-independent basis, Debye):
    X=             -1.5215    Y=             -2.7553    Z=              0.0000  Tot=              3.1475
 N-N= 2.388629692107D+02 E-N=-3.310879066118D+02  KE=-1.117656724347D+02
 Symmetry A'   KE=-8.578484438669D+01
 Symmetry A"   KE=-2.598082804799D+01
 Symmetry A'   SP= 1.000000000000D+00
 Symmetry A"   SP= 2.220446049250D-16
 Calling FoFJK, ICntrl=      2127 FMM=F ISym2X=1 I1Cent= 0 IOpClX= 1 NMat=1 NMatS=1 NMatT=0.
 ***** Axes restored to original set *****
 -------------------------------------------------------------------
 Center     Atomic                   Forces (Hartrees/Bohr)
 Number     Number              X              Y              Z
 -------------------------------------------------------------------
      1        6          -0.024583780    0.043634602    0.000000000
      2        6           0.001112435   -0.058399805   -0.000000000
      3        6           0.028473629    0.026713183    0.000000000
      4        6           0.044491222   -0.048676393    0.000000000
      5        6           0.021527937   -0.056943043    0.000000000
      6        6          -0.016125448   -0.034235052    0.000000000
      7       17           0.035241908    0.019076055    0.000000000
      8       17           0.036808162   -0.016944442    0.000000000
      9       17          -0.034078529   -0.021175423    0.000000000
     10        1          -0.089502660    0.049569135   -0.000000000
     11        1          -0.003364877    0.097381183   -0.000000000
 -------------------------------------------------------------------
 Cartesian Forces:  Max     0.097381183 RMS     0.035569470

 GradGradGradGradGradGradGradGradGradGradGradGradGradGradGradGradGradGrad
 Berny optimization.
 FormGI is forming the generalized inverse of G from B-inverse, IUseBI=4.
 Internal  Forces:  Max     0.102307636 RMS     0.025575979
 Search for a local minimum.
 Step number   1 out of a maximum of   57
 All quantities printed in internal units (Hartrees-Bohrs-Radians)
 Mixed Optimization -- RFO/linear search
 Second derivative matrix not updated -- first step.
 ITU=  0
     Eigenvalues ---    0.02011   0.02011   0.02011   0.02011   0.02011
     Eigenvalues ---    0.02011   0.02011   0.02011   0.06524   0.06524
     Eigenvalues ---    0.16000   0.16000   0.22472   0.24476   0.25000
     Eigenvalues ---    0.25000   0.25000   0.25000   0.29033   0.29033
     Eigenvalues ---    0.29033   0.41073   0.41425   0.44656   0.44657
     Eigenvalues ---    0.44657   0.44657
 RFO step:  Lambda=-1.27148834D-01 EMin= 2.01065740D-02
 Linear search not attempted -- first point.
 Maximum step size (   0.300) exceeded in Quadratic search.
    -- Step size scaled by   0.390
 Iteration  1 RMS(Cart)=  0.04601947 RMS(Int)=  0.00108863
 Iteration  2 RMS(Cart)=  0.00105067 RMS(Int)=  0.00001070
 Iteration  3 RMS(Cart)=  0.00000012 RMS(Int)=  0.00001069
 ClnCor:  largest displacement from symmetrization is 6.18D-09 for atom     8.
 Variable       Old X    -DE/DX   Delta X   Delta X   Delta X     New X
                                 (Linear)    (Quad)   (Total)
    R1        2.65676  -0.02970   0.00000  -0.01985  -0.01984   2.63693
    R2        2.65677  -0.00224   0.00000  -0.00104  -0.00104   2.65572
    R3        3.33635  -0.04044   0.00000  -0.03778  -0.03778   3.29857
    R4        2.65677  -0.02989   0.00000  -0.02047  -0.02045   2.63632
    R5        2.65677  -0.02413   0.00000  -0.01689  -0.01689   2.63988
    R6        3.33633  -0.04012   0.00000  -0.03749  -0.03749   3.29885
    R7        2.65678  -0.03969   0.00000  -0.02733  -0.02734   2.62944
    R8        3.33633  -0.10231   0.00000  -0.20744  -0.20744   3.12889
    R9        2.65675  -0.02097   0.00000  -0.01411  -0.01413   2.64262
   R10        3.33632  -0.09744   0.00000  -0.19756  -0.19756   3.13876
   R11        3.33633  -0.04001   0.00000  -0.03739  -0.03739   3.29895
    A1        2.09439  -0.01559   0.00000  -0.01503  -0.01503   2.07937
    A2        2.09439   0.00342   0.00000   0.00300   0.00299   2.09739
    A3        2.09440   0.01216   0.00000   0.01204   0.01203   2.10643
    A4        2.09439   0.02314   0.00000   0.02409   0.02413   2.11853
    A5        2.09440  -0.01478   0.00000  -0.01647  -0.01645   2.07795
    A6        2.09440   0.00772   0.00000   0.00857   0.00857   2.10296
    A7        2.09439   0.00706   0.00000   0.00789   0.00788   2.10228
    A8        2.09439   0.00532   0.00000   0.00436   0.00435   2.09874
    A9        2.09440  -0.00430   0.00000  -0.00442  -0.00441   2.08999
   A10        2.09440  -0.00101   0.00000   0.00005   0.00006   2.09446
   A11        2.09439   0.00940   0.00000   0.01001   0.00998   2.10438
   A12        2.09439  -0.00355   0.00000  -0.00345  -0.00343   2.09096
   A13        2.09440  -0.00585   0.00000  -0.00657  -0.00655   2.08785
   A14        2.09440  -0.00750   0.00000  -0.00697  -0.00699   2.08741
   A15        2.09439   0.00742   0.00000   0.00728   0.00729   2.10169
   A16        2.09439   0.00008   0.00000  -0.00031  -0.00030   2.09409
    D1        0.00000  -0.00000   0.00000  -0.00000   0.00000   0.00000
    D2        3.14159   0.00000   0.00000   0.00000   0.00000   3.14159
    D3        0.00000  -0.00000   0.00000  -0.00000   0.00000   0.00000
    D4        3.14159   0.00000   0.00000   0.00000   0.00000   3.14159
    D5        3.14159  -0.00000   0.00000  -0.00000   0.00000   3.14159
    D6        0.00000  -0.00000   0.00000  -0.00000   0.00000   0.00000
    D7        0.00000   0.00000   0.00000   0.00000   0.00000   0.00000
    D8        3.14159  -0.00000   0.00000  -0.00000   0.00000   3.14159
    D9        0.00000  -0.00000   0.00000  -0.00000   0.00000   0.00000
   D10        3.14159  -0.00000   0.00000  -0.00000   0.00000   3.14159
   D11        3.14159   0.00000   0.00000   0.00000   0.00000   3.14159
   D12        0.00000  -0.00000   0.00000  -0.00000   0.00000   0.00000
   D13        0.00000  -0.00000   0.00000  -0.00000   0.00000   0.00000
   D14        3.14159  -0.00000   0.00000  -0.00000   0.00000   3.14159
   D15        3.14159   0.00000   0.00000   0.00000   0.00000   3.14159
   D16        0.00000   0.00000   0.00000   0.00000   0.00000   0.00000
   D17        0.00000   0.00000   0.00000   0.00000   0.00000   0.00000
   D18        3.14159   0.00000   0.00000  -0.00000   0.00000   3.14159
   D19        3.14159   0.00000   0.00000   0.00000   0.00000   3.14159
   D20        0.00000   0.00000   0.00000   0.00000   0.00000   0.00000
         Item               Value     Threshold  Converged?
 Maximum Force            0.102308     0.000450     NO 
 RMS     Force            0.025576     0.000300     NO 
 Maximum Displacement     0.197093     0.001800     NO 
 RMS     Displacement     0.046704     0.001200     NO 
 Predicted change in Energy=-4.564658D-02
 GradGradGradGradGradGradGradGradGradGradGradGradGradGradGradGradGradGrad

                          Input orientation:                          
 ---------------------------------------------------------------------
 Center     Atomic      Atomic             Coordinates (Angstroms)
 Number     Number       Type             X           Y           Z
 ---------------------------------------------------------------------
      1          6           0       -3.201506    0.185057    0.000000
      2          6           0       -2.002592    0.899023    0.000000
      3          6           0       -0.769020    0.247450    0.000000
      4          6           0       -0.739408   -1.149199    0.000000
      5          6           0       -1.926266   -1.875470    0.000000
      6          6           0       -3.161402   -1.219719    0.000000
      7         17           0       -4.641007   -2.146182    0.000000
      8         17           0       -4.727374    1.032753    0.000000
      9         17           0        0.716759    1.163876    0.000000
     10          1           0        0.715230   -1.940086    0.000000
     11          1           0       -1.878135   -3.535733    0.000000
 ---------------------------------------------------------------------
                    Distance matrix (angstroms):
                    1          2          3          4          5
     1  C    0.000000
     2  C    1.395401   0.000000
     3  C    2.433286   1.395079   0.000000
     4  C    2.800386   2.406417   1.396963   0.000000
     5  C    2.423222   2.775542   2.417851   1.391439   0.000000
     6  C    1.405348   2.414935   2.806435   2.423020   1.398417
     7  Cl   2.739861   4.029207   4.552116   4.026965   2.728205
     8  Cl   1.745526   2.728062   4.035500   4.545853   4.037817
     9  Cl   4.038674   2.732218   1.745674   2.733265   4.027804
    10  H    4.456125   3.930279   2.643542   1.655740   2.642286
    11  H    3.949125   4.436502   3.942412   2.644285   1.660961
                    6          7          8          9         10
     6  C    0.000000
     7  Cl   1.745727   0.000000
     8  Cl   2.743337   3.180108   0.000000
     9  Cl   4.552105   6.297789   5.445712   0.000000
    10  H    3.942994   5.360200   6.201589   3.103963   0.000000
    11  H    2.647772   3.092623   5.384165   5.368408   3.044935
                   11
    11  H    0.000000
 Stoichiometry    C6H2Cl3(2)
 Framework group  CS[SG(C6H2Cl3)]
 Deg. of freedom    19
 Full point group                 CS      NOp   2
 Largest Abelian subgroup         CS      NOp   2
 Largest concise Abelian subgroup C1      NOp   1
                         Standard orientation:                         
 ---------------------------------------------------------------------
 Center     Atomic      Atomic             Coordinates (Angstroms)
 Number     Number       Type             X           Y           Z
 ---------------------------------------------------------------------
      1          6           0        0.000000    0.857849    0.000000
      2          6           0        1.221786    0.183769    0.000000
      3          6           0        1.282553   -1.209985    0.000000
      4          6           0        0.092137   -1.941021    0.000000
      5          6           0       -1.134179   -1.283563    0.000000
      6          6           0       -1.192131    0.113652    0.000000
      7         17           0       -2.739094    0.922644    0.000000
      8         17           0       -0.039149    2.602936    0.000000
      9         17           0        2.823974   -2.029375    0.000000
     10          1           0        0.144334   -3.595938    0.000000
     11          1           0       -2.542752   -2.163740    0.000000
 ---------------------------------------------------------------------
 Rotational constants (GHZ):           1.8356294           0.5857253           0.4440384
 Standard basis: VSTO-6G (5D, 7F)
 There are    29 symmetry adapted cartesian basis functions of A'  symmetry.
 There are     9 symmetry adapted cartesian basis functions of A"  symmetry.
 There are    29 symmetry adapted basis functions of A'  symmetry.
 There are     9 symmetry adapted basis functions of A"  symmetry.
    38 basis functions,   228 primitive gaussians,    38 cartesian basis functions
    24 alpha electrons       23 beta electrons
       nuclear repulsion energy       240.1626169804 Hartrees.
 Integral buffers will be    131072 words long.
 Regular integral format.
 Two-electron integral symmetry is turned off.
 Do NDO integrals.
 One-electron integrals computed using PRISM.
 NBasis=    38 RedAO= T EigKep=  1.00D+00  NBF=    29     9
 NBsUse=    38 1.00D-06 EigRej= -1.00D+00 NBFU=    29     9
 Initial guess from the checkpoint file:  "geometry_chks/1234-12_4-ClBzNeutralRadical.chk"
 B after Tr=    -0.000000   -0.000000    0.000000
         Rot=    0.999863    0.000000   -0.000000   -0.016543 Ang=  -1.90 deg.
 Initial guess orbital symmetries:
 Alpha Orbitals:
       Occupied  (A') (A') (A') (A') (A') (A') (A') (A') (A') (A')
                 (A') (A") (A') (A") (A") (A') (A') (A') (A') (A")
                 (A') (A') (A") (A")
       Virtual   (A') (A") (A") (A') (A') (A') (A') (A") (A') (A')
                 (A') (A') (A') (A')
 Beta  Orbitals:
       Occupied  (A') (A') (A') (A') (A') (A') (A') (A') (A') (A')
                 (A') (A") (A') (A") (A") (A') (A') (A') (A") (A')
                 (A') (A") (A")
       Virtual   (A') (A") (A') (A') (A") (A') (A') (A') (A") (A')
                 (A') (A') (A') (A') (A')
 Initial guess <Sx>= 0.0000 <Sy>= 0.0000 <Sz>= 0.5000 <S**2>= 1.8719 S= 0.9567
 Keep J ints in memory in canonical form, NReq=863588.
 Overlap will be assumed to be unity.
 Requested convergence on RMS density matrix=1.00D-08 within  32 cycles.
 Requested convergence on MAX density matrix=1.00D-06.
 Requested convergence on             energy=1.00D-06.
 No special actions if energy rises.
 Fock symm off for IB=2 I1=    1 I=   30 J=   16 Cut=1.00D-07 Err=4.25D-03
 Fock matrix is not symmetric: symmetry in diagonalization turned off.
 SCF Done:  E(UAM1) =  0.289706474538     A.U. after   20 cycles
            NFock= 19  Conv=0.99D-08     -V/T= 1.0026
 <Sx>= 0.0000 <Sy>= 0.0000 <Sz>= 0.5000 <S**2>= 1.3870 S= 0.7795
 <L.S>=  0.00000000000    
 Annihilation of the first spin contaminant:
 S**2 before annihilation     1.3870,   after     1.1688
 QCSCF skips out because SCF is already converged.
 Calling FoFJK, ICntrl=      2127 FMM=F ISym2X=1 I1Cent= 0 IOpClX= 1 NMat=1 NMatS=1 NMatT=0.
 ***** Axes restored to original set *****
 -------------------------------------------------------------------
 Center     Atomic                   Forces (Hartrees/Bohr)
 Number     Number              X              Y              Z
 -------------------------------------------------------------------
      1        6          -0.024117335    0.037590498   -0.000000000
      2        6          -0.000240898   -0.043225542   -0.000000000
      3        6           0.027538160    0.028164245   -0.000000000
      4        6           0.078418636   -0.061583319    0.000000000
      5        6           0.016079211   -0.094552046    0.000000000
      6        6          -0.017084459   -0.027664930    0.000000000
      7       17           0.026534550    0.014838065   -0.000000000
      8       17           0.028283959   -0.013518185   -0.000000000
      9       17          -0.025959330   -0.016085241   -0.000000000
     10        1          -0.105215971    0.058332067   -0.000000000
     11        1          -0.004236522    0.117704390   -0.000000000
 -------------------------------------------------------------------
 Cartesian Forces:  Max     0.117704390 RMS     0.041486586

 GradGradGradGradGradGradGradGradGradGradGradGradGradGradGradGradGradGrad
 Berny optimization.
 Using GEDIIS/GDIIS optimizer.
 FormGI is forming the generalized inverse of G from B-inverse, IUseBI=4.
 Internal  Forces:  Max     0.120299842 RMS     0.026726249
 Search for a local minimum.
 Step number   2 out of a maximum of   57
 All quantities printed in internal units (Hartrees-Bohrs-Radians)
 Mixed Optimization -- RFO/linear search
 Update second derivatives using D2CorX and points    1    2
 DE= -5.29D-02 DEPred=-4.56D-02 R= 1.16D+00
 TightC=F SS=  1.41D+00  RLast= 3.00D-01 DXNew= 5.0454D-01 9.0000D-01
 Trust test= 1.16D+00 RLast= 3.00D-01 DXMaxT set to 5.05D-01
 ITU=  1  0
 Use linear search instead of GDIIS.
     Eigenvalues ---   -0.19552   0.02011   0.02011   0.02011   0.02011
     Eigenvalues ---    0.02011   0.02011   0.02011   0.02011   0.06172
     Eigenvalues ---    0.07996   0.15999   0.16005   0.22489   0.24630
     Eigenvalues ---    0.24983   0.25000   0.25000   0.25460   0.29032
     Eigenvalues ---    0.29033   0.35311   0.41311   0.41460   0.44579
     Eigenvalues ---    0.44657   0.44657
 RFO step:  Lambda=-2.62102287D-01 EMin=-1.95517221D-01
 Skip linear search -- no minimum in search direction.
 Maximum step size (   0.505) exceeded in Quadratic search.
    -- Step size scaled by   0.465
 Iteration  1 RMS(Cart)=  0.03378903 RMS(Int)=  0.03134610
 Iteration  2 RMS(Cart)=  0.02914840 RMS(Int)=  0.00001646
 Iteration  3 RMS(Cart)=  0.00000865 RMS(Int)=  0.00001577
 Iteration  4 RMS(Cart)=  0.00000000 RMS(Int)=  0.00001577
 ClnCor:  largest displacement from symmetrization is 1.01D-08 for atom    10.
 Variable       Old X    -DE/DX   Delta X   Delta X   Delta X     New X
                                 (Linear)    (Quad)   (Total)
    R1        2.63693  -0.01835   0.00000   0.02088   0.02086   2.65779
    R2        2.65572   0.00284   0.00000   0.02114   0.02112   2.67684
    R3        3.29857  -0.03129   0.00000   0.00025   0.00025   3.29882
    R4        2.63632  -0.01763   0.00000   0.02536   0.02536   2.66168
    R5        2.63988  -0.00999   0.00000   0.04112   0.04114   2.68102
    R6        3.29885  -0.03054   0.00000   0.00324   0.00324   3.30208
    R7        2.62944  -0.02116   0.00000   0.04531   0.04533   2.67477
    R8        3.12889  -0.12030   0.00000  -0.34576  -0.34576   2.78314
    R9        2.64262  -0.00915   0.00000   0.03341   0.03340   2.67602
   R10        3.13876  -0.11778   0.00000  -0.35784  -0.35784   2.78092
   R11        3.29895  -0.03036   0.00000   0.00377   0.00377   3.30272
    A1        2.07937  -0.01267   0.00000  -0.00492  -0.00496   2.07440
    A2        2.09739   0.00317   0.00000   0.00390   0.00392   2.10131
    A3        2.10643   0.00950   0.00000   0.00102   0.00104   2.10747
    A4        2.11853   0.02091   0.00000   0.01691   0.01690   2.13543
    A5        2.07795  -0.01308   0.00000  -0.00965  -0.00961   2.06833
    A6        2.10296   0.00664   0.00000   0.00387   0.00385   2.10681
    A7        2.10228   0.00644   0.00000   0.00578   0.00577   2.10804
    A8        2.09874   0.00313   0.00000  -0.00489  -0.00484   2.09390
    A9        2.08999  -0.00311   0.00000   0.00052   0.00050   2.09049
   A10        2.09446  -0.00002   0.00000   0.00437   0.00434   2.09880
   A11        2.10438   0.00706   0.00000  -0.00023  -0.00022   2.10416
   A12        2.09096  -0.00224   0.00000   0.00302   0.00301   2.09397
   A13        2.08785  -0.00482   0.00000  -0.00279  -0.00279   2.08505
   A14        2.08741  -0.00536   0.00000   0.00277   0.00274   2.09015
   A15        2.10169   0.00516   0.00000  -0.00368  -0.00367   2.09802
   A16        2.09409   0.00019   0.00000   0.00091   0.00093   2.09502
    D1        0.00000  -0.00000   0.00000  -0.00000   0.00000   0.00000
    D2        3.14159   0.00000   0.00000   0.00000   0.00000   3.14159
    D3        0.00000  -0.00000   0.00000  -0.00000   0.00000   0.00000
    D4        3.14159   0.00000   0.00000   0.00000   0.00000   3.14159
    D5        3.14159  -0.00000   0.00000  -0.00000   0.00000   3.14159
    D6        0.00000   0.00000   0.00000   0.00000   0.00000   0.00000
    D7        0.00000   0.00000   0.00000   0.00000   0.00000   0.00000
    D8        3.14159  -0.00000   0.00000  -0.00000   0.00000   3.14159
    D9        0.00000   0.00000   0.00000   0.00000   0.00000   0.00000
   D10        3.14159  -0.00000   0.00000  -0.00000   0.00000   3.14159
   D11        3.14159   0.00000   0.00000   0.00000   0.00000   3.14159
   D12        0.00000  -0.00000   0.00000  -0.00000   0.00000   0.00000
   D13        0.00000  -0.00000   0.00000  -0.00000   0.00000   0.00000
   D14        3.14159  -0.00000   0.00000  -0.00000   0.00000   3.14159
   D15        3.14159   0.00000   0.00000   0.00000   0.00000   3.14159
   D16        0.00000  -0.00000   0.00000  -0.00000   0.00000   0.00000
   D17        0.00000   0.00000   0.00000   0.00000   0.00000   0.00000
   D18        3.14159  -0.00000   0.00000  -0.00000   0.00000   3.14159
   D19        3.14159   0.00000   0.00000   0.00000   0.00000   3.14159
   D20        0.00000   0.00000   0.00000   0.00000   0.00000   0.00000
         Item               Value     Threshold  Converged?
 Maximum Force            0.120300     0.000450     NO 
 RMS     Force            0.026726     0.000300     NO 
 Maximum Displacement     0.276232     0.001800     NO 
 RMS     Displacement     0.061039     0.001200     NO 
 Predicted change in Energy=-1.013899D-01
 GradGradGradGradGradGradGradGradGradGradGradGradGradGradGradGradGradGrad

                          Input orientation:                          
 ---------------------------------------------------------------------
 Center     Atomic      Atomic             Coordinates (Angstroms)
 Number     Number       Type             X           Y           Z
 ---------------------------------------------------------------------
      1          6           0       -3.200148    0.166556    0.000000
      2          6           0       -1.987376    0.878778    0.000000
      3          6           0       -0.734910    0.234417    0.000000
      4          6           0       -0.703166   -1.183963    0.000000
      5          6           0       -1.913184   -1.918323    0.000000
      6          6           0       -3.161344   -1.249435    0.000000
      7         17           0       -4.647083   -2.169822    0.000000
      8         17           0       -4.724276    1.017650    0.000000
      9         17           0        0.745922    1.162045    0.000000
     10          1           0        0.591205   -1.886576    0.000000
     11          1           0       -1.880362   -3.389557    0.000000
 ---------------------------------------------------------------------
                    Distance matrix (angstroms):
                    1          2          3          4          5
     1  C    0.000000
     2  C    1.406441   0.000000
     3  C    2.466172   1.408501   0.000000
     4  C    2.838806   2.429835   1.418735   0.000000
     5  C    2.450101   2.798086   2.454103   1.415425   0.000000
     6  C    1.416522   2.430533   2.844187   2.459050   1.416091
     7  Cl   2.748141   4.045739   4.591891   4.065268   2.745443
     8  Cl   1.745661   2.740421   4.065526   4.584368   4.064749
     9  Cl   4.069701   2.747938   1.747386   2.757464   4.069338
    10  H    4.311578   3.781040   2.501438   1.472773   2.504590
    11  H    3.793122   4.269677   3.800691   2.500088   1.471600
                    6          7          8          9         10
     6  C    0.000000
     7  Cl   1.747722   0.000000
     8  Cl   2.753622   3.188407   0.000000
     9  Cl   4.591510   6.339230   5.472104   0.000000
    10  H    3.806254   5.245940   6.057134   3.052544   0.000000
    11  H    2.494201   3.023657   5.245124   5.254946   2.892680
                   11
    11  H    0.000000
 Stoichiometry    C6H2Cl3(2)
 Framework group  CS[SG(C6H2Cl3)]
 Deg. of freedom    19
 Full point group                 CS      NOp   2
 Largest Abelian subgroup         CS      NOp   2
 Largest concise Abelian subgroup C1      NOp   1
                         Standard orientation:                         
 ---------------------------------------------------------------------
 Center     Atomic      Atomic             Coordinates (Angstroms)
 Number     Number       Type             X           Y           Z
 ---------------------------------------------------------------------
      1          6           0        0.000000    0.864470    0.000000
      2          6           0        1.222090    0.168358    0.000000
      3          6           0        1.288066   -1.238597    0.000000
      4          6           0        0.074423   -1.973361    0.000000
      5          6           0       -1.165484   -1.290674    0.000000
      6          6           0       -1.208052    0.124777    0.000000
      7         17           0       -2.746692    0.953705    0.000000
      8         17           0       -0.022236    2.609988    0.000000
      9         17           0        2.830536   -2.059660    0.000000
     10          1           0        0.110801   -3.445684    0.000000
     11          1           0       -2.424405   -2.052727    0.000000
 ---------------------------------------------------------------------
 Rotational constants (GHZ):           1.8277506           0.5782080           0.4392511
 Standard basis: VSTO-6G (5D, 7F)
 There are    29 symmetry adapted cartesian basis functions of A'  symmetry.
 There are     9 symmetry adapted cartesian basis functions of A"  symmetry.
 There are    29 symmetry adapted basis functions of A'  symmetry.
 There are     9 symmetry adapted basis functions of A"  symmetry.
    38 basis functions,   228 primitive gaussians,    38 cartesian basis functions
    24 alpha electrons       23 beta electrons
       nuclear repulsion energy       239.7549826270 Hartrees.
 Integral buffers will be    131072 words long.
 Regular integral format.
 Two-electron integral symmetry is turned off.
 Do NDO integrals.
 One-electron integrals computed using PRISM.
 NBasis=    38 RedAO= T EigKep=  1.00D+00  NBF=    29     9
 NBsUse=    38 1.00D-06 EigRej= -1.00D+00 NBFU=    29     9
 Initial guess from the checkpoint file:  "geometry_chks/1234-12_4-ClBzNeutralRadical.chk"
 B after Tr=     0.000000    0.000000   -0.000000
         Rot=    0.999993    0.000000   -0.000000    0.003692 Ang=   0.42 deg.
 Initial guess orbital symmetries:
 Alpha Orbitals:
       Occupied  (A') (A') (A') (A') (A') (A') (A') (A') (A') (A')
                 (A') (A") (A') (A") (A") (A') (A') (A') (A') (A")
                 (A') (A') (A") (A")
       Virtual   (A") (A") (A') (A') (A') (A') (A') (A") (A') (A')
                 (A') (A') (A') (A')
 Beta  Orbitals:
       Occupied  (A') (A') (A') (A') (A') (A') (A') (A') (A') (A')
                 (A') (A") (A') (A") (A") (A') (A') (A') (A") (A')
                 (A') (A") (A")
       Virtual   (A') (A") (A') (A') (A") (A') (A') (A') (A") (A')
                 (A') (A') (A') (A') (A')
 Initial guess <Sx>= 0.0000 <Sy>= 0.0000 <Sz>= 0.5000 <S**2>= 1.3870 S= 0.7795
 Keep J ints in memory in canonical form, NReq=863588.
 Overlap will be assumed to be unity.
 Requested convergence on RMS density matrix=1.00D-08 within  32 cycles.
 Requested convergence on MAX density matrix=1.00D-06.
 Requested convergence on             energy=1.00D-06.
 No special actions if energy rises.
 Fock symm off for IB=2 I1=    1 I=   30 J=    6 Cut=1.00D-07 Err=3.46D-03
 Fock matrix is not symmetric: symmetry in diagonalization turned off.
 SCF Done:  E(UAM1) =  0.209116338372     A.U. after   18 cycles
            NFock= 17  Conv=0.88D-08     -V/T= 1.0019
 <Sx>= 0.0000 <Sy>= 0.0000 <Sz>= 0.5000 <S**2>= 1.3927 S= 0.7817
 <L.S>=  0.00000000000    
 Annihilation of the first spin contaminant:
 S**2 before annihilation     1.3927,   after     1.1324
 QCSCF skips out because SCF is already converged.
 Calling FoFJK, ICntrl=      2127 FMM=F ISym2X=1 I1Cent= 0 IOpClX= 1 NMat=1 NMatS=1 NMatT=0.
 ***** Axes restored to original set *****
 -------------------------------------------------------------------
 Center     Atomic                   Forces (Hartrees/Bohr)
 Number     Number              X              Y              Z
 -------------------------------------------------------------------
      1        6          -0.010073864    0.028506248    0.000000000
      2        6           0.003261416   -0.054965723    0.000000000
      3        6           0.008636989    0.013083185    0.000000000
      4        6           0.059766842   -0.047928933    0.000000000
      5        6           0.015875303   -0.076245362   -0.000000000
      6        6          -0.001539216   -0.018970929   -0.000000000
      7       17           0.029226381    0.015958012   -0.000000000
      8       17           0.030273337   -0.014568052   -0.000000000
      9       17          -0.029302765   -0.018680523   -0.000000000
     10        1          -0.103250831    0.056621856   -0.000000000
     11        1          -0.002873593    0.117190221   -0.000000000
 -------------------------------------------------------------------
 Cartesian Forces:  Max     0.117190221 RMS     0.037956258

 GradGradGradGradGradGradGradGradGradGradGradGradGradGradGradGradGradGrad
 Berny optimization.
 Using GEDIIS/GDIIS optimizer.
 FormGI is forming the generalized inverse of G from B-inverse, IUseBI=4.
 Internal  Forces:  Max     0.117756160 RMS     0.028566992
 Search for a local minimum.
 Step number   3 out of a maximum of   57
 All quantities printed in internal units (Hartrees-Bohrs-Radians)
 Mixed Optimization -- RFO/linear search
 Update second derivatives using D2CorX and points    2    3
 DE= -8.06D-02 DEPred=-1.01D-01 R= 7.95D-01
 TightC=F SS=  1.41D+00  RLast= 5.05D-01 DXNew= 8.4853D-01 1.5136D+00
 Trust test= 7.95D-01 RLast= 5.05D-01 DXMaxT set to 8.49D-01
 ITU=  1  1  0
 Use linear search instead of GDIIS.
     Eigenvalues ---    0.00532   0.02011   0.02011   0.02011   0.02011
     Eigenvalues ---    0.02011   0.02011   0.02011   0.02011   0.06442
     Eigenvalues ---    0.15581   0.16001   0.16597   0.22523   0.24743
     Eigenvalues ---    0.25000   0.25000   0.25015   0.26909   0.29032
     Eigenvalues ---    0.29049   0.40607   0.41354   0.44008   0.44654
     Eigenvalues ---    0.44657   0.76578
 RFO step:  Lambda=-1.77602689D-01 EMin= 5.31952635D-03
 Skip linear search -- no minimum in search direction.
 Maximum step size (   0.849) exceeded in Quadratic search.
    -- Step size scaled by   0.886
 Iteration  1 RMS(Cart)=  0.06378229 RMS(Int)=  0.07693781
 Iteration  2 RMS(Cart)=  0.03833507 RMS(Int)=  0.03569426
 Iteration  3 RMS(Cart)=  0.03316101 RMS(Int)=  0.00014651
 Iteration  4 RMS(Cart)=  0.00001191 RMS(Int)=  0.00014620
 Iteration  5 RMS(Cart)=  0.00000000 RMS(Int)=  0.00014620
 ClnCor:  largest displacement from symmetrization is 1.57D-08 for atom     8.
 Variable       Old X    -DE/DX   Delta X   Delta X   Delta X     New X
                                 (Linear)    (Quad)   (Total)
    R1        2.65779  -0.03559   0.00000  -0.05379  -0.05359   2.60420
    R2        2.67684  -0.01418   0.00000   0.00601   0.00600   2.68283
    R3        3.29882  -0.03353   0.00000  -0.11327  -0.11327   3.18555
    R4        2.66168  -0.03707   0.00000  -0.05289  -0.05267   2.60901
    R5        2.68102  -0.03247   0.00000  -0.02943  -0.02943   2.65159
    R6        3.30208  -0.03475   0.00000  -0.11152  -0.11152   3.19056
    R7        2.67477  -0.04321   0.00000  -0.05880  -0.05900   2.61577
    R8        2.78314  -0.11776   0.00000  -0.57989  -0.57989   2.20325
    R9        2.67602  -0.02864   0.00000  -0.02610  -0.02631   2.64972
   R10        2.78092  -0.11723   0.00000  -0.56586  -0.56586   2.21506
   R11        3.30272  -0.03325   0.00000  -0.10983  -0.10983   3.19289
    A1        2.07440  -0.01246   0.00000  -0.04645  -0.04629   2.02812
    A2        2.10131   0.00287   0.00000   0.01111   0.01103   2.11233
    A3        2.10747   0.00960   0.00000   0.03534   0.03526   2.14273
    A4        2.13543   0.01620   0.00000   0.07909   0.07963   2.21506
    A5        2.06833  -0.00837   0.00000  -0.05026  -0.05007   2.01827
    A6        2.10681   0.00464   0.00000   0.02569   0.02559   2.13240
    A7        2.10804   0.00373   0.00000   0.02458   0.02448   2.13252
    A8        2.09390   0.00318   0.00000   0.00875   0.00854   2.10244
    A9        2.09049  -0.00229   0.00000  -0.01058  -0.01047   2.08002
   A10        2.09880  -0.00089   0.00000   0.00183   0.00193   2.10073
   A11        2.10416   0.00546   0.00000   0.02608   0.02565   2.12981
   A12        2.09397  -0.00237   0.00000  -0.00810  -0.00788   2.08609
   A13        2.08505  -0.00309   0.00000  -0.01798  -0.01776   2.06729
   A14        2.09015  -0.00400   0.00000  -0.01721  -0.01746   2.07269
   A15        2.09802   0.00501   0.00000   0.01826   0.01839   2.11641
   A16        2.09502  -0.00101   0.00000  -0.00106  -0.00093   2.09409
    D1        0.00000  -0.00000   0.00000   0.00000   0.00000   0.00000
    D2        3.14159   0.00000   0.00000  -0.00000   0.00000   3.14159
    D3        0.00000   0.00000   0.00000   0.00000   0.00000   0.00000
    D4        3.14159   0.00000   0.00000  -0.00000   0.00000   3.14159
    D5        3.14159  -0.00000   0.00000   0.00000   0.00000   3.14159
    D6        0.00000  -0.00000   0.00000  -0.00000   0.00000   0.00000
    D7        0.00000   0.00000   0.00000  -0.00000   0.00000   0.00000
    D8        3.14159  -0.00000   0.00000   0.00000   0.00000   3.14159
    D9        0.00000  -0.00000   0.00000  -0.00000   0.00000   0.00000
   D10        3.14159  -0.00000   0.00000   0.00000   0.00000   3.14159
   D11        3.14159   0.00000   0.00000  -0.00000   0.00000   3.14159
   D12        0.00000   0.00000   0.00000   0.00000   0.00000   0.00000
   D13        0.00000   0.00000   0.00000   0.00000   0.00000   0.00000
   D14        3.14159  -0.00000   0.00000   0.00000   0.00000   3.14159
   D15        3.14159   0.00000   0.00000  -0.00000   0.00000   3.14159
   D16        0.00000   0.00000   0.00000   0.00000   0.00000   0.00000
   D17        0.00000  -0.00000   0.00000  -0.00000   0.00000   0.00000
   D18        3.14159  -0.00000   0.00000   0.00000   0.00000   3.14159
   D19        3.14159   0.00000   0.00000  -0.00000   0.00000   3.14159
   D20        0.00000   0.00000   0.00000  -0.00000   0.00000   0.00000
         Item               Value     Threshold  Converged?
 Maximum Force            0.117756     0.000450     NO 
 RMS     Force            0.028567     0.000300     NO 
 Maximum Displacement     0.547275     0.001800     NO 
 RMS     Displacement     0.127999     0.001200     NO 
 Predicted change in Energy=-1.515727D-01
 GradGradGradGradGradGradGradGradGradGradGradGradGradGradGradGradGradGrad

                          Input orientation:                          
 ---------------------------------------------------------------------
 Center     Atomic      Atomic             Coordinates (Angstroms)
 Number     Number       Type             X           Y           Z
 ---------------------------------------------------------------------
      1          6           0       -3.181770    0.128927    0.000000
      2          6           0       -1.963797    0.773641    0.000000
      3          6           0       -0.714493    0.185958    0.000000
      4          6           0       -0.703586   -1.217163    0.000000
      5          6           0       -1.891248   -1.928135    0.000000
      6          6           0       -3.139869   -1.290149    0.000000
      7         17           0       -4.557650   -2.209202    0.000000
      8         17           0       -4.625525    0.999113    0.000000
      9         17           0        0.707406    1.096342    0.000000
     10          1           0        0.318786   -1.777610    0.000000
     11          1           0       -1.862975   -3.099952    0.000000
 ---------------------------------------------------------------------
                    Distance matrix (angstroms):
                    1          2          3          4          5
     1  C    0.000000
     2  C    1.378083   0.000000
     3  C    2.467936   1.380627   0.000000
     4  C    2.820170   2.356148   1.403163   0.000000
     5  C    2.428364   2.702750   2.419533   1.384204   0.000000
     6  C    1.419695   2.375369   2.839250   2.437377   1.402170
     7  Cl   2.712912   3.952900   4.528426   3.979692   2.681175
     8  Cl   1.685720   2.671260   3.994670   4.504829   4.005627
     9  Cl   4.007690   2.690625   1.688371   2.709835   3.987538
    10  H    3.986073   3.423313   2.218844   1.165910   2.215154
    11  H    3.487819   3.874905   3.480835   2.211126   1.172158
                    6          7          8          9         10
     6  C    0.000000
     7  Cl   1.689603   0.000000
     8  Cl   2.729083   3.209032   0.000000
     9  Cl   4.527347   6.216706   5.333817   0.000000
    10  H    3.492838   4.895498   5.670662   2.900109   0.000000
    11  H    2.214915   2.838082   4.943077   4.920949   2.551209
                   11
    11  H    0.000000
 Stoichiometry    C6H2Cl3(2)
 Framework group  CS[SG(C6H2Cl3)]
 Deg. of freedom    19
 Full point group                 CS      NOp   2
 Largest Abelian subgroup         CS      NOp   2
 Largest concise Abelian subgroup C1      NOp   1
                         Standard orientation:                         
 ---------------------------------------------------------------------
 Center     Atomic      Atomic             Coordinates (Angstroms)
 Number     Number       Type             X           Y           Z
 ---------------------------------------------------------------------
      1          6           0        0.000000    0.877044    0.000000
      2          6           0        1.160126    0.133255    0.000000
      3          6           0        1.262406   -1.243578    0.000000
      4          6           0        0.045844   -1.942753    0.000000
      5          6           0       -1.157084   -1.257929    0.000000
      6          6           0       -1.215222    0.143036    0.000000
      7         17           0       -2.712471    0.925983    0.000000
      8         17           0        0.048162    2.562075    0.000000
      9         17           0        2.754130   -2.034373    0.000000
     10          1           0        0.060299   -3.108573    0.000000
     11          1           0       -2.163677   -1.858534    0.000000
 ---------------------------------------------------------------------
 Rotational constants (GHZ):           1.8620821           0.6054160           0.4568734
 Standard basis: VSTO-6G (5D, 7F)
 There are    29 symmetry adapted cartesian basis functions of A'  symmetry.
 There are     9 symmetry adapted cartesian basis functions of A"  symmetry.
 There are    29 symmetry adapted basis functions of A'  symmetry.
 There are     9 symmetry adapted basis functions of A"  symmetry.
    38 basis functions,   228 primitive gaussians,    38 cartesian basis functions
    24 alpha electrons       23 beta electrons
       nuclear repulsion energy       243.5150348749 Hartrees.
 Integral buffers will be    131072 words long.
 Regular integral format.
 Two-electron integral symmetry is turned off.
 Do NDO integrals.
 One-electron integrals computed using PRISM.
 NBasis=    38 RedAO= T EigKep=  1.00D+00  NBF=    29     9
 NBsUse=    38 1.00D-06 EigRej= -1.00D+00 NBFU=    29     9
 Initial guess from the checkpoint file:  "geometry_chks/1234-12_4-ClBzNeutralRadical.chk"
 B after Tr=    -0.000000   -0.000000    0.000000
         Rot=    0.999990    0.000000    0.000000    0.004401 Ang=   0.50 deg.
 Initial guess orbital symmetries:
 Alpha Orbitals:
       Occupied  (A') (A') (A') (A') (A') (A') (A') (A') (A') (A')
                 (A') (A') (A") (A") (A') (A') (A") (A') (A') (A')
                 (A") (A') (A") (A")
       Virtual   (A") (A") (A') (A') (A') (A') (A') (A") (A') (A')
                 (A') (A') (A') (A')
 Beta  Orbitals:
       Occupied  (A') (A') (A') (A') (A') (A') (A') (A') (A') (A')
                 (A') (A") (A') (A") (A') (A") (A') (A') (A') (A')
                 (A") (A") (A")
       Virtual   (A') (A") (A") (A') (A') (A') (A') (A') (A") (A')
                 (A') (A') (A') (A') (A')
 Initial guess <Sx>= 0.0000 <Sy>= 0.0000 <Sz>= 0.5000 <S**2>= 1.3927 S= 0.7817
 Keep J ints in memory in canonical form, NReq=863588.
 Overlap will be assumed to be unity.
 Requested convergence on RMS density matrix=1.00D-08 within  32 cycles.
 Requested convergence on MAX density matrix=1.00D-06.
 Requested convergence on             energy=1.00D-06.
 No special actions if energy rises.
 Fock symm off for IB=2 I1=    1 I=   30 J=   13 Cut=1.00D-07 Err=1.67D-03
 Fock matrix is not symmetric: symmetry in diagonalization turned off.
 SCF Done:  E(UAM1) =  0.950704682655E-01 A.U. after   17 cycles
            NFock= 16  Conv=0.46D-08     -V/T= 1.0008
 <Sx>= 0.0000 <Sy>= 0.0000 <Sz>= 0.5000 <S**2>= 1.2804 S= 0.7371
 <L.S>=  0.00000000000    
 Annihilation of the first spin contaminant:
 S**2 before annihilation     1.2804,   after     0.9949
 QCSCF skips out because SCF is already converged.
 Calling FoFJK, ICntrl=      2127 FMM=F ISym2X=1 I1Cent= 0 IOpClX= 1 NMat=1 NMatS=1 NMatT=0.
 ***** Axes restored to original set *****
 -------------------------------------------------------------------
 Center     Atomic                   Forces (Hartrees/Bohr)
 Number     Number              X              Y              Z
 -------------------------------------------------------------------
      1        6          -0.005216234    0.006014836    0.000000000
      2        6           0.001762231   -0.010224478    0.000000000
      3        6           0.000717931    0.014497175    0.000000000
      4        6           0.043981672   -0.021039085    0.000000000
      5        6          -0.004774328   -0.048025466    0.000000000
      6        6          -0.003021058    0.003142133    0.000000000
      7       17           0.001383412    0.001485608   -0.000000000
      8       17           0.001839033   -0.001515478   -0.000000000
      9       17          -0.002918254   -0.001923705   -0.000000000
     10        1          -0.033560172    0.017552462   -0.000000000
     11        1          -0.000194233    0.040035999   -0.000000000
 -------------------------------------------------------------------
 Cartesian Forces:  Max     0.048025466 RMS     0.015730973

 GradGradGradGradGradGradGradGradGradGradGradGradGradGradGradGradGradGrad
 Berny optimization.
 Using GEDIIS/GDIIS optimizer.
 FormGI is forming the generalized inverse of G from B-inverse, IUseBI=4.
 Internal  Forces:  Max     0.040029036 RMS     0.008462378
 Search for a local minimum.
 Step number   4 out of a maximum of   57
 All quantities printed in internal units (Hartrees-Bohrs-Radians)
 Mixed Optimization -- RFO/linear search
 Update second derivatives using D2CorX and points    3    4
 DE= -1.14D-01 DEPred=-1.52D-01 R= 7.52D-01
 TightC=F SS=  1.41D+00  RLast= 8.49D-01 DXNew= 1.4270D+00 2.5456D+00
 Trust test= 7.52D-01 RLast= 8.49D-01 DXMaxT set to 1.43D+00
 ITU=  1  1  1  0
 Use linear search instead of GDIIS.
     Eigenvalues ---    0.02011   0.02011   0.02011   0.02011   0.02011
     Eigenvalues ---    0.02011   0.02011   0.02011   0.05385   0.06867
     Eigenvalues ---    0.16000   0.16048   0.18441   0.22522   0.24720
     Eigenvalues ---    0.25000   0.25001   0.25022   0.26729   0.29032
     Eigenvalues ---    0.29048   0.40598   0.41147   0.43621   0.44656
     Eigenvalues ---    0.44666   0.61826
 RFO step:  Lambda=-1.01333926D-02 EMin= 2.01065680D-02
 Quartic linear search produced a step of  0.20856.
 Iteration  1 RMS(Cart)=  0.04239158 RMS(Int)=  0.01929516
 Iteration  2 RMS(Cart)=  0.01816051 RMS(Int)=  0.00010197
 Iteration  3 RMS(Cart)=  0.00001111 RMS(Int)=  0.00010157
 Iteration  4 RMS(Cart)=  0.00000000 RMS(Int)=  0.00010157
 ClnCor:  largest displacement from symmetrization is 7.83D-09 for atom     7.
 Variable       Old X    -DE/DX   Delta X   Delta X   Delta X     New X
                                 (Linear)    (Quad)   (Total)
    R1        2.60420  -0.00174  -0.01118   0.05021   0.03889   2.64309
    R2        2.68283  -0.00055   0.00125  -0.00460  -0.00348   2.67936
    R3        3.18555  -0.00236  -0.02362   0.10221   0.07859   3.26414
    R4        2.60901  -0.00309  -0.01099   0.04957   0.03855   2.64756
    R5        2.65159   0.00749  -0.00614   0.07610   0.07009   2.72168
    R6        3.19056  -0.00349  -0.02326   0.09504   0.07179   3.26234
    R7        2.61577   0.00998  -0.01230   0.12083   0.10868   2.72445
    R8        2.20325  -0.03787  -0.12094  -0.11742  -0.23836   1.96489
    R9        2.64972   0.00562  -0.00549   0.06113   0.05567   2.70539
   R10        2.21506  -0.04003  -0.11802  -0.20819  -0.32621   1.88885
   R11        3.19289  -0.00197  -0.02291   0.10403   0.08113   3.27401
    A1        2.02812  -0.00291  -0.00965   0.02578   0.01585   2.04397
    A2        2.11233   0.00201   0.00230   0.00409   0.00652   2.11886
    A3        2.14273   0.00090   0.00735  -0.02987  -0.02237   2.12036
    A4        2.21506   0.00779   0.01661  -0.04139  -0.02503   2.19003
    A5        2.01827  -0.00202  -0.01044   0.04398   0.03365   2.05192
    A6        2.13240   0.00109   0.00534  -0.02259  -0.01732   2.11508
    A7        2.13252   0.00094   0.00511  -0.02138  -0.01634   2.11618
    A8        2.10244  -0.00341   0.00178  -0.02999  -0.02791   2.07453
    A9        2.08002   0.00252  -0.00218   0.02920   0.02686   2.10688
   A10        2.10073   0.00089   0.00040   0.00080   0.00105   2.10178
   A11        2.12981  -0.00113   0.00535  -0.03476  -0.02921   2.10060
   A12        2.08609  -0.00029  -0.00164   0.00534   0.00360   2.08968
   A13        2.06729   0.00142  -0.00371   0.02942   0.02561   2.09290
   A14        2.07269   0.00168  -0.00364   0.03638   0.03265   2.10533
   A15        2.11641  -0.00163   0.00384  -0.03392  -0.03004   2.08637
   A16        2.09409  -0.00005  -0.00019  -0.00246  -0.00261   2.09148
    D1        0.00000   0.00000   0.00000   0.00000   0.00000   0.00000
    D2        3.14159   0.00000   0.00000  -0.00000   0.00000   3.14159
    D3        0.00000  -0.00000   0.00000   0.00000   0.00000   0.00000
    D4        3.14159   0.00000   0.00000  -0.00000   0.00000   3.14159
    D5        3.14159  -0.00000   0.00000   0.00000   0.00000   3.14159
    D6        0.00000  -0.00000   0.00000  -0.00000   0.00000   0.00000
    D7        0.00000   0.00000   0.00000  -0.00000   0.00000   0.00000
    D8        3.14159  -0.00000   0.00000   0.00000   0.00000   3.14159
    D9        0.00000  -0.00000   0.00000  -0.00000   0.00000   0.00000
   D10        3.14159  -0.00000   0.00000   0.00000   0.00000   3.14159
   D11        3.14159   0.00000   0.00000  -0.00000   0.00000   3.14159
   D12        0.00000  -0.00000   0.00000   0.00000   0.00000   0.00000
   D13        0.00000   0.00000   0.00000   0.00000   0.00000   0.00000
   D14        3.14159  -0.00000   0.00000   0.00000   0.00000   3.14159
   D15        3.14159   0.00000   0.00000  -0.00000   0.00000   3.14159
   D16        0.00000  -0.00000   0.00000   0.00000   0.00000   0.00000
   D17        0.00000  -0.00000   0.00000  -0.00000   0.00000   0.00000
   D18        3.14159  -0.00000   0.00000   0.00000   0.00000   3.14159
   D19        3.14159   0.00000   0.00000  -0.00000   0.00000   3.14159
   D20        0.00000   0.00000   0.00000  -0.00000   0.00000   0.00000
         Item               Value     Threshold  Converged?
 Maximum Force            0.040029     0.000450     NO 
 RMS     Force            0.008462     0.000300     NO 
 Maximum Displacement     0.198274     0.001800     NO 
 RMS     Displacement     0.051873     0.001200     NO 
 Predicted change in Energy=-1.662901D-02
 GradGradGradGradGradGradGradGradGradGradGradGradGradGradGradGradGradGrad

                          Input orientation:                          
 ---------------------------------------------------------------------
 Center     Atomic      Atomic             Coordinates (Angstroms)
 Number     Number       Type             X           Y           Z
 ---------------------------------------------------------------------
      1          6           0       -3.177677    0.113838    0.000000
      2          6           0       -1.952255    0.788074    0.000000
      3          6           0       -0.689828    0.180489    0.000000
      4          6           0       -0.642942   -1.259000    0.000000
      5          6           0       -1.882254   -1.995646    0.000000
      6          6           0       -3.135385   -1.303386    0.000000
      7         17           0       -4.616554   -2.202169    0.000000
      8         17           0       -4.676899    0.971699    0.000000
      9         17           0        0.756147    1.123607    0.000000
     10          1           0        0.267785   -1.760705    0.000000
     11          1           0       -1.864858   -2.995030    0.000000
 ---------------------------------------------------------------------
                    Distance matrix (angstroms):
                    1          2          3          4          5
     1  C    0.000000
     2  C    1.398662   0.000000
     3  C    2.488742   1.401028   0.000000
     4  C    2.882632   2.429981   1.440252   0.000000
     5  C    2.475489   2.784600   2.481420   1.441715   0.000000
     6  C    1.417854   2.402915   2.860531   2.492839   1.431630
     7  Cl   2.726583   4.005002   4.593064   4.084013   2.742089
     8  Cl   1.727308   2.730825   4.064818   4.609645   4.076172
[...]
    R1        2.59843  -0.00005  -0.00005  -0.00004  -0.00009   2.59835
    R2        2.68349  -0.00000  -0.00004   0.00004   0.00001   2.68350
    R3        3.17263   0.00001  -0.00008   0.00013   0.00005   3.17267
    R4        2.59718  -0.00003  -0.00006   0.00003  -0.00003   2.59715
    R5        2.67282  -0.00002  -0.00009   0.00007  -0.00002   2.67280
    R6        3.17701  -0.00004  -0.00010  -0.00002  -0.00012   3.17689
    R7        2.64398  -0.00002  -0.00009   0.00004  -0.00006   2.64392
    R8        2.07758   0.00006   0.00023  -0.00006   0.00018   2.07776
    R9        2.66210  -0.00002  -0.00005   0.00002  -0.00003   2.66208
   R10        2.08162   0.00022   0.00021   0.00038   0.00059   2.08220
   R11        3.18924  -0.00006  -0.00014  -0.00006  -0.00019   3.18905
    A1        2.00399  -0.00001  -0.00003   0.00001  -0.00001   2.00398
    A2        2.12822   0.00005  -0.00004   0.00021   0.00017   2.12839
    A3        2.15097  -0.00004   0.00006  -0.00022  -0.00016   2.15081
    A4        2.24991   0.00001   0.00004  -0.00002   0.00002   2.24993
    A5        2.01093  -0.00000  -0.00002  -0.00001  -0.00003   2.01090
    A6        2.13999   0.00004  -0.00002   0.00015   0.00013   2.14013
    A7        2.13226  -0.00003   0.00003  -0.00014  -0.00011   2.13216
    A8        2.08780   0.00001  -0.00000   0.00004   0.00004   2.08784
    A9        2.09677  -0.00003   0.00001  -0.00021  -0.00020   2.09657
   A10        2.09862   0.00002  -0.00001   0.00017   0.00016   2.09877
   A11        2.12756  -0.00002   0.00004  -0.00008  -0.00005   2.12751
   A12        2.07725   0.00003  -0.00003   0.00017   0.00014   2.07739
   A13        2.07838  -0.00001  -0.00001  -0.00008  -0.00009   2.07829
   A14        2.08618   0.00001  -0.00003   0.00005   0.00002   2.08620
   A15        2.10839  -0.00003   0.00005  -0.00017  -0.00012   2.10827
   A16        2.08862   0.00002  -0.00002   0.00012   0.00010   2.08871
    D1        0.00000   0.00000   0.00000   0.00000   0.00000   0.00000
    D2        3.14159   0.00000   0.00000   0.00000   0.00000   3.14159
    D3        0.00000  -0.00000   0.00000  -0.00000   0.00000   0.00000
    D4        3.14159   0.00000   0.00000   0.00000   0.00000   3.14159
    D5        3.14159  -0.00000   0.00000  -0.00000   0.00000   3.14159
    D6        0.00000  -0.00000   0.00000  -0.00000   0.00000   0.00000
    D7        0.00000   0.00000   0.00000   0.00000   0.00000   0.00000
    D8        3.14159  -0.00000   0.00000  -0.00000   0.00000   3.14159
    D9        0.00000  -0.00000   0.00000  -0.00000   0.00000   0.00000
   D10        3.14159  -0.00000   0.00000  -0.00000   0.00000   3.14159
   D11        3.14159   0.00000   0.00000   0.00000   0.00000   3.14159
   D12        0.00000  -0.00000   0.00000  -0.00000   0.00000   0.00000
   D13        0.00000   0.00000   0.00000   0.00000   0.00000   0.00000
   D14        3.14159  -0.00000   0.00000  -0.00000   0.00000   3.14159
   D15        3.14159   0.00000   0.00000   0.00000   0.00000   3.14159
   D16        0.00000  -0.00000   0.00000  -0.00000   0.00000   0.00000
   D17        0.00000   0.00000   0.00000   0.00000   0.00000   0.00000
   D18        3.14159  -0.00000   0.00000  -0.00000   0.00000   3.14159
   D19        3.14159   0.00000   0.00000   0.00000   0.00000   3.14159
   D20        0.00000   0.00000   0.00000   0.00000   0.00000   0.00000
         Item               Value     Threshold  Converged?
 Maximum Force            0.000216     0.000450     YES
 RMS     Force            0.000039     0.000300     YES
 Maximum Displacement     0.000543     0.001800     YES
 RMS     Displacement     0.000152     0.001200     YES
 Predicted change in Energy=-1.034780D-07
 Optimization completed.
    -- Stationary point found.
                           ----------------------------
                           !   Optimized Parameters   !
                           ! (Angstroms and Degrees)  !
 --------------------------                            --------------------------
 ! Name  Definition              Value          Derivative Info.                !
 --------------------------------------------------------------------------------
 ! R1    R(1,2)                  1.375          -DE/DX =    0.0                 !
 ! R2    R(1,6)                  1.42           -DE/DX =    0.0                 !
 ! R3    R(1,8)                  1.6789         -DE/DX =    0.0                 !
 ! R4    R(2,3)                  1.3744         -DE/DX =    0.0                 !
 ! R5    R(3,4)                  1.4144         -DE/DX =    0.0                 !
 ! R6    R(3,9)                  1.6812         -DE/DX =    0.0                 !
 ! R7    R(4,5)                  1.3991         -DE/DX =    0.0                 !
 ! R8    R(4,10)                 1.0994         -DE/DX =    0.0001              !
 ! R9    R(5,6)                  1.4087         -DE/DX =    0.0                 !
 ! R10   R(5,11)                 1.1015         -DE/DX =    0.0002              !
 ! R11   R(6,7)                  1.6877         -DE/DX =   -0.0001              !
 ! A1    A(2,1,6)              114.8202         -DE/DX =    0.0                 !
 ! A2    A(2,1,8)              121.9383         -DE/DX =    0.0                 !
 ! A3    A(6,1,8)              123.2415         -DE/DX =    0.0                 !
 ! A4    A(1,2,3)              128.9106         -DE/DX =    0.0                 !
 ! A5    A(2,3,4)              115.2178         -DE/DX =    0.0                 !
 ! A6    A(2,3,9)              122.6124         -DE/DX =    0.0                 !
 ! A7    A(4,3,9)              122.1698         -DE/DX =    0.0                 !
 ! A8    A(3,4,5)              119.622          -DE/DX =    0.0                 !
 ! A9    A(3,4,10)             120.1361         -DE/DX =    0.0                 !
 ! A10   A(5,4,10)             120.2419         -DE/DX =    0.0                 !
 ! A11   A(4,5,6)              121.9001         -DE/DX =    0.0                 !
 ! A12   A(4,5,11)             119.0176         -DE/DX =    0.0                 !
 ! A13   A(6,5,11)             119.0823         -DE/DX =    0.0                 !
 ! A14   A(1,6,5)              119.5293         -DE/DX =    0.0                 !
 ! A15   A(1,6,7)              120.8018         -DE/DX =    0.0                 !
 ! A16   A(5,6,7)              119.6689         -DE/DX =    0.0                 !
 ! D1    D(6,1,2,3)              0.0            -DE/DX =    0.0                 !
 ! D2    D(8,1,2,3)            180.0            -DE/DX =    0.0                 !
 ! D3    D(2,1,6,5)              0.0            -DE/DX =    0.0                 !
 ! D4    D(2,1,6,7)            180.0            -DE/DX =    0.0                 !
 ! D5    D(8,1,6,5)            180.0            -DE/DX =    0.0                 !
 ! D6    D(8,1,6,7)              0.0            -DE/DX =    0.0                 !
 ! D7    D(1,2,3,4)              0.0            -DE/DX =    0.0                 !
 ! D8    D(1,2,3,9)            180.0            -DE/DX =    0.0                 !
 ! D9    D(2,3,4,5)              0.0            -DE/DX =    0.0                 !
 ! D10   D(2,3,4,10)           180.0            -DE/DX =    0.0                 !
 ! D11   D(9,3,4,5)            180.0            -DE/DX =    0.0                 !
 ! D12   D(9,3,4,10)             0.0            -DE/DX =    0.0                 !
 ! D13   D(3,4,5,6)              0.0            -DE/DX =    0.0                 !
 ! D14   D(3,4,5,11)           180.0            -DE/DX =    0.0                 !
 ! D15   D(10,4,5,6)           180.0            -DE/DX =    0.0                 !
 ! D16   D(10,4,5,11)            0.0            -DE/DX =    0.0                 !
 ! D17   D(4,5,6,1)              0.0            -DE/DX =    0.0                 !
 ! D18   D(4,5,6,7)            180.0            -DE/DX =    0.0                 !
 ! D19   D(11,5,6,1)           180.0            -DE/DX =    0.0                 !
 ! D20   D(11,5,6,7)             0.0            -DE/DX =    0.0                 !
 --------------------------------------------------------------------------------
 GradGradGradGradGradGradGradGradGradGradGradGradGradGradGradGradGradGrad

                          Input orientation:                          
 ---------------------------------------------------------------------
 Center     Atomic      Atomic             Coordinates (Angstroms)
 Number     Number       Type             X           Y           Z
 ---------------------------------------------------------------------
      1          6           0       -3.186302    0.126249    0.000000
      2          6           0       -1.959197    0.746672    0.000000
      3          6           0       -0.706281    0.181792    0.000000
      4          6           0       -0.682844   -1.232408    0.000000
      5          6           0       -1.887491   -1.944025    0.000000
      6          6           0       -3.136722   -1.292928    0.000000
      7         17           0       -4.555283   -2.207220    0.000000
      8         17           0       -4.621740    0.996973    0.000000
      9         17           0        0.701784    1.100371    0.000000
     10          1           0        0.276979   -1.768541    0.000000
     11          1           0       -1.857621   -3.045164    0.000000
 ---------------------------------------------------------------------
                    Distance matrix (angstroms):
                    1          2          3          4          5
     1  C    0.000000
     2  C    1.375031   0.000000
     3  C    2.480643   1.374368   0.000000
     4  C    2.848377   2.354959   1.414394   0.000000
     5  C    2.443961   2.691652   2.431945   1.399134   0.000000
     6  C    1.420043   2.355108   2.842858   2.454625   1.408725
     7  Cl   2.705400   3.932574   4.530143   3.993250   2.680744
     8  Cl   1.678881   2.674283   3.999418   4.526041   4.015668
     9  Cl   4.008258   2.684386   1.681201   2.712758   3.996586
    10  H    3.947726   3.365527   2.184169   1.099408   2.171572
    11  H    3.438496   3.793196   3.426197   2.160136   1.101544
                    6          7          8          9         10
     6  C    0.000000
     7  Cl   1.687675   0.000000
     8  Cl   2.729272   3.204882   0.000000
     9  Cl   4.523496   6.211033   5.324529   0.000000
    10  H    3.446674   4.852133   5.625434   2.900192   0.000000
    11  H    2.169431   2.824807   4.896859   4.871963   2.487224
                   11
    11  H    0.000000
 Stoichiometry    C6H2Cl3(2)
 Framework group  CS[SG(C6H2Cl3)]
 Deg. of freedom    19
 Full point group                 CS      NOp   2
 Largest Abelian subgroup         CS      NOp   2
 Largest concise Abelian subgroup C1      NOp   1
                         Standard orientation:                         
 ---------------------------------------------------------------------
 Center     Atomic      Atomic             Coordinates (Angstroms)
 Number     Number       Type             X           Y           Z
 ---------------------------------------------------------------------
      1          6           0        0.000000    0.883048    0.000000
      2          6           0        1.140954    0.115627    0.000000
      3          6           0        1.260386   -1.253542    0.000000
      4          6           0        0.037998   -1.965076    0.000000
      5          6           0       -1.171545   -1.261813    0.000000
      6          6           0       -1.213954    0.146274    0.000000
      7         17           0       -2.704859    0.937127    0.000000
      8         17           0        0.058212    2.560920    0.000000
      9         17           0        2.749902   -2.033143    0.000000
     10          1           0        0.039283   -3.064483    0.000000
     11          1           0       -2.117654   -1.825974    0.000000
 ---------------------------------------------------------------------
 Rotational constants (GHZ):           1.8609597           0.6063690           0.4573482

 **********************************************************************

            Population analysis using the SCF Density.

 **********************************************************************

 Orbital symmetries:
 Alpha Orbitals:
       Occupied  (A') (A') (A') (A') (A') (A') (A') (A') (A') (A')
                 (A') (A') (A") (A') (A") (A') (A") (A') (A') (A')
                 (A") (A') (A") (A")
       Virtual   (A") (A") (A') (A') (A') (A") (A') (A') (A') (A')
                 (A') (A') (A') (A')
 Beta  Orbitals:
       Occupied  (A') (A') (A') (A') (A') (A') (A') (A') (A') (A')
                 (A') (A') (A") (A') (A") (A') (A") (A') (A') (A')
                 (A") (A") (A")
       Virtual   (A') (A") (A") (A') (A') (A') (A") (A') (A') (A')
                 (A') (A') (A') (A') (A')
 The electronic state is 2-A'.
 Alpha  occ. eigenvalues --   -1.48188  -1.41444  -1.40133  -1.37976  -1.17103
 Alpha  occ. eigenvalues --   -1.15618  -0.89564  -0.87510  -0.69701  -0.64360
 Alpha  occ. eigenvalues --   -0.64140  -0.59391  -0.57451  -0.53189  -0.51353
 Alpha  occ. eigenvalues --   -0.51213  -0.48712  -0.46732  -0.45183  -0.44652
 Alpha  occ. eigenvalues --   -0.44250  -0.40713  -0.39233  -0.36526
 Alpha virt. eigenvalues --   -0.01487  -0.00511   0.02710   0.03447   0.04896
 Alpha virt. eigenvalues --    0.06828   0.11488   0.12286   0.13092   0.13523
 Alpha virt. eigenvalues --    0.15509   0.15975   0.16741   0.17543
  Beta  occ. eigenvalues --   -1.47548  -1.41508  -1.40063  -1.37711  -1.16560
  Beta  occ. eigenvalues --   -1.14355  -0.89185  -0.85361  -0.69661  -0.63745
  Beta  occ. eigenvalues --   -0.62812  -0.59116  -0.57287  -0.52665  -0.51896
  Beta  occ. eigenvalues --   -0.50767  -0.48878  -0.45415  -0.45135  -0.44406
  Beta  occ. eigenvalues --   -0.44137  -0.38019  -0.36415
  Beta virt. eigenvalues --   -0.01879  -0.01439   0.01069   0.02801   0.03458
  Beta virt. eigenvalues --    0.04818   0.07657   0.12165   0.12864   0.13418
  Beta virt. eigenvalues --    0.14183   0.15795   0.16579   0.17634   0.18311
          Condensed to atoms (all electrons):
               1          2          3          4          5          6
     1  C    4.052860   0.000000   0.000000   0.000000   0.000000   0.000000
     2  C    0.000000   4.035419   0.000000   0.000000   0.000000   0.000000
     3  C    0.000000   0.000000   4.056579   0.000000   0.000000   0.000000
     4  C    0.000000   0.000000   0.000000   4.112439   0.000000   0.000000
     5  C    0.000000   0.000000   0.000000   0.000000   4.123397   0.000000
     6  C    0.000000   0.000000   0.000000   0.000000   0.000000   4.064620
     7  Cl   0.000000   0.000000   0.000000   0.000000   0.000000   0.000000
     8  Cl   0.000000   0.000000   0.000000   0.000000   0.000000   0.000000
     9  Cl   0.000000   0.000000   0.000000   0.000000   0.000000   0.000000
    10  H    0.000000   0.000000   0.000000   0.000000   0.000000   0.000000
    11  H    0.000000   0.000000   0.000000   0.000000   0.000000   0.000000
               7          8          9         10         11
     1  C    0.000000   0.000000   0.000000   0.000000   0.000000
     2  C    0.000000   0.000000   0.000000   0.000000   0.000000
     3  C    0.000000   0.000000   0.000000   0.000000   0.000000
     4  C    0.000000   0.000000   0.000000   0.000000   0.000000
     5  C    0.000000   0.000000   0.000000   0.000000   0.000000
     6  C    0.000000   0.000000   0.000000   0.000000   0.000000
     7  Cl   6.971143   0.000000   0.000000   0.000000   0.000000
     8  Cl   0.000000   6.942805   0.000000   0.000000   0.000000
     9  Cl   0.000000   0.000000   6.958689   0.000000   0.000000
    10  H    0.000000   0.000000   0.000000   0.840154   0.000000
    11  H    0.000000   0.000000   0.000000   0.000000   0.841894
          Atomic-Atomic Spin Densities.
               1          2          3          4          5          6
     1  C   -0.500438   0.000000   0.000000   0.000000   0.000000   0.000000
     2  C    0.000000   1.419054   0.000000   0.000000   0.000000   0.000000
     3  C    0.000000   0.000000  -0.494493   0.000000   0.000000   0.000000
     4  C    0.000000   0.000000   0.000000   0.513180   0.000000   0.000000
     5  C    0.000000   0.000000   0.000000   0.000000  -0.473268   0.000000
     6  C    0.000000   0.000000   0.000000   0.000000   0.000000   0.513292
     7  Cl   0.000000   0.000000   0.000000   0.000000   0.000000   0.000000
     8  Cl   0.000000   0.000000   0.000000   0.000000   0.000000   0.000000
     9  Cl   0.000000   0.000000   0.000000   0.000000   0.000000   0.000000
    10  H    0.000000   0.000000   0.000000   0.000000   0.000000   0.000000
    11  H    0.000000   0.000000   0.000000   0.000000   0.000000   0.000000
               7          8          9         10         11
     1  C    0.000000   0.000000   0.000000   0.000000   0.000000
     2  C    0.000000   0.000000   0.000000   0.000000   0.000000
     3  C    0.000000   0.000000   0.000000   0.000000   0.000000
     4  C    0.000000   0.000000   0.000000   0.000000   0.000000
     5  C    0.000000   0.000000   0.000000   0.000000   0.000000
     6  C    0.000000   0.000000   0.000000   0.000000   0.000000
     7  Cl   0.015824   0.000000   0.000000   0.000000   0.000000
     8  Cl   0.000000  -0.000398   0.000000   0.000000   0.000000
     9  Cl   0.000000   0.000000   0.000046   0.000000   0.000000
    10  H    0.000000   0.000000   0.000000  -0.020252   0.000000
    11  H    0.000000   0.000000   0.000000   0.000000   0.027453
 Mulliken charges and spin densities:
               1          2
     1  C   -0.052860  -0.500438
     2  C   -0.035419   1.419054
     3  C   -0.056579  -0.494493
     4  C   -0.112439   0.513180
     5  C   -0.123397  -0.473268
     6  C   -0.064620   0.513292
     7  Cl   0.028857   0.015824
     8  Cl   0.057195  -0.000398
     9  Cl   0.041311   0.000046
    10  H    0.159846  -0.020252
    11  H    0.158106   0.027453
 Sum of Mulliken charges =   0.00000   1.00000
 Mulliken charges and spin densities with hydrogens summed into heavy atoms:
               1          2
     1  C   -0.052860  -0.500438
     2  C   -0.035419   1.419054
     3  C   -0.056579  -0.494493
     4  C    0.047407   0.492928
     5  C    0.034709  -0.445815
     6  C   -0.064620   0.513292
     7  Cl   0.028857   0.015824
     8  Cl   0.057195  -0.000398
     9  Cl   0.041311   0.000046
 Charge=              0.0000 electrons
 Dipole moment (field-independent basis, Debye):
    X=             -0.9114    Y=             -1.4428    Z=              0.0000  Tot=              1.7066
 N-N= 2.437320884711D+02 E-N=-3.398110169079D+02  KE=-1.121049615668D+02
 Symmetry A'   KE=-8.614244581797D+01
 Symmetry A"   KE=-2.596251574881D+01
 Symmetry A'   SP= 1.000000000000D+00
 Symmetry A"   SP= 5.329070518201D-15
 1\1\GINC-SH02-01N12\FOpt\UAM1\ZDO\C6H2Cl3(2)\JLAPIER\10-Dec-2025\0\\# 
 opt am1 SCF=XQC\\Neutral Radical (removed 3) 12_4\\0,2\C,-3.186302221,
 0.1262488995,0.\C,-1.9591971638,0.7466715628,0.\C,-0.7062810086,0.1817
 918324,0.\C,-0.6828439955,-1.232407898,0.\C,-1.8874913444,-1.944025361
 ,0.\C,-3.1367223587,-1.2929280976,0.\Cl,-4.5552834809,-2.2072204404,0.
 \Cl,-4.6217404764,0.9969727476,0.\Cl,0.7017843299,1.1003714626,0.\H,0.
 2769785194,-1.7685405643,0.\H,-1.8576207999,-3.0451641435,0.\\Version=
 ES64L-G16RevB.01\State=2-A'\HF=0.089184\S2=1.306316\S2-1=0.\S2A=1.0234
 34\RMSD=5.283e-09\RMSF=6.449e-05\Dipole=0.3200076,-0.5902485,0.\PG=CS 
 [SG(C6H2Cl3)]\\@


 A BIRD IN THE HAND IS SAFER THAN ONE OVERHEAD.

                       -- NEWTON'S SEVENTH LAW
 Job cpu time:       0 days  0 hours  0 minutes  7.9 seconds.
 Elapsed time:       0 days  0 hours  0 minutes 16.6 seconds.
 File lengths (MBytes):  RWF=     10 Int=      0 D2E=      0 Chk=      2 Scr=      1
 Normal termination of Gaussian 16 at Wed Dec 10 10:38:13 2025.
