 Entering Gaussian System, Link 0=g16
 Initial command:
 /share/software/user/restricted/gaussian/g16.B01/l1.exe "/home/users/jlapier/Chloroaromatics/Gau-16602.inp" -scrdir="/home/users/jlapier/Chloroaromatics/"
 Entering Link 1 = /share/software/user/restricted/gaussian/g16.B01/l1.exe PID=     16604.
  
 Copyright (c) 1988-2017, Gaussian, Inc.  All Rights Reserved.
  
 This is part of the Gaussian(R) 16 program.  It is based on
 the Gaussian(R) 09 system (copyright 2009, Gaussian, Inc.),
 the Gaussian(R) 03 system (copyright 2003, Gaussian, Inc.),
 the Gaussian(R) 98 system (copyright 1998, Gaussian, Inc.),
 the Gaussian(R) 94 system (copyright 1995, Gaussian, Inc.),
 the Gaussian 92(TM) system (copyright 1992, Gaussian, Inc.),
 the Gaussian 90(TM) system (copyright 1990, Gaussian, Inc.),
 the Gaussian 88(TM) system (copyright 1988, Gaussian, Inc.),
 the Gaussian 86(TM) system (copyright 1986, Carnegie Mellon
 University), and the Gaussian 82(TM) system (copyright 1983,
 Carnegie Mellon University). Gaussian is a federally registered
 trademark of Gaussian, Inc.
  
 This software contains proprietary and confidential information,
 including trade secrets, belonging to Gaussian, Inc.
  
 This software is provided under written license and may be
 used, copied, transmitted, or stored only in accord with that
 written license.
  
 The following legend is applicable only to US Government
 contracts under FAR:
  
                    RESTRICTED RIGHTS LEGEND
  
 Use, reproduction and disclosure by the US Government is
 subject to restrictions as set forth in subparagraphs (a)
 and (c) of the Commercial Computer Software - Restricted
 Rights clause in FAR 52.227-19.
  
 Gaussian, Inc.
 340 Quinnipiac St., Bldg. 40, Wallingford CT 06492
  
  
 ---------------------------------------------------------------
 Warning -- This program may not be used in any manner that
 competes with the business of Gaussian, Inc. or will provide
 assistance to any competitor of Gaussian, Inc.  The licensee
 of this program is prohibited from giving any competitor of
 Gaussian, Inc. access to this program.  By using this program,
 the user acknowledges that Gaussian, Inc. is engaged in the
 business of creating and licensing software in the field of
 computational chemistry and represents and warrants to the
 licensee that it is not a competitor of Gaussian, Inc. and that
 it will not use this program in any manner prohibited above.
 ---------------------------------------------------------------
  

 Cite this work as:
 Gaussian 16, Revision B.01,
 M. J. Frisch, G. W. Trucks, H. B. Schlegel, G. E. Scuseria, 
 M. A. Robb, J. R. Cheeseman, G. Scalmani, V. Barone, 
 G. A. Petersson, H. Nakatsuji, X. Li, M. Caricato, A. V. Marenich, 
 J. Bloino, B. G. Janesko, R. Gomperts, B. Mennucci, H. P. Hratchian, 
 J. V. Ortiz, A. F. Izmaylov, J. L. Sonnenberg, D. Williams-Young, 
 F. Ding, F. Lipparini, F. Egidi, J. Goings, B. Peng, A. Petrone, 
 T. Henderson, D. Ranasinghe, V. G. Zakrzewski, J. Gao, N. Rega, 
 G. Zheng, W. Liang, M. Hada, M. Ehara, K. Toyota, R. Fukuda, 
 J. Hasegawa, M. Ishida, T. Nakajima, Y. Honda, O. Kitao, H. Nakai, 
 T. Vreven, K. Throssell, J. A. Montgomery, Jr., J. E. Peralta, 
 F. Ogliaro, M. J. Bearpark, J. J. Heyd, E. N. Brothers, K. N. Kudin, 
 V. N. Staroverov, T. A. Keith, R. Kobayashi, J. Normand, 
 K. Raghavachari, A. P. Rendell, J. C. Burant, S. S. Iyengar, 
 J. Tomasi, M. Cossi, J. M. Millam, M. Klene, C. Adamo, R. Cammi, 
 J. W. Ochterski, R. L. Martin, K. Morokuma, O. Farkas, 
 J. B. Foresman, and D. J. Fox, Gaussian, Inc., Wallingford CT, 2016.
 
 ******************************************
 Gaussian 16:  ES64L-G16RevB.01 20-Dec-2017
                 8-Dec-2025 
 ******************************************
 %mem=2GB
 %nprocshare=1
 Will use up to    1 processors via shared memory.
 %chk=geometry_chks/1234ClBz.chk
 ---------------------------
 # opt am1 SCF(maxcyc=10000)
 ---------------------------
 1/18=20,19=15,26=1,38=1/1,3;
 2/9=110,12=2,17=6,18=5,40=1/2;
 3/5=2,25=1,41=700000,71=1/1,2,3;
 4/35=1/1;
 5/5=2,7=10000,35=1,38=5/2;
 6/7=2,8=2,9=2,10=2,28=1/1;
 7//1,2,3,16;
 1/18=20,19=15,26=1/3(2);
 2/9=110/2;
 99//99;
 2/9=110/2;
 3/5=2,25=1,41=700000,71=1,135=20/1,2,3;
 4/5=5,16=3,35=1/1;
 5/5=2,7=10000,35=1,38=5/2;
 7//1,2,3,16;
 1/18=20,19=15,26=1/3(-5);
 2/9=110/2;
 6/7=2,8=2,9=2,10=2,19=2,28=1/1;
 99/9=1/99;
 -----------------------
 4-Chloro-Benzene (1234)
 -----------------------
 Symbolic Z-matrix:
 Charge =  0 Multiplicity = 1
 C                    -3.20928   0.19943   0. 
 C                    -2.0115    0.93555   0. 
 C                    -0.77511   0.2663    0. 
 C                    -0.7365   -1.13907   0. 
 C                    -1.93429  -1.87519   0. 
 C                    -3.17067  -1.20594   0. 
 Cl                   -4.67483  -2.13035   0. 
 Cl                   -4.76193   1.03987   0. 
 Cl                    0.81614  -1.97951   0. 
 Cl                   -1.8858   -3.64003   0. 
 H                    -2.05998   2.7004    0. 
 H                     0.72905   1.19071   0. 
 
 Add virtual bond connecting atoms H12        and C3         Dist= 3.34D+00.
 Add virtual bond connecting atoms H11        and C2         Dist= 3.34D+00.

 GradGradGradGradGradGradGradGradGradGradGradGradGradGradGradGradGradGrad
 Berny optimization.
 Initialization pass.
                           ----------------------------
                           !    Initial Parameters    !
                           ! (Angstroms and Degrees)  !
 --------------------------                            --------------------------
 ! Name  Definition              Value          Derivative Info.                !
 --------------------------------------------------------------------------------
 ! R1    R(1,2)                  1.4059         estimate D2E/DX2                !
 ! R2    R(1,6)                  1.4059         estimate D2E/DX2                !
 ! R3    R(1,8)                  1.7655         estimate D2E/DX2                !
 ! R4    R(2,3)                  1.4059         estimate D2E/DX2                !
 ! R5    R(2,11)                 1.7655         estimate D2E/DX2                !
 ! R6    R(3,4)                  1.4059         estimate D2E/DX2                !
 ! R7    R(3,12)                 1.7655         estimate D2E/DX2                !
 ! R8    R(4,5)                  1.4059         estimate D2E/DX2                !
 ! R9    R(4,9)                  1.7655         estimate D2E/DX2                !
 ! R10   R(5,6)                  1.4059         estimate D2E/DX2                !
 ! R11   R(5,10)                 1.7655         estimate D2E/DX2                !
 ! R12   R(6,7)                  1.7655         estimate D2E/DX2                !
 ! A1    A(2,1,6)              119.9999         estimate D2E/DX2                !
 ! A2    A(2,1,8)              119.9999         estimate D2E/DX2                !
 ! A3    A(6,1,8)              120.0001         estimate D2E/DX2                !
 ! A4    A(1,2,3)              120.0            estimate D2E/DX2                !
 ! A5    A(1,2,11)             120.0001         estimate D2E/DX2                !
 ! A6    A(3,2,11)             119.9999         estimate D2E/DX2                !
 ! A7    A(2,3,4)              120.0001         estimate D2E/DX2                !
 ! A8    A(2,3,12)             120.0            estimate D2E/DX2                !
 ! A9    A(4,3,12)             119.9999         estimate D2E/DX2                !
 ! A10   A(3,4,5)              119.9997         estimate D2E/DX2                !
 ! A11   A(3,4,9)              120.0003         estimate D2E/DX2                !
 ! A12   A(5,4,9)              120.0            estimate D2E/DX2                !
 ! A13   A(4,5,6)              120.0            estimate D2E/DX2                !
 ! A14   A(4,5,10)             119.9996         estimate D2E/DX2                !
 ! A15   A(6,5,10)             120.0004         estimate D2E/DX2                !
 ! A16   A(1,6,5)              120.0003         estimate D2E/DX2                !
 ! A17   A(1,6,7)              119.9999         estimate D2E/DX2                !
 ! A18   A(5,6,7)              119.9998         estimate D2E/DX2                !
 ! D1    D(6,1,2,3)              0.0            estimate D2E/DX2                !
 ! D2    D(6,1,2,11)           180.0            estimate D2E/DX2                !
 ! D3    D(8,1,2,3)            180.0            estimate D2E/DX2                !
 ! D4    D(8,1,2,11)             0.0            estimate D2E/DX2                !
 ! D5    D(2,1,6,5)              0.0            estimate D2E/DX2                !
 ! D6    D(2,1,6,7)            180.0            estimate D2E/DX2                !
 ! D7    D(8,1,6,5)            180.0            estimate D2E/DX2                !
 ! D8    D(8,1,6,7)              0.0            estimate D2E/DX2                !
 ! D9    D(1,2,3,4)              0.0            estimate D2E/DX2                !
 ! D10   D(1,2,3,12)           180.0            estimate D2E/DX2                !
 ! D11   D(11,2,3,4)           180.0            estimate D2E/DX2                !
 ! D12   D(11,2,3,12)            0.0            estimate D2E/DX2                !
 ! D13   D(2,3,4,5)              0.0            estimate D2E/DX2                !
 ! D14   D(2,3,4,9)            180.0            estimate D2E/DX2                !
 ! D15   D(12,3,4,5)           180.0            estimate D2E/DX2                !
 ! D16   D(12,3,4,9)             0.0            estimate D2E/DX2                !
 ! D17   D(3,4,5,6)              0.0            estimate D2E/DX2                !
 ! D18   D(3,4,5,10)           180.0            estimate D2E/DX2                !
 ! D19   D(9,4,5,6)            180.0            estimate D2E/DX2                !
 ! D20   D(9,4,5,10)             0.0            estimate D2E/DX2                !
 ! D21   D(4,5,6,1)              0.0            estimate D2E/DX2                !
 ! D22   D(4,5,6,7)            180.0            estimate D2E/DX2                !
 ! D23   D(10,5,6,1)           180.0            estimate D2E/DX2                !
 ! D24   D(10,5,6,7)             0.0            estimate D2E/DX2                !
 --------------------------------------------------------------------------------
 Trust Radius=3.00D-01 FncErr=1.00D-07 GrdErr=1.00D-07 EigMax=2.50D+02 EigMin=1.00D-04
 Number of steps in this run=     64 maximum allowed number of steps=    100.
 GradGradGradGradGradGradGradGradGradGradGradGradGradGradGradGradGradGrad

                          Input orientation:                          
 ---------------------------------------------------------------------
 Center     Atomic      Atomic             Coordinates (Angstroms)
 Number     Number       Type             X           Y           Z
 ---------------------------------------------------------------------
      1          6           0       -3.209280    0.199430    0.000000
      2          6           0       -2.011500    0.935550    0.000000
      3          6           0       -0.775110    0.266300    0.000000
      4          6           0       -0.736500   -1.139070    0.000000
      5          6           0       -1.934290   -1.875190    0.000000
      6          6           0       -3.170670   -1.205940    0.000000
      7         17           0       -4.674830   -2.130350    0.000000
      8         17           0       -4.761930    1.039870    0.000000
      9         17           0        0.816140   -1.979510    0.000000
     10         17           0       -1.885800   -3.640030    0.000000
     11          1           0       -2.059980    2.700400    0.000000
     12          1           0        0.729050    1.190710    0.000000
 ---------------------------------------------------------------------
                    Distance matrix (angstroms):
                    1          2          3          4          5
     1  C    0.000000
     2  C    1.405898   0.000000
     3  C    2.435088   1.405900   0.000000
     4  C    2.811801   2.435092   1.405900   0.000000
     5  C    2.435087   2.811800   2.435093   1.405907   0.000000
     6  C    1.405900   2.435088   2.811796   2.435088   1.405892
     7  Cl   2.752401   4.061166   4.577308   4.061167   2.752393
     8  Cl   1.765520   2.752408   4.061175   4.577321   4.061173
     9  Cl   4.577312   4.061173   2.752406   1.765511   2.752408
    10  Cl   4.061164   4.577306   4.061163   2.752397   1.765506
    11  H    2.752406   1.765516   2.752405   4.061173   4.577316
    12  H    4.061167   2.752403   1.765512   2.752401   4.061173
                    6          7          8          9         10
     6  C    0.000000
     7  Cl   1.765512   0.000000
     8  Cl   2.752412   3.171416   0.000000
     9  Cl   4.061165   5.493041   6.342832   0.000000
    10  Cl   2.752396   3.171407   5.493049   3.171404   0.000000
    11  H    4.061173   5.493049   3.171418   5.493052   6.342822
    12  H    4.577308   6.342819   5.493051   3.171416   5.493040
                   11         12
    11  H    0.000000
    12  H    3.171412   0.000000
 Stoichiometry    C6H2Cl4
 Framework group  CS[SG(C6H2Cl4)]
 Deg. of freedom    21
 Full point group                 CS      NOp   2
 Largest Abelian subgroup         CS      NOp   2
 Largest concise Abelian subgroup C1      NOp   1
                         Standard orientation:                         
 ---------------------------------------------------------------------
 Center     Atomic      Atomic             Coordinates (Angstroms)
 Number     Number       Type             X           Y           Z
 ---------------------------------------------------------------------
      1          6           0        0.829139    1.405898    0.000000
      2          6           0        2.046683    0.702950    0.000000
      3          6           0        2.046683   -0.702950    0.000000
      4          6           0        0.829139   -1.405902    0.000000
      5          6           0       -0.388410   -0.702946    0.000000
      6          6           0       -0.388405    0.702946    0.000000
      7         17           0       -1.917383    1.585702    0.000000
      8         17           0        0.829140    3.171418    0.000000
      9         17           0        0.829134   -3.171414    0.000000
     10         17           0       -1.917379   -1.585705    0.000000
     11          1           0        3.575666    1.585706    0.000000
     12          1           0        3.575661   -1.585706    0.000000
 ---------------------------------------------------------------------
 Rotational constants (GHZ):           1.1200180           0.5289133           0.3592584
 Standard basis: VSTO-6G (5D, 7F)
 There are    32 symmetry adapted cartesian basis functions of A'  symmetry.
 There are    10 symmetry adapted cartesian basis functions of A"  symmetry.
 There are    32 symmetry adapted basis functions of A'  symmetry.
 There are    10 symmetry adapted basis functions of A"  symmetry.
    42 basis functions,   252 primitive gaussians,    42 cartesian basis functions
    27 alpha electrons       27 beta electrons
       nuclear repulsion energy       301.7401674999 Hartrees.
 Integral buffers will be    131072 words long.
 Regular integral format.
 Two-electron integral symmetry is turned off.
 Do NDO integrals.
 One-electron integrals computed using PRISM.
 NBasis=    42 RedAO= T EigKep=  1.00D+00  NBF=    32    10
 NBsUse=    42 1.00D-06 EigRej= -1.00D+00 NBFU=    32    10
 Simple Huckel Guess.
 Initial guess orbital symmetries:
       Occupied  (A') (A') (A') (A') (A') (A') (A') (A') (A') (A')
                 (A") (A') (A') (A') (A') (A") (A") (A') (A') (A")
                 (A") (A') (A') (A') (A') (A") (A")
       Virtual   (A') (A") (A") (A') (A") (A') (A') (A') (A') (A')
                 (A') (A') (A') (A') (A')
 The electronic state of the initial guess is 1-A'.
 Keep J ints in memory in canonical form, NReq=864594.
 Overlap will be assumed to be unity.
 Requested convergence on RMS density matrix=1.00D-08 within**** cycles.
 Requested convergence on MAX density matrix=1.00D-06.
 Requested convergence on             energy=1.00D-06.
 No special actions if energy rises.
 Fock symm off for IB=2 I1=    1 I=   33 J=   25 Cut=1.00D-07 Err=3.32D-03
 Fock matrix is not symmetric: symmetry in diagonalization turned off.
 SCF Done:  E(RAM1) =  0.252809268671     A.U. after   15 cycles
            NFock= 14  Conv=0.28D-08     -V/T= 1.0019

 **********************************************************************

            Population analysis using the SCF Density.

 **********************************************************************

 Orbital symmetries:
       Occupied  (A') (A') (A') (A') (A') (A') (A') (A') (A') (A')
                 (A') (A') (A") (A') (A') (A") (A") (A') (A') (A")
                 (A') (A") (A') (A') (A') (A") (A")
       Virtual   (A") (A') (A") (A') (A') (A') (A') (A') (A") (A')
                 (A') (A') (A') (A') (A')
 The electronic state is 1-A'.
 Alpha  occ. eigenvalues --   -1.45194  -1.38820  -1.37895  -1.37109  -1.35449
 Alpha  occ. eigenvalues --   -1.13810  -1.12681  -0.86319  -0.85184  -0.66626
 Alpha  occ. eigenvalues --   -0.63482  -0.61213  -0.56581  -0.56416  -0.53065
 Alpha  occ. eigenvalues --   -0.49988  -0.47809  -0.46401  -0.46140  -0.46034
 Alpha  occ. eigenvalues --   -0.44743  -0.43292  -0.43223  -0.43037  -0.40672
 Alpha  occ. eigenvalues --   -0.36193  -0.35728
 Alpha virt. eigenvalues --   -0.01751  -0.01620  -0.01214  -0.00419   0.01630
 Alpha virt. eigenvalues --    0.02240   0.03875   0.04453   0.07372   0.13227
 Alpha virt. eigenvalues --    0.13429   0.15067   0.15315   0.16860   0.18019
          Condensed to atoms (all electrons):
               1          2          3          4          5          6
     1  C    4.034897   0.000000   0.000000   0.000000   0.000000   0.000000
     2  C    0.000000   4.138533   0.000000   0.000000   0.000000   0.000000
     3  C    0.000000   0.000000   4.138533   0.000000   0.000000   0.000000
     4  C    0.000000   0.000000   0.000000   4.034900   0.000000   0.000000
     5  C    0.000000   0.000000   0.000000   0.000000   4.040689   0.000000
     6  C    0.000000   0.000000   0.000000   0.000000   0.000000   4.040686
     7  Cl   0.000000   0.000000   0.000000   0.000000   0.000000   0.000000
     8  Cl   0.000000   0.000000   0.000000   0.000000   0.000000   0.000000
     9  Cl   0.000000   0.000000   0.000000   0.000000   0.000000   0.000000
    10  Cl   0.000000   0.000000   0.000000   0.000000   0.000000   0.000000
    11  H    0.000000   0.000000   0.000000   0.000000   0.000000   0.000000
    12  H    0.000000   0.000000   0.000000   0.000000   0.000000   0.000000
               7          8          9         10         11         12
     1  C    0.000000   0.000000   0.000000   0.000000   0.000000   0.000000
     2  C    0.000000   0.000000   0.000000   0.000000   0.000000   0.000000
     3  C    0.000000   0.000000   0.000000   0.000000   0.000000   0.000000
     4  C    0.000000   0.000000   0.000000   0.000000   0.000000   0.000000
     5  C    0.000000   0.000000   0.000000   0.000000   0.000000   0.000000
     6  C    0.000000   0.000000   0.000000   0.000000   0.000000   0.000000
     7  Cl   6.991310   0.000000   0.000000   0.000000   0.000000   0.000000
     8  Cl   0.000000   7.011971   0.000000   0.000000   0.000000   0.000000
     9  Cl   0.000000   0.000000   7.011967   0.000000   0.000000   0.000000
    10  Cl   0.000000   0.000000   0.000000   6.991306   0.000000   0.000000
    11  H    0.000000   0.000000   0.000000   0.000000   0.782604   0.000000
    12  H    0.000000   0.000000   0.000000   0.000000   0.000000   0.782605
 Mulliken charges:
               1
     1  C   -0.034897
     2  C   -0.138533
     3  C   -0.138533
     4  C   -0.034900
     5  C   -0.040689
     6  C   -0.040686
     7  Cl   0.008690
     8  Cl  -0.011971
     9  Cl  -0.011967
    10  Cl   0.008694
    11  H    0.217396
    12  H    0.217395
 Sum of Mulliken charges =   0.00000
 Mulliken charges with hydrogens summed into heavy atoms:
               1
     1  C   -0.034897
     2  C    0.078864
     3  C    0.078862
     4  C   -0.034900
     5  C   -0.040689
     6  C   -0.040686
     7  Cl   0.008690
     8  Cl  -0.011971
     9  Cl  -0.011967
    10  Cl   0.008694
 Charge=              0.0000 electrons
 Dipole moment (field-independent basis, Debye):
    X=              3.8128    Y=             -0.0000    Z=              0.0000  Tot=              3.8128
 N-N= 3.017401674999D+02 E-N=-4.289675094746D+02  KE=-1.345451050447D+02
 Symmetry A'   KE=-1.029088552293D+02
 Symmetry A"   KE=-3.163624981543D+01
 Calling FoFJK, ICntrl=      2127 FMM=F ISym2X=1 I1Cent= 0 IOpClX= 0 NMat=1 NMatS=1 NMatT=0.
 ***** Axes restored to original set *****
 -------------------------------------------------------------------
 Center     Atomic                   Forces (Hartrees/Bohr)
 Number     Number              X              Y              Z
 -------------------------------------------------------------------
      1        6          -0.008855314    0.026000247    0.000000000
      2        6           0.016632881    0.070641603    0.000000000
      3        6           0.050052403    0.052550204   -0.000000000
      4        6           0.026603281    0.006803081    0.000000000
      5        6           0.000112635   -0.025441605    0.000000000
      6        6          -0.021364703   -0.013825059    0.000000000
      7       17           0.033103721    0.020017622   -0.000000000
      8       17           0.034920769   -0.016085122   -0.000000000
      9       17          -0.032558930    0.020441837    0.000000000
     10       17          -0.001341586    0.038660492   -0.000000000
     11        1           0.002220064   -0.117418658   -0.000000000
     12        1          -0.099525221   -0.062344641   -0.000000000
 -------------------------------------------------------------------
 Cartesian Forces:  Max     0.117418658 RMS     0.036082585

 GradGradGradGradGradGradGradGradGradGradGradGradGradGradGradGradGradGrad
 Berny optimization.
 FormGI is forming the generalized inverse of G from B-inverse, IUseBI=4.
 Internal  Forces:  Max     0.117435574 RMS     0.026982654
 Search for a local minimum.
 Step number   1 out of a maximum of   64
 All quantities printed in internal units (Hartrees-Bohrs-Radians)
 Mixed Optimization -- RFO/linear search
 Second derivative matrix not updated -- first step.
 ITU=  0
     Eigenvalues ---    0.02011   0.02011   0.02011   0.02011   0.02011
     Eigenvalues ---    0.02011   0.02011   0.02011   0.02011   0.06524
     Eigenvalues ---    0.06524   0.16000   0.16000   0.22488   0.24492
     Eigenvalues ---    0.25000   0.25000   0.25000   0.25000   0.25000
     Eigenvalues ---    0.29033   0.29033   0.29033   0.29034   0.40957
     Eigenvalues ---    0.41135   0.44656   0.44657   0.44657   0.44657
 RFO step:  Lambda=-1.50991180D-01 EMin= 2.01065826D-02
 Linear search not attempted -- first point.
 Maximum step size (   0.300) exceeded in Quadratic search.
    -- Step size scaled by   0.376
 Iteration  1 RMS(Cart)=  0.04500031 RMS(Int)=  0.00077659
 Iteration  2 RMS(Cart)=  0.00071937 RMS(Int)=  0.00000973
 Iteration  3 RMS(Cart)=  0.00000004 RMS(Int)=  0.00000973
 ClnCor:  largest displacement from symmetrization is 1.23D-09 for atom     8.
 Variable       Old X    -DE/DX   Delta X   Delta X   Delta X     New X
                                 (Linear)    (Quad)   (Total)
    R1        2.65676  -0.03401   0.00000  -0.02181  -0.02180   2.63496
    R2        2.65677  -0.01250   0.00000  -0.00743  -0.00744   2.64932
    R3        3.33635  -0.03837   0.00000  -0.03266  -0.03266   3.30369
    R4        2.65677  -0.05117   0.00000  -0.03302  -0.03300   2.62377
    R5        3.33634  -0.11744   0.00000  -0.20403  -0.20403   3.13231
    R6        2.65677  -0.03402   0.00000  -0.02181  -0.02180   2.63497
    R7        3.33633  -0.11744   0.00000  -0.20403  -0.20403   3.13230
    R8        2.65678  -0.01250   0.00000  -0.00744  -0.00745   2.64933
    R9        3.33633  -0.03836   0.00000  -0.03266  -0.03266   3.30368
   R10        2.65675  -0.01326   0.00000  -0.00749  -0.00751   2.64924
   R11        3.33632  -0.03868   0.00000  -0.03293  -0.03293   3.30339
   R12        3.33633  -0.03868   0.00000  -0.03293  -0.03293   3.30340
    A1        2.09439  -0.00318   0.00000  -0.00312  -0.00312   2.09127
    A2        2.09439  -0.00255   0.00000  -0.00231  -0.00231   2.09208
    A3        2.09440   0.00572   0.00000   0.00543   0.00543   2.09983
    A4        2.09439   0.00804   0.00000   0.00590   0.00592   2.10032
    A5        2.09440  -0.00570   0.00000  -0.00497  -0.00499   2.08941
    A6        2.09439  -0.00235   0.00000  -0.00092  -0.00094   2.09346
    A7        2.09440   0.00805   0.00000   0.00590   0.00592   2.10032
    A8        2.09440  -0.00235   0.00000  -0.00092  -0.00094   2.09346
    A9        2.09439  -0.00570   0.00000  -0.00497  -0.00499   2.08941
   A10        2.09439  -0.00317   0.00000  -0.00312  -0.00312   2.09127
   A11        2.09440  -0.00255   0.00000  -0.00231  -0.00231   2.09209
   A12        2.09440   0.00572   0.00000   0.00543   0.00543   2.09983
   A13        2.09439  -0.00487   0.00000  -0.00277  -0.00280   2.09159
   A14        2.09439   0.00290   0.00000   0.00182   0.00184   2.09622
   A15        2.09440   0.00197   0.00000   0.00095   0.00096   2.09537
   A16        2.09440  -0.00487   0.00000  -0.00277  -0.00280   2.09160
   A17        2.09439   0.00290   0.00000   0.00182   0.00184   2.09623
   A18        2.09439   0.00197   0.00000   0.00095   0.00097   2.09536
    D1        0.00000   0.00000   0.00000   0.00000   0.00000   0.00000
    D2        3.14159  -0.00000   0.00000  -0.00000   0.00000   3.14159
    D3        3.14159   0.00000   0.00000   0.00000   0.00000   3.14159
    D4        0.00000   0.00000   0.00000   0.00000   0.00000   0.00000
    D5        0.00000   0.00000   0.00000   0.00000   0.00000   0.00000
    D6        3.14159   0.00000   0.00000   0.00000   0.00000   3.14159
    D7        3.14159  -0.00000   0.00000  -0.00000   0.00000   3.14159
    D8        0.00000  -0.00000   0.00000  -0.00000   0.00000   0.00000
    D9        0.00000  -0.00000   0.00000  -0.00000   0.00000   0.00000
   D10        3.14159  -0.00000   0.00000  -0.00000   0.00000   3.14159
   D11        3.14159   0.00000   0.00000   0.00000   0.00000   3.14159
   D12        0.00000   0.00000   0.00000   0.00000   0.00000   0.00000
   D13        0.00000   0.00000   0.00000   0.00000   0.00000   0.00000
   D14        3.14159  -0.00000   0.00000  -0.00000   0.00000   3.14159
   D15        3.14159   0.00000   0.00000   0.00000   0.00000   3.14159
   D16        0.00000   0.00000   0.00000   0.00000   0.00000   0.00000
   D17        0.00000  -0.00000   0.00000  -0.00000   0.00000   0.00000
   D18        3.14159  -0.00000   0.00000  -0.00000   0.00000   3.14159
   D19        3.14159   0.00000   0.00000   0.00000   0.00000   3.14159
   D20        0.00000  -0.00000   0.00000  -0.00000   0.00000   0.00000
   D21        0.00000  -0.00000   0.00000  -0.00000   0.00000   0.00000
   D22        3.14159  -0.00000   0.00000  -0.00000   0.00000   3.14159
   D23        3.14159   0.00000   0.00000   0.00000   0.00000   3.14159
   D24        0.00000  -0.00000   0.00000  -0.00000   0.00000   0.00000
         Item               Value     Threshold  Converged?
 Maximum Force            0.117436     0.000450     NO 
 RMS     Force            0.026983     0.000300     NO 
 Maximum Displacement     0.210916     0.001800     NO 
 RMS     Displacement     0.045687     0.001200     NO 
 Predicted change in Energy=-5.286341D-02
 GradGradGradGradGradGradGradGradGradGradGradGradGradGradGradGradGradGrad

                          Input orientation:                          
 ---------------------------------------------------------------------
 Center     Atomic      Atomic             Coordinates (Angstroms)
 Number     Number       Type             X           Y           Z
 ---------------------------------------------------------------------
      1          6           0       -3.195845    0.208792    0.000000
      2          6           0       -2.003589    0.931824    0.000000
      3          6           0       -0.782556    0.270885    0.000000
      4          6           0       -0.736008   -1.122702    0.000000
      5          6           0       -1.928381   -1.860102    0.000000
      6          6           0       -3.161268   -1.192743    0.000000
      7         17           0       -4.651465   -2.106592    0.000000
      8         17           0       -4.726391    1.053636    0.000000
      9         17           0        0.808235   -1.942227    0.000000
     10         17           0       -1.878684   -3.607476    0.000000
     11          1           0       -2.047553    2.588788    0.000000
     12          1           0        0.628806    1.140086    0.000000
 ---------------------------------------------------------------------
                    Distance matrix (angstroms):
                    1          2          3          4          5
     1  C    0.000000
     2  C    1.394363   0.000000
     3  C    2.414088   1.388439   0.000000
     4  C    2.797083   2.414091   1.394364   0.000000
     5  C    2.426270   2.792938   2.419508   1.401967   0.000000
     6  C    1.401962   2.419505   2.792934   2.426271   1.401920
     7  Cl   2.734928   4.030287   4.541019   4.037182   2.734217
     8  Cl   1.748237   2.725525   4.020763   4.545284   4.039645
     9  Cl   4.545276   4.020761   2.725524   1.748230   2.737847
    10  Cl   4.037180   4.541018   4.030284   2.734925   1.748081
    11  H    2.642528   1.657548   2.640623   3.936408   4.450486
    12  H    3.936402   2.640621   1.657544   2.642522   3.942122
                    6          7          8          9         10
     6  C    0.000000
     7  Cl   1.748086   0.000000
     8  Cl   2.737851   3.161116   0.000000
     9  Cl   4.039639   5.462173   6.293431   0.000000
    10  Cl   2.734220   3.152930   5.462180   3.161106   0.000000
    11  H    3.942124   5.369073   3.087534   5.355896   6.198565
    12  H    4.450478   6.198562   5.355895   3.087530   5.369064
                   11         12
    11  H    0.000000
    12  H    3.043293   0.000000
 Stoichiometry    C6H2Cl4
 Framework group  CS[SG(C6H2Cl4)]
 Deg. of freedom    21
 Full point group                 CS      NOp   2
 Largest Abelian subgroup         CS      NOp   2
 Largest concise Abelian subgroup C1      NOp   1
                         Standard orientation:                         
 ---------------------------------------------------------------------
 Center     Atomic      Atomic             Coordinates (Angstroms)
 Number     Number       Type             X           Y           Z
 ---------------------------------------------------------------------
      1          6           0        1.401904    0.816649    0.000000
      2          6           0        2.106238   -0.386747    0.000000
      3          6           0        1.426321   -1.597315    0.000000
      4          6           0        0.032177   -1.622105    0.000000
      5          6           0       -0.686521   -0.418368    0.000000
      6          6           0        0.000000    0.803953    0.000000
      7         17           0       -0.890477    2.308232    0.000000
      8         17           0        2.270535    2.333822    0.000000
      9         17           0       -0.811352   -3.153368    0.000000
     10         17           0       -2.434459   -0.440784    0.000000
     11          1           0        3.763687   -0.368652    0.000000
     12          1           0        2.273386   -3.022072    0.000000
 ---------------------------------------------------------------------
 Rotational constants (GHZ):           1.1344846           0.5369001           0.3644313
 Standard basis: VSTO-6G (5D, 7F)
 There are    32 symmetry adapted cartesian basis functions of A'  symmetry.
 There are    10 symmetry adapted cartesian basis functions of A"  symmetry.
 There are    32 symmetry adapted basis functions of A'  symmetry.
 There are    10 symmetry adapted basis functions of A"  symmetry.
    42 basis functions,   252 primitive gaussians,    42 cartesian basis functions
    27 alpha electrons       27 beta electrons
       nuclear repulsion energy       303.3965171073 Hartrees.
 Integral buffers will be    131072 words long.
 Regular integral format.
 Two-electron integral symmetry is turned off.
 Do NDO integrals.
 One-electron integrals computed using PRISM.
 NBasis=    42 RedAO= T EigKep=  1.00D+00  NBF=    32    10
 NBsUse=    42 1.00D-06 EigRej= -1.00D+00 NBFU=    32    10
 Initial guess from the checkpoint file:  "geometry_chks/1234ClBz.chk"
 B after Tr=     0.000000   -0.000000    0.000000
         Rot=    0.967443    0.000000   -0.000000    0.253089 Ang=  29.32 deg.
 Initial guess orbital symmetries:
       Occupied  (A') (A') (A') (A') (A') (A') (A') (A') (A') (A')
                 (A') (A') (A") (A') (A') (A") (A") (A') (A') (A")
                 (A') (A") (A') (A') (A') (A") (A")
       Virtual   (A") (A') (A") (A') (A') (A') (A') (A') (A") (A')
                 (A') (A') (A') (A') (A')
 Keep J ints in memory in canonical form, NReq=864594.
 Overlap will be assumed to be unity.
 Requested convergence on RMS density matrix=1.00D-08 within**** cycles.
 Requested convergence on MAX density matrix=1.00D-06.
 Requested convergence on             energy=1.00D-06.
 No special actions if energy rises.
 Fock symm off for IB=2 I1=    1 I=   33 J=    9 Cut=1.00D-07 Err=9.93D-04
 Fock matrix is not symmetric: symmetry in diagonalization turned off.
 SCF Done:  E(RAM1) =  0.196513537138     A.U. after   13 cycles
            NFock= 12  Conv=0.14D-08     -V/T= 1.0015
 Calling FoFJK, ICntrl=      2127 FMM=F ISym2X=1 I1Cent= 0 IOpClX= 0 NMat=1 NMatS=1 NMatT=0.
 ***** Axes restored to original set *****
 -------------------------------------------------------------------
 Center     Atomic                   Forces (Hartrees/Bohr)
 Number     Number              X              Y              Z
 -------------------------------------------------------------------
      1        6          -0.015990751    0.022083389    0.000000000
      2        6           0.010989181    0.095830067    0.000000000
      3        6           0.074227740    0.061598352    0.000000000
      4        6           0.027226938   -0.001312936    0.000000000
      5        6           0.000060428   -0.026335291    0.000000000
      6        6          -0.022084329   -0.014355729    0.000000000
      7       17           0.025777334    0.015642200   -0.000000000
      8       17           0.026885923   -0.012651142   -0.000000000
      9       17          -0.025290684    0.015592279   -0.000000000
     10       17          -0.000998878    0.030133985   -0.000000000
     11        1           0.002369149   -0.121677054   -0.000000000
     12        1          -0.103172051   -0.064548120   -0.000000000
 -------------------------------------------------------------------
 Cartesian Forces:  Max     0.121677054 RMS     0.038975684

 GradGradGradGradGradGradGradGradGradGradGradGradGradGradGradGradGradGrad
 Berny optimization.
 Using GEDIIS/GDIIS optimizer.
 FormGI is forming the generalized inverse of G from B-inverse, IUseBI=4.
 Internal  Forces:  Max     0.121697142 RMS     0.025381649
 Search for a local minimum.
 Step number   2 out of a maximum of   64
 All quantities printed in internal units (Hartrees-Bohrs-Radians)
 Mixed Optimization -- RFO/linear search
 Update second derivatives using D2CorX and points    1    2
 DE= -5.63D-02 DEPred=-5.29D-02 R= 1.06D+00
 TightC=F SS=  1.41D+00  RLast= 3.00D-01 DXNew= 5.0454D-01 9.0000D-01
 Trust test= 1.06D+00 RLast= 3.00D-01 DXMaxT set to 5.05D-01
 ITU=  1  0
 Use linear search instead of GDIIS.
 Linear search step of   0.600 exceeds DXMaxT=   0.505 but not scaled.
 Quartic linear search produced a step of  2.00000.
 Iteration  1 RMS(Cart)=  0.05686621 RMS(Int)=  0.04004261
 Iteration  2 RMS(Cart)=  0.03596666 RMS(Int)=  0.00155349
 Iteration  3 RMS(Cart)=  0.00145199 RMS(Int)=  0.00005916
 Iteration  4 RMS(Cart)=  0.00000001 RMS(Int)=  0.00005916
 ClnCor:  largest displacement from symmetrization is 1.20D-15 for atom    12.
 Variable       Old X    -DE/DX   Delta X   Delta X   Delta X     New X
                                 (Linear)    (Quad)   (Total)
    R1        2.63496  -0.01649  -0.04360   0.00000  -0.04354   2.59142
    R2        2.64932  -0.00271  -0.01488   0.00000  -0.01494   2.63439
    R3        3.30369  -0.02965  -0.06532   0.00000  -0.06532   3.23837
    R4        2.62377  -0.02873  -0.06600   0.00000  -0.06589   2.55788
    R5        3.13231  -0.12170  -0.40806   0.00000  -0.40806   2.72425
    R6        2.63497  -0.01650  -0.04360   0.00000  -0.04354   2.59142
    R7        3.13230  -0.12170  -0.40806   0.00000  -0.40806   2.72424
    R8        2.64933  -0.00271  -0.01489   0.00000  -0.01494   2.63439
    R9        3.30368  -0.02965  -0.06531   0.00000  -0.06531   3.23836
   R10        2.64924  -0.00305  -0.01501   0.00000  -0.01512   2.63413
   R11        3.30339  -0.03015  -0.06586   0.00000  -0.06586   3.23754
   R12        3.30340  -0.03015  -0.06586   0.00000  -0.06586   3.23754
    A1        2.09127  -0.00287  -0.00624   0.00000  -0.00624   2.08503
    A2        2.09208  -0.00173  -0.00462   0.00000  -0.00462   2.08746
    A3        2.09983   0.00460   0.01087   0.00000   0.01087   2.11070
    A4        2.10032   0.00578   0.01185   0.00000   0.01201   2.11232
    A5        2.08941  -0.00423  -0.00997   0.00000  -0.01005   2.07936
    A6        2.09346  -0.00154  -0.00187   0.00000  -0.00195   2.09151
    A7        2.10032   0.00578   0.01185   0.00000   0.01201   2.11233
    A8        2.09346  -0.00154  -0.00187   0.00000  -0.00195   2.09151
    A9        2.08941  -0.00423  -0.00997   0.00000  -0.01005   2.07935
   A10        2.09127  -0.00287  -0.00624   0.00000  -0.00624   2.08503
   A11        2.09209  -0.00173  -0.00462   0.00000  -0.00462   2.08746
   A12        2.09983   0.00460   0.01087   0.00000   0.01087   2.11069
   A13        2.09159  -0.00291  -0.00560   0.00000  -0.00576   2.08583
   A14        2.09622   0.00169   0.00367   0.00000   0.00375   2.09998
   A15        2.09537   0.00122   0.00193   0.00000   0.00201   2.09737
   A16        2.09160  -0.00291  -0.00560   0.00000  -0.00576   2.08583
   A17        2.09623   0.00169   0.00367   0.00000   0.00375   2.09998
   A18        2.09536   0.00122   0.00193   0.00000   0.00201   2.09737
    D1        0.00000  -0.00000   0.00000   0.00000   0.00000   0.00000
    D2        3.14159  -0.00000   0.00000   0.00000   0.00000   3.14159
    D3        3.14159   0.00000   0.00000   0.00000   0.00000   3.14159
    D4        0.00000  -0.00000   0.00000   0.00000   0.00000   0.00000
    D5        0.00000   0.00000   0.00000   0.00000   0.00000   0.00000
    D6        3.14159   0.00000   0.00000   0.00000   0.00000   3.14159
    D7        3.14159  -0.00000   0.00000   0.00000   0.00000   3.14159
    D8        0.00000   0.00000   0.00000   0.00000   0.00000   0.00000
    D9        0.00000  -0.00000   0.00000   0.00000   0.00000   0.00000
   D10        3.14159  -0.00000   0.00000   0.00000   0.00000   3.14159
   D11        3.14159   0.00000   0.00000   0.00000   0.00000   3.14159
   D12        0.00000  -0.00000   0.00000   0.00000   0.00000   0.00000
   D13        0.00000   0.00000   0.00000   0.00000   0.00000   0.00000
   D14        3.14159  -0.00000   0.00000   0.00000   0.00000   3.14159
   D15        3.14159   0.00000   0.00000   0.00000   0.00000   3.14159
   D16        0.00000   0.00000   0.00000   0.00000   0.00000   0.00000
   D17        0.00000  -0.00000   0.00000   0.00000   0.00000   0.00000
   D18        3.14159  -0.00000   0.00000   0.00000   0.00000   3.14159
   D19        3.14159   0.00000   0.00000   0.00000   0.00000   3.14159
   D20        0.00000  -0.00000   0.00000   0.00000   0.00000   0.00000
   D21        0.00000  -0.00000   0.00000   0.00000   0.00000   0.00000
   D22        3.14159  -0.00000   0.00000   0.00000   0.00000   3.14159
   D23        3.14159   0.00000   0.00000   0.00000   0.00000   3.14159
   D24        0.00000   0.00000   0.00000   0.00000   0.00000   0.00000
         Item               Value     Threshold  Converged?
 Maximum Force            0.121697     0.000450     NO 
 RMS     Force            0.025382     0.000300     NO 
 Maximum Displacement     0.421609     0.001800     NO 
 RMS     Displacement     0.091352     0.001200     NO 
 Predicted change in Energy=-1.086612D-01
 GradGradGradGradGradGradGradGradGradGradGradGradGradGradGradGradGradGrad

                          Input orientation:                          
 ---------------------------------------------------------------------
 Center     Atomic      Atomic             Coordinates (Angstroms)
 Number     Number       Type             X           Y           Z
 ---------------------------------------------------------------------
      1          6           0       -3.168733    0.227552    0.000000
      2          6           0       -1.987727    0.924506    0.000000
      3          6           0       -0.797357    0.280165    0.000000
      4          6           0       -0.735129   -1.089744    0.000000
      5          6           0       -1.916530   -1.829806    0.000000
      6          6           0       -3.142383   -1.166257    0.000000
      7         17           0       -4.604667   -2.058949    0.000000
      8         17           0       -4.655039    1.080523    0.000000
      9         17           0        0.791733   -1.867784    0.000000
     10         17           0       -1.864383   -3.542244    0.000000
     11          1           0       -2.023149    2.365682    0.000000
     12          1           0        0.428662    1.038525    0.000000
 ---------------------------------------------------------------------
                    Distance matrix (angstroms):
                    1          2          3          4          5
     1  C    0.000000
     2  C    1.371321   0.000000
     3  C    2.371960   1.353572   0.000000
     4  C    2.767254   2.371962   1.371321   0.000000
     5  C    2.408471   2.755232   2.388415   1.394059   0.000000
     6  C    1.394058   2.388414   2.755229   2.408470   1.393920
     7  Cl   2.699998   3.968549   4.468452   3.989071   2.697886
     8  Cl   1.713671   2.671872   3.939834   4.480598   3.996179
     9  Cl   4.480594   3.939833   2.671871   1.713667   2.708530
    10  Cl   3.989071   4.468453   3.968546   2.699995   1.713232
    11  H    2.425689   1.441611   2.419080   3.687677   4.196843
    12  H    3.687673   2.419077   1.441607   2.425683   3.705030
                    6          7          8          9         10
     6  C    0.000000
     7  Cl   1.713235   0.000000
     8  Cl   2.708533   3.139876   0.000000
     9  Cl   3.996175   5.399786   6.193533   0.000000
    10  Cl   2.697888   3.115979   5.399791   3.139868   0.000000
    11  H    3.705035   5.122655   2.928905   5.083876   5.910059
    12  H    4.196836   5.910055   5.083875   2.928899   5.122646
                   11         12
    11  H    0.000000
    12  H    2.787960   0.000000
 Stoichiometry    C6H2Cl4
 Framework group  CS[SG(C6H2Cl4)]
 Deg. of freedom    21
 Full point group                 CS      NOp   2
 Largest Abelian subgroup         CS      NOp   2
 Largest concise Abelian subgroup C1      NOp   1
                         Standard orientation:                         
 ---------------------------------------------------------------------
 Center     Atomic      Atomic             Coordinates (Angstroms)
 Number     Number       Type             X           Y           Z
 ---------------------------------------------------------------------
      1          6           0        1.393982    0.791136    0.000000
      2          6           0        2.056033   -0.409785    0.000000
      3          6           0        1.377089   -1.580764    0.000000
      4          6           0        0.005945   -1.602825    0.000000
      5          6           0       -0.699183   -0.400246    0.000000
      6          6           0        0.000000    0.805638    0.000000
      7         17           0       -0.849462    2.293451    0.000000
      8         17           0        2.290138    2.251811    0.000000
      9         17           0       -0.816499   -3.106234    0.000000
     10         17           0       -2.412414   -0.402195    0.000000
     11          1           0        3.497628   -0.416606    0.000000
     12          1           0        2.099200   -2.828477    0.000000
 ---------------------------------------------------------------------
 Rotational constants (GHZ):           1.1639676           0.5535513           0.3751433
 Standard basis: VSTO-6G (5D, 7F)
 There are    32 symmetry adapted cartesian basis functions of A'  symmetry.
 There are    10 symmetry adapted cartesian basis functions of A"  symmetry.
 There are    32 symmetry adapted basis functions of A'  symmetry.
 There are    10 symmetry adapted basis functions of A"  symmetry.
    42 basis functions,   252 primitive gaussians,    42 cartesian basis functions
    27 alpha electrons       27 beta electrons
       nuclear repulsion energy       306.8521762194 Hartrees.
 Integral buffers will be    131072 words long.
 Regular integral format.
 Two-electron integral symmetry is turned off.
 Do NDO integrals.
 One-electron integrals computed using PRISM.
 NBasis=    42 RedAO= T EigKep=  1.00D+00  NBF=    32    10
 NBsUse=    42 1.00D-06 EigRej= -1.00D+00 NBFU=    32    10
 Initial guess from the checkpoint file:  "geometry_chks/1234ClBz.chk"
 B after Tr=    -0.000000    0.000000   -0.000000
         Rot=    0.999977    0.000000    0.000000    0.006848 Ang=   0.78 deg.
 Initial guess orbital symmetries:
       Occupied  (A') (A') (A') (A') (A') (A') (A') (A') (A') (A')
                 (A') (A') (A") (A') (A') (A") (A") (A') (A') (A")
                 (A') (A') (A") (A') (A') (A") (A")
       Virtual   (A") (A") (A') (A') (A') (A') (A') (A') (A") (A')
                 (A') (A') (A') (A') (A')
 Keep J ints in memory in canonical form, NReq=864594.
 Overlap will be assumed to be unity.
 Requested convergence on RMS density matrix=1.00D-08 within**** cycles.
 Requested convergence on MAX density matrix=1.00D-06.
 Requested convergence on             energy=1.00D-06.
 No special actions if energy rises.
 Fock symm off for IB=2 I1=    1 I=   33 J=    7 Cut=1.00D-07 Err=3.90D-03
 Fock matrix is not symmetric: symmetry in diagonalization turned off.
 SCF Done:  E(RAM1) =  0.939873744534E-01 A.U. after   13 cycles
            NFock= 12  Conv=0.21D-08     -V/T= 1.0007
 Calling FoFJK, ICntrl=      2127 FMM=F ISym2X=1 I1Cent= 0 IOpClX= 0 NMat=1 NMatS=1 NMatT=0.
 ***** Axes restored to original set *****
 -------------------------------------------------------------------
 Center     Atomic                   Forces (Hartrees/Bohr)
 Number     Number              X              Y              Z
 -------------------------------------------------------------------
      1        6          -0.032609752    0.010905522    0.000000000
      2        6          -0.004360078    0.136135778   -0.000000000
      3        6           0.116366859    0.070787080    0.000000000
      4        6           0.026958648   -0.021339882    0.000000000
      5        6          -0.000108212   -0.027253169    0.000000000
      6        6          -0.022760290   -0.014995132    0.000000000
      7       17           0.009065349    0.005757333   -0.000000000
      8       17           0.008568445   -0.004392137   -0.000000000
      9       17          -0.008360726    0.004771919   -0.000000000
     10       17          -0.000136995    0.010736943   -0.000000000
     11        1           0.002441556   -0.111947328   -0.000000000
     12        1          -0.095064803   -0.059166925   -0.000000000
 -------------------------------------------------------------------
 Cartesian Forces:  Max     0.136135778 RMS     0.042961983

 GradGradGradGradGradGradGradGradGradGradGradGradGradGradGradGradGradGrad
 Berny optimization.
 Using GEDIIS/GDIIS optimizer.
 FormGI is forming the generalized inverse of G from B-inverse, IUseBI=4.
 Internal  Forces:  Max     0.111973521 RMS     0.022930959
 Search for a local minimum.
 Step number   3 out of a maximum of   64
 All quantities printed in internal units (Hartrees-Bohrs-Radians)
 Mixed Optimization -- RFO/linear search
 Update second derivatives using D2CorX and points    2    3
 ITU=  0  1  0
 Use linear search instead of GDIIS.
 Linear search step of   0.802 exceeds DXMaxT=   0.505 but not scaled.
 Quartic linear search produced a step of  1.33684.
 Iteration  1 RMS(Cart)=  0.06574274 RMS(Int)=  0.06649654
 Iteration  2 RMS(Cart)=  0.03593500 RMS(Int)=  0.02800631
 Iteration  3 RMS(Cart)=  0.02618544 RMS(Int)=  0.00012639
 Iteration  4 RMS(Cart)=  0.00000031 RMS(Int)=  0.00012639
 ClnCor:  largest displacement from symmetrization is 5.40D-15 for atom     9.
 Variable       Old X    -DE/DX   Delta X   Delta X   Delta X     New X
                                 (Linear)    (Quad)   (Total)
    R1        2.59142   0.02406  -0.05821   0.00000  -0.05809   2.53333
    R2        2.63439   0.01836  -0.01997   0.00000  -0.02008   2.61431
    R3        3.23837  -0.00962  -0.08732   0.00000  -0.08732   3.15104
    R4        2.55788   0.02603  -0.08808   0.00000  -0.08785   2.47003
    R5        2.72425  -0.11197  -0.54551   0.00000  -0.54551   2.17874
    R6        2.59142   0.02406  -0.05821   0.00000  -0.05809   2.53333
    R7        2.72424  -0.11197  -0.54551   0.00000  -0.54551   2.17873
    R8        2.63439   0.01836  -0.01998   0.00000  -0.02009   2.61430
    R9        3.23836  -0.00962  -0.08732   0.00000  -0.08732   3.15105
   R10        2.63413   0.01906  -0.02021   0.00000  -0.02044   2.61369
   R11        3.23754  -0.01074  -0.08804   0.00000  -0.08804   3.14950
   R12        3.23754  -0.01074  -0.08804   0.00000  -0.08804   3.14950
    A1        2.08503  -0.00172  -0.00835   0.00000  -0.00834   2.07669
    A2        2.08746   0.00012  -0.00618   0.00000  -0.00618   2.08128
    A3        2.11070   0.00160   0.01453   0.00000   0.01452   2.12522
    A4        2.11232  -0.00064   0.01605   0.00000   0.01639   2.12871
    A5        2.07936  -0.00010  -0.01344   0.00000  -0.01361   2.06575
    A6        2.09151   0.00074  -0.00261   0.00000  -0.00278   2.08873
    A7        2.11233  -0.00064   0.01605   0.00000   0.01639   2.12871
    A8        2.09151   0.00074  -0.00261   0.00000  -0.00278   2.08873
    A9        2.07935  -0.00010  -0.01344   0.00000  -0.01361   2.06575
   A10        2.08503  -0.00172  -0.00834   0.00000  -0.00834   2.07669
   A11        2.08746   0.00012  -0.00618   0.00000  -0.00619   2.08128
   A12        2.11069   0.00160   0.01453   0.00000   0.01452   2.12522
   A13        2.08583   0.00236  -0.00770   0.00000  -0.00805   2.07778
   A14        2.09998  -0.00149   0.00502   0.00000   0.00519   2.10517
   A15        2.09737  -0.00087   0.00268   0.00000   0.00286   2.10023
   A16        2.08583   0.00236  -0.00771   0.00000  -0.00805   2.07778
   A17        2.09998  -0.00149   0.00502   0.00000   0.00519   2.10517
   A18        2.09737  -0.00087   0.00269   0.00000   0.00286   2.10023
    D1        0.00000  -0.00000   0.00000   0.00000   0.00000   0.00000
    D2        3.14159  -0.00000   0.00000   0.00000   0.00000   3.14159
    D3        3.14159   0.00000   0.00000   0.00000   0.00000   3.14159
    D4        0.00000   0.00000   0.00000   0.00000   0.00000   0.00000
    D5        0.00000   0.00000   0.00000   0.00000   0.00000   0.00000
    D6        3.14159   0.00000   0.00000   0.00000   0.00000   3.14159
    D7        3.14159  -0.00000   0.00000   0.00000   0.00000   3.14159
    D8        0.00000  -0.00000   0.00000   0.00000   0.00000   0.00000
    D9        0.00000   0.00000   0.00000   0.00000   0.00000   0.00000
   D10        3.14159  -0.00000   0.00000   0.00000   0.00000   3.14159
   D11        3.14159   0.00000   0.00000   0.00000   0.00000   3.14159
   D12        0.00000   0.00000   0.00000   0.00000   0.00000   0.00000
   D13        0.00000   0.00000   0.00000   0.00000   0.00000   0.00000
   D14        3.14159  -0.00000   0.00000   0.00000   0.00000   3.14159
   D15        3.14159   0.00000   0.00000   0.00000   0.00000   3.14159
   D16        0.00000   0.00000   0.00000   0.00000   0.00000   0.00000
   D17        0.00000  -0.00000   0.00000   0.00000   0.00000   0.00000
   D18        3.14159  -0.00000   0.00000   0.00000   0.00000   3.14159
   D19        3.14159   0.00000   0.00000   0.00000   0.00000   3.14159
   D20        0.00000  -0.00000   0.00000   0.00000   0.00000   0.00000
   D21        0.00000   0.00000   0.00000   0.00000   0.00000   0.00000
   D22        3.14159  -0.00000   0.00000   0.00000   0.00000   3.14159
   D23        3.14159   0.00000   0.00000   0.00000   0.00000   3.14159
   D24        0.00000  -0.00000   0.00000   0.00000   0.00000   0.00000
         Item               Value     Threshold  Converged?
 Maximum Force            0.111974     0.000450     NO 
 RMS     Force            0.022931     0.000300     NO 
 Maximum Displacement     0.563126     0.001800     NO 
 RMS     Displacement     0.122071     0.001200     NO 
 Predicted change in Energy=-1.001738D-01
 GradGradGradGradGradGradGradGradGradGradGradGradGradGradGradGradGradGrad

                          Input orientation:                          
 ---------------------------------------------------------------------
 Center     Atomic      Atomic             Coordinates (Angstroms)
 Number     Number       Type             X           Y           Z
 ---------------------------------------------------------------------
      1          6           0       -3.131972    0.252703    0.000000
      2          6           0       -1.966427    0.915025    0.000000
      3          6           0       -0.816942    0.292813    0.000000
      4          6           0       -0.734173   -1.045211    0.000000
      5          6           0       -1.900615   -1.789044    0.000000
      6          6           0       -3.116957   -1.130646    0.000000
      7         17           0       -4.541953   -1.994989    0.000000
      8         17           0       -4.559099    1.115104    0.000000
      9         17           0        0.768230   -1.768547    0.000000
     10         17           0       -1.845123   -3.454764    0.000000
     11          1           0       -1.991552    2.067689    0.000000
     12          1           0        0.161885    0.902038    0.000000
 ---------------------------------------------------------------------
                    Distance matrix (angstroms):
                    1          2          3          4          5
     1  C    0.000000
     2  C    1.340583   0.000000
     3  C    2.315377   1.307082   0.000000
     4  C    2.726540   2.315378   1.340581   0.000000
     5  C    2.384318   2.704869   2.347014   1.383429   0.000000
     6  C    1.383431   2.347017   2.704867   2.384315   1.383104
     7  Cl   2.653332   3.886067   4.371469   3.924445   2.649354
     8  Cl   1.667461   2.600380   3.831436   4.392837   3.937208
     9  Cl   4.392838   3.831436   2.600379   1.667462   2.668924
    10  Cl   3.924448   4.371471   3.886063   2.653329   1.666644
    11  H    2.143532   1.152938   2.128355   3.357253   3.857805
    12  H    3.357250   2.128352   1.152934   2.143525   3.390550
                    6          7          8          9         10
     6  C    0.000000
     7  Cl   1.666644   0.000000
     8  Cl   2.668926   3.110140   0.000000
     9  Cl   3.937207   5.315009   6.057711   0.000000
    10  Cl   2.649355   3.066567   5.315012   3.110135   0.000000
    11  H    3.390558   4.796863   2.738560   4.725791   5.524394
    12  H    3.857799   5.524388   4.725789   2.738553   4.796853
                   11         12
    11  H    0.000000
    12  H    2.448680   0.000000
 Stoichiometry    C6H2Cl4
 Framework group  CS[SG(C6H2Cl4)]
 Deg. of freedom    21
 Full point group                 CS      NOp   2
 Largest Abelian subgroup         CS      NOp   2
 Largest concise Abelian subgroup C1      NOp   1
                         Standard orientation:                         
 ---------------------------------------------------------------------
 Center     Atomic      Atomic             Coordinates (Angstroms)
 Number     Number       Type             X           Y           Z
 ---------------------------------------------------------------------
      1          6           0       -0.027008    1.576283   -0.000000
      2          6           0        1.313431    1.556694   -0.000000
      3          6           0        1.989145    0.437822   -0.000000
      4          6           0        1.382516   -0.757653    0.000000
      5          6           0        0.000000   -0.807881    0.000000
      6          6           0       -0.715017    0.376064   -0.000000
      7         17           0       -2.381500    0.352952   -0.000000
      8         17           0       -0.820378    3.042909   -0.000000
      9         17           0        2.311247   -2.142531    0.000000
     10         17           0       -0.796190   -2.272047    0.000000
     11          1           0        1.875833    2.563158   -0.000000
     12          1           0        3.141709    0.467068   -0.000000
 ---------------------------------------------------------------------
 Rotational constants (GHZ):           1.2045449           0.5773246           0.3902718
 Standard basis: VSTO-6G (5D, 7F)
 There are    32 symmetry adapted cartesian basis functions of A'  symmetry.
 There are    10 symmetry adapted cartesian basis functions of A"  symmetry.
 There are    32 symmetry adapted basis functions of A'  symmetry.
 There are    10 symmetry adapted basis functions of A"  symmetry.
    42 basis functions,   252 primitive gaussians,    42 cartesian basis functions
    27 alpha electrons       27 beta electrons
       nuclear repulsion energy       311.8198314067 Hartrees.
 Integral buffers will be    131072 words long.
 Regular integral format.
 Two-electron integral symmetry is turned off.
 Do NDO integrals.
 One-electron integrals computed using PRISM.
 NBasis=    42 RedAO= T EigKep=  1.00D+00  NBF=    32    10
 NBsUse=    42 1.00D-06 EigRej= -1.00D+00 NBFU=    32    10
 Initial guess from the checkpoint file:  "geometry_chks/1234ClBz.chk"
 B after Tr=     0.000000   -0.000000   -0.000000
         Rot=    0.860589    0.000000   -0.000000   -0.509300 Ang= -61.23 deg.
 Initial guess orbital symmetries:
       Occupied  (A') (A') (A') (A') (A') (A') (A') (A') (A') (A')
                 (A') (A') (A") (A') (A') (A") (A') (A") (A') (A")
                 (A') (A') (A") (A') (A') (A") (A")
       Virtual   (A") (A") (A') (A') (A') (A') (A') (A') (A") (A')
                 (A') (A') (A') (A') (A')
 Keep J ints in memory in canonical form, NReq=864594.
 Overlap will be assumed to be unity.
 Requested convergence on RMS density matrix=1.00D-08 within**** cycles.
 Requested convergence on MAX density matrix=1.00D-06.
 Requested convergence on             energy=1.00D-06.
 No special actions if energy rises.
 Fock symm off for IB=2 I1=    1 I=   33 J=    6 Cut=1.00D-07 Err=2.89D-03
 Fock matrix is not symmetric: symmetry in diagonalization turned off.
 SCF Done:  E(RAM1) =  0.262086209980E-01 A.U. after   11 cycles
            NFock= 10  Conv=0.92D-08     -V/T= 1.0002
 Calling FoFJK, ICntrl=      2127 FMM=F ISym2X=1 I1Cent= 0 IOpClX= 0 NMat=1 NMatS=1 NMatT=0.
 ***** Axes restored to original set *****
 -------------------------------------------------------------------
 Center     Atomic                   Forces (Hartrees/Bohr)
 Number     Number              X              Y              Z
 -------------------------------------------------------------------
      1        6          -0.061214449   -0.012515059    0.000000000
      2        6          -0.035219771    0.135198970   -0.000000000
      3        6           0.132454630    0.044438927    0.000000000
      4        6           0.022995774   -0.058097190    0.000000000
      5        6          -0.000464546   -0.026266510    0.000000000
      6        6          -0.021738474   -0.014748430   -0.000000000
      7       17          -0.018114542   -0.010075687   -0.000000000
      8       17          -0.021292497    0.010099893   -0.000000000
      9       17           0.020098793   -0.012304803   -0.000000000
     10       17           0.001468514   -0.020676422   -0.000000000
     11        1           0.001423177   -0.023433602   -0.000000000
     12        1          -0.020396611   -0.011620087   -0.000000000
 -------------------------------------------------------------------
 Cartesian Forces:  Max     0.135198970 RMS     0.037748683

 GradGradGradGradGradGradGradGradGradGradGradGradGradGradGradGradGradGrad
 Berny optimization.
 Using GEDIIS/GDIIS optimizer.
 FormGI is forming the generalized inverse of G from B-inverse, IUseBI=4.
 Internal  Forces:  Max     0.124854504 RMS     0.028711894
 Search for a local minimum.
 Step number   4 out of a maximum of   64
 All quantities printed in internal units (Hartrees-Bohrs-Radians)
 Mixed Optimization -- RFO/linear search
 Update second derivatives using D2CorX and points    3    4
 ITU=  0  0  1  0
 Use linear search instead of GDIIS.
     Eigenvalues ---    0.02011   0.02011   0.02011   0.02011   0.02011
     Eigenvalues ---    0.02011   0.02011   0.02011   0.02011   0.06524
     Eigenvalues ---    0.11965   0.16000   0.16002   0.22452   0.24462
     Eigenvalues ---    0.24997   0.25000   0.25000   0.25000   0.25012
     Eigenvalues ---    0.27414   0.29033   0.29034   0.29039   0.40965
     Eigenvalues ---    0.41239   0.44654   0.44656   0.44657   0.58908
 RFO step:  Lambda=-8.71790114D-02 EMin= 2.01065751D-02
 Quartic linear search produced a step of -0.03986.
 Iteration  1 RMS(Cart)=  0.06689974 RMS(Int)=  0.00446383
 Iteration  2 RMS(Cart)=  0.00325136 RMS(Int)=  0.00035771
 Iteration  3 RMS(Cart)=  0.00000361 RMS(Int)=  0.00035770
 Iteration  4 RMS(Cart)=  0.00000000 RMS(Int)=  0.00035770
 ClnCor:  largest displacement from symmetrization is 1.61D-09 for atom    11.
 Variable       Old X    -DE/DX   Delta X   Delta X   Delta X     New X
                                 (Linear)    (Quad)   (Total)
    R1        2.53333   0.09194   0.00232   0.15866   0.16130   2.69463
    R2        2.61431   0.04998   0.00080   0.08315   0.08363   2.69794
    R3        3.15104   0.02345   0.00348   0.05507   0.05855   3.20960
    R4        2.47003   0.12485   0.00350   0.21557   0.21970   2.68973
    R5        2.17874  -0.02346   0.02174  -0.23959  -0.21785   1.96089
    R6        2.53333   0.09194   0.00232   0.15867   0.16130   2.69463
    R7        2.17873  -0.02346   0.02174  -0.23958  -0.21784   1.96089
    R8        2.61430   0.04999   0.00080   0.08316   0.08364   2.69794
    R9        3.15105   0.02345   0.00348   0.05507   0.05855   3.20960
   R10        2.61369   0.05271   0.00081   0.08523   0.08542   2.69910
   R11        3.14950   0.02071   0.00351   0.04865   0.05216   3.20166
   R12        3.14950   0.02071   0.00351   0.04865   0.05216   3.20166
    A1        2.07669   0.00106   0.00033   0.00338   0.00371   2.08040
    A2        2.08128   0.00320   0.00025   0.00798   0.00823   2.08951
    A3        2.12522  -0.00426  -0.00058  -0.01136  -0.01194   2.11328
    A4        2.12871  -0.01418  -0.00065  -0.02627  -0.02595   2.10276
    A5        2.06575   0.00809   0.00054   0.01654   0.01659   2.08234
    A6        2.08873   0.00610   0.00011   0.00973   0.00936   2.09808
    A7        2.12871  -0.01419  -0.00065  -0.02628  -0.02595   2.10276
    A8        2.08873   0.00610   0.00011   0.00973   0.00936   2.09808
    A9        2.06575   0.00809   0.00054   0.01654   0.01660   2.08234
   A10        2.07669   0.00106   0.00033   0.00338   0.00371   2.08040
   A11        2.08128   0.00320   0.00025   0.00798   0.00823   2.08951
   A12        2.12522  -0.00426  -0.00058  -0.01136  -0.01194   2.11328
   A13        2.07778   0.01312   0.00032   0.02290   0.02224   2.10002
   A14        2.10517  -0.00779  -0.00021  -0.01471  -0.01443   2.09074
   A15        2.10023  -0.00533  -0.00011  -0.00818  -0.00781   2.09242
   A16        2.07778   0.01312   0.00032   0.02290   0.02224   2.10003
   A17        2.10517  -0.00779  -0.00021  -0.01472  -0.01443   2.09074
   A18        2.10023  -0.00533  -0.00011  -0.00818  -0.00781   2.09242
    D1       -0.00000  -0.00000   0.00000  -0.00000   0.00000   0.00000
    D2        3.14159  -0.00000   0.00000  -0.00000   0.00000   3.14159
    D3        3.14159   0.00000   0.00000   0.00000   0.00000   3.14159
    D4       -0.00000   0.00000   0.00000   0.00000   0.00000   0.00000
    D5       -0.00000   0.00000   0.00000   0.00000   0.00000   0.00000
    D6        3.14159   0.00000   0.00000   0.00000   0.00000   3.14159
    D7        3.14159  -0.00000   0.00000  -0.00000   0.00000   3.14159
    D8        0.00000  -0.00000   0.00000  -0.00000   0.00000   0.00000
    D9        0.00000   0.00000   0.00000   0.00000  -0.00000   0.00000
   D10        3.14159  -0.00000   0.00000  -0.00000   0.00000   3.14159
   D11        3.14159   0.00000   0.00000   0.00000   0.00000   3.14159
   D12        0.00000  -0.00000   0.00000   0.00000   0.00000   0.00000
   D13       -0.00000   0.00000   0.00000   0.00000   0.00000   0.00000
   D14        3.14159  -0.00000   0.00000  -0.00000   0.00000   3.14159
   D15        3.14159   0.00000   0.00000   0.00000   0.00000   3.14159
   D16        0.00000   0.00000   0.00000   0.00000  -0.00000   0.00000
   D17       -0.00000  -0.00000   0.00000  -0.00000   0.00000   0.00000
   D18        3.14159  -0.00000   0.00000  -0.00000   0.00000   3.14159
   D19        3.14159   0.00000   0.00000   0.00000   0.00000   3.14159
   D20       -0.00000  -0.00000   0.00000  -0.00000   0.00000   0.00000
   D21        0.00000  -0.00000   0.00000  -0.00000   0.00000   0.00000
   D22        3.14159  -0.00000   0.00000  -0.00000   0.00000   3.14159
   D23        3.14159   0.00000   0.00000   0.00000   0.00000   3.14159
   D24       -0.00000   0.00000   0.00000   0.00000   0.00000   0.00000
         Item               Value     Threshold  Converged?
 Maximum Force            0.124855     0.000450     NO 
 RMS     Force            0.028712     0.000300     NO 
 Maximum Displacement     0.219677     0.001800     NO 
 RMS     Displacement     0.068322     0.001200     NO 
 Predicted change in Energy=-5.364266D-02
 GradGradGradGradGradGradGradGradGradGradGradGradGradGradGradGradGradGrad

                          Input orientation:                          
 ---------------------------------------------------------------------
 Center     Atomic      Atomic             Coordinates (Angstroms)
 Number     Number       Type             X           Y           Z
 ---------------------------------------------------------------------
      1          6           0       -3.190659    0.294848    0.000000
      2          6           0       -1.969604    1.031273   -0.000000
      3          6           0       -0.717873    0.353719   -0.000000
      4          6           0       -0.666793   -1.071304   -0.000000
      5          6           0       -1.887328   -1.811973    0.000000
      6          6           0       -3.143420   -1.132057    0.000000
      7         17           0       -4.585112   -2.021997    0.000000
      8         17           0       -4.673476    1.123084    0.000000
      9         17           0        0.837455   -1.859948   -0.000000
     10         17           0       -1.844144   -3.505669    0.000000
     11          1           0       -2.001923    2.068426   -0.000000
     12          1           0        0.168179    0.893768   -0.000000
 ---------------------------------------------------------------------
                    Distance matrix (angstroms):
                    1          2          3          4          5
     1  C    0.000000
     2  C    1.425938   0.000000
     3  C    2.473487   1.423344   0.000000
     4  C    2.869891   2.473488   1.425939   0.000000
     5  C    2.477371   2.844436   2.461270   1.427689   0.000000
     6  C    1.427687   2.461268   2.844435   2.477372   1.428304
     7  Cl   2.704121   4.020366   4.538675   4.032002   2.705947
     8  Cl   1.698446   2.705431   4.029730   4.568243   4.046873
     9  Cl   4.568244   4.029731   2.705432   1.698447   2.725205
    10  Cl   4.032001   4.538676   4.020368   2.704123   1.694246
    11  H    2.135105   1.037657   2.142197   3.411815   3.882091
    12  H    3.411818   2.142200   1.037661   2.135108   3.397962
                    6          7          8          9         10
     6  C    0.000000
     7  Cl   1.694246   0.000000
     8  Cl   2.725203   3.146322   0.000000
     9  Cl   4.046874   5.424988   6.266485   0.000000
    10  Cl   2.705947   3.116759   5.424986   3.146326   0.000000
    11  H    3.397956   4.837812   2.833879   4.847081   5.576327
    12  H    3.882094   5.576331   4.847083   2.833881   4.837818
                   11         12
    11  H    0.000000
    12  H    2.467624   0.000000
 Stoichiometry    C6H2Cl4
 Framework group  CS[SG(C6H2Cl4)]
 Deg. of freedom    21
 Full point group                 CS      NOp   2
 Largest Abelian subgroup         CS      NOp   2
 Largest concise Abelian subgroup C1      NOp   1
                         Standard orientation:                         
 ---------------------------------------------------------------------
 Center     Atomic      Atomic             Coordinates (Angstroms)
 Number     Number       Type             X           Y           Z
 ---------------------------------------------------------------------
      1          6           0        1.427669    0.832135    0.000000
      2          6           0        2.129587   -0.409078    0.000000
      3          6           0        1.417223   -1.641331    0.000000
      4          6           0       -0.008672   -1.652457   -0.000000
      5          6           0       -0.714848   -0.411646   -0.000000
      6          6           0        0.000000    0.824899    0.000000
      7         17           0       -0.849191    2.290964   -0.000000
      8         17           0        2.297131    2.291160    0.000000
      9         17           0       -0.839159   -3.134015   -0.000000
     10         17           0       -2.409088   -0.407352   -0.000000
     11          1           0        3.167239   -0.405834    0.000000
     12          1           0        1.932230   -2.542168    0.000000
 ---------------------------------------------------------------------
 Rotational constants (GHZ):           1.1608520           0.5414841           0.3692472
 Standard basis: VSTO-6G (5D, 7F)
 There are    32 symmetry adapted cartesian basis functions of A'  symmetry.
 There are    10 symmetry adapted cartesian basis functions of A"  symmetry.
 There are    32 symmetry adapted basis functions of A'  symmetry.
 There are    10 symmetry adapted basis functions of A"  symmetry.
    42 basis functions,   252 primitive gaussians,    42 cartesian basis functions
    27 alpha electrons       27 beta electrons
       nuclear repulsion energy       306.2411927717 Hartrees.
 Integral buffers will be    131072 words long.
 Regular integral format.
 Two-electron integral symmetry is turned off.
 Do NDO integrals.
 One-electron integrals computed using PRISM.
 NBasis=    42 RedAO= T EigKep=  1.00D+00  NBF=    32    10
 NBsUse=    42 1.00D-06 EigRej= -1.00D+00 NBFU=    32    10
 Initial guess from the checkpoint file:  "geometry_chks/1234ClBz.chk"
 B after Tr=    -0.000000    0.000000   -0.000000
         Rot=    0.860915   -0.000000    0.000000    0.508749 Ang=  61.16 deg.
 Initial guess orbital symmetries:
       Occupied  (A') (A') (A') (A') (A') (A') (A') (A') (A') (A')
                 (A') (A') (A") (A') (A') (A") (A') (A") (A') (A")
                 (A') (A') (A') (A") (A') (A") (A")
       Virtual   (A") (A") (A') (A') (A') (A') (A") (A') (A') (A')
                 (A') (A') (A') (A') (A')
 Keep J ints in memory in canonical form, NReq=864594.
 Overlap will be assumed to be unity.
 Requested convergence on RMS density matrix=1.00D-08 within**** cycles.
 Requested convergence on MAX density matrix=1.00D-06.
 Requested convergence on             energy=1.00D-06.
 No special actions if energy rises.
 Fock symm off for IB=2 I1=    1 I=   33 J=   12 Cut=1.00D-07 Err=3.30D-03
 Fock matrix is not symmetric: symmetry in diagonalization turned off.
 SCF Done:  E(RAM1) =  0.100126233257E-01 A.U. after   13 cycles
            NFock= 12  Conv=0.49D-08     -V/T= 1.0001
 Calling FoFJK, ICntrl=      2127 FMM=F ISym2X=1 I1Cent= 0 IOpClX= 0 NMat=1 NMatS=1 NMatT=0.
 ***** Axes restored to original set *****
 -------------------------------------------------------------------
 Center     Atomic                   Forces (Hartrees/Bohr)
 Number     Number              X              Y              Z
 -------------------------------------------------------------------
      1        6           0.030439677   -0.015896197    0.000000000
      2        6           0.003001316   -0.079687913    0.000000000
      3        6          -0.068358445   -0.041059704    0.000000000
      4        6          -0.029954639    0.016794742    0.000000000
      5        6           0.001173968    0.025343508    0.000000000
      6        6           0.020577440    0.014838931   -0.000000000
      7       17           0.003278731    0.001869026   -0.000000000
      8       17           0.007097431   -0.003346845   -0.000000000
      9       17          -0.006683418    0.004112524   -0.000000000
     10       17          -0.000227751    0.003767353   -0.000000000
     11        1          -0.000038058    0.047387261   -0.000000000
     12        1           0.039693750    0.025877316   -0.000000000
 -------------------------------------------------------------------
 Cartesian Forces:  Max     0.079687913 RMS     0.024155905

 GradGradGradGradGradGradGradGradGradGradGradGradGradGradGradGradGradGrad
 Berny optimization.
 Using GEDIIS/GDIIS optimizer.
 FormGI is forming the generalized inverse of G from B-inverse, IUseBI=4.
 Internal  Forces:  Max     0.047365454 RMS     0.014894369
 Search for a local minimum.
 Step number   5 out of a maximum of   64
 All quantities printed in internal units (Hartrees-Bohrs-Radians)
 Mixed Optimization -- RFO/linear search
 Update second derivatives using D2CorX and points    4    5
 DE= -1.62D-02 DEPred=-5.36D-02 R= 3.02D-01
 Trust test= 3.02D-01 RLast= 4.83D-01 DXMaxT set to 5.05D-01
 ITU=  0  0  0  1  0
 Use linear search instead of GDIIS.
     Eigenvalues ---    0.02011   0.02011   0.02011   0.02011   0.02011
     Eigenvalues ---    0.02011   0.02011   0.02011   0.02011   0.06524
     Eigenvalues ---    0.15991   0.16000   0.19567   0.22483   0.24438
     Eigenvalues ---    0.24998   0.25000   0.25000   0.25000   0.25011
     Eigenvalues ---    0.27576   0.29033   0.29034   0.29048   0.40809
     Eigenvalues ---    0.41264   0.44636   0.44656   0.44667   0.74587
 RFO step:  Lambda=-8.07056829D-03 EMin= 2.01065786D-02
 Quartic linear search produced a step of -0.38940.
 Iteration  1 RMS(Cart)=  0.03509191 RMS(Int)=  0.00059571
 Iteration  2 RMS(Cart)=  0.00051180 RMS(Int)=  0.00013523
 Iteration  3 RMS(Cart)=  0.00000010 RMS(Int)=  0.00013523
 ClnCor:  largest displacement from symmetrization is 2.54D-10 for atom    10.
 Variable       Old X    -DE/DX   Delta X   Delta X   Delta X     New X
                                 (Linear)    (Quad)   (Total)
    R1        2.69463  -0.03419  -0.06281   0.03003  -0.03290   2.66173
    R2        2.69794  -0.03290  -0.03257  -0.00434  -0.03679   2.66115
    R3        3.20960  -0.00783  -0.02280   0.01363  -0.00917   3.20042
    R4        2.68973  -0.03953  -0.08555   0.04921  -0.03658   2.65315
    R5        1.96089   0.04737   0.08483   0.11818   0.20301   2.16390
    R6        2.69463  -0.03419  -0.06281   0.03003  -0.03290   2.66173
    R7        1.96089   0.04736   0.08482   0.11816   0.20298   2.16388
    R8        2.69794  -0.03290  -0.03257  -0.00434  -0.03679   2.66115
    R9        3.20960  -0.00783  -0.02280   0.01363  -0.00917   3.20042
   R10        2.69910  -0.03365  -0.03326  -0.00445  -0.03747   2.66163
   R11        3.20166  -0.00377  -0.02031   0.01918  -0.00113   3.20053
   R12        3.20166  -0.00377  -0.02031   0.01918  -0.00113   3.20053
    A1        2.08040   0.00535  -0.00145   0.01431   0.01287   2.09327
    A2        2.08951  -0.00354  -0.00320  -0.00444  -0.00765   2.08186
    A3        2.11328  -0.00181   0.00465  -0.00987  -0.00522   2.10806
    A4        2.10276  -0.00189   0.01010  -0.01668  -0.00694   2.09582
    A5        2.08234   0.00235  -0.00646   0.01519   0.00891   2.09125
    A6        2.09808  -0.00047  -0.00364   0.00149  -0.00197   2.09611
    A7        2.10276  -0.00189   0.01011  -0.01668  -0.00694   2.09582
    A8        2.09808  -0.00047  -0.00364   0.00149  -0.00197   2.09612
    A9        2.08234   0.00235  -0.00646   0.01519   0.00891   2.09125
   A10        2.08040   0.00535  -0.00144   0.01431   0.01287   2.09327
   A11        2.08951  -0.00354  -0.00320  -0.00444  -0.00765   2.08186
   A12        2.11328  -0.00181   0.00465  -0.00987  -0.00522   2.10806
   A13        2.10002  -0.00346  -0.00866   0.00237  -0.00592   2.09410
   A14        2.09074   0.00194   0.00562  -0.00226   0.00318   2.09392
   A15        2.09242   0.00152   0.00304  -0.00011   0.00274   2.09517
   A16        2.10003  -0.00346  -0.00866   0.00237  -0.00592   2.09410
   A17        2.09074   0.00194   0.00562  -0.00226   0.00318   2.09392
   A18        2.09242   0.00152   0.00304  -0.00011   0.00274   2.09516
    D1       -0.00000  -0.00000   0.00000  -0.00000   0.00000   0.00000
    D2        3.14159  -0.00000   0.00000  -0.00000   0.00000   3.14159
    D3        3.14159   0.00000   0.00000   0.00000   0.00000   3.14159
    D4        0.00000  -0.00000   0.00000  -0.00000  -0.00000   0.00000
    D5        0.00000   0.00000   0.00000   0.00000  -0.00000   0.00000
    D6        3.14159   0.00000   0.00000   0.00000   0.00000   3.14159
    D7        3.14159  -0.00000   0.00000  -0.00000   0.00000   3.14159
    D8       -0.00000  -0.00000   0.00000  -0.00000   0.00000   0.00000
    D9       -0.00000  -0.00000   0.00000   0.00000   0.00000   0.00000
   D10        3.14159  -0.00000   0.00000  -0.00000   0.00000   3.14159
   D11        3.14159   0.00000   0.00000   0.00000   0.00000   3.14159
   D12        0.00000   0.00000   0.00000   0.00000   0.00000   0.00000
   D13        0.00000   0.00000   0.00000   0.00000  -0.00000   0.00000
   D14        3.14159  -0.00000   0.00000  -0.00000   0.00000   3.14159
   D15        3.14159   0.00000   0.00000   0.00000   0.00000   3.14159
   D16       -0.00000   0.00000   0.00000   0.00000   0.00000   0.00000
   D17        0.00000  -0.00000   0.00000  -0.00000   0.00000   0.00000
   D18        3.14159  -0.00000   0.00000  -0.00000   0.00000   3.14159
   D19        3.14159   0.00000   0.00000   0.00000   0.00000   3.14159
   D20       -0.00000  -0.00000   0.00000  -0.00000   0.00000   0.00000
   D21       -0.00000   0.00000   0.00000   0.00000   0.00000   0.00000
   D22        3.14159  -0.00000   0.00000  -0.00000   0.00000   3.14159
   D23        3.14159   0.00000   0.00000   0.00000   0.00000   3.14159
   D24        0.00000   0.00000   0.00000   0.00000   0.00000   0.00000
[...]
 TightC=F SS=  1.41D+00  RLast= 5.15D-03 DXNew= 1.4270D+00 1.5449D-02
 Trust test= 9.48D-01 RLast= 5.15D-03 DXMaxT set to 8.49D-01
 ITU=  1  1  1  1  0  0  0  1  0
     Eigenvalues ---    0.02011   0.02011   0.02011   0.02011   0.02011
     Eigenvalues ---    0.02011   0.02011   0.02011   0.02011   0.06572
     Eigenvalues ---    0.15838   0.16000   0.21008   0.22483   0.24898
     Eigenvalues ---    0.25000   0.25000   0.25000   0.25201   0.27862
     Eigenvalues ---    0.28087   0.29033   0.29034   0.34273   0.41096
     Eigenvalues ---    0.43066   0.44602   0.44657   0.60868   0.79824
 En-DIIS/RFO-DIIS/Sim-DIIS IScMMF=       -3 using points:     9    8    7
 RFO step:  Lambda=-6.47754845D-07.
 DidBck=F Rises=F RFO-DIIS coefs:    0.84827    0.09210    0.05963
 Iteration  1 RMS(Cart)=  0.00028654 RMS(Int)=  0.00000003
 Iteration  2 RMS(Cart)=  0.00000002 RMS(Int)=  0.00000002
 ClnCor:  largest displacement from symmetrization is 1.26D-12 for atom     9.
 Variable       Old X    -DE/DX   Delta X   Delta X   Delta X     New X
                                 (Linear)    (Quad)   (Total)
    R1        2.64310   0.00012   0.00011   0.00003   0.00014   2.64325
    R2        2.65282   0.00003   0.00006  -0.00017  -0.00010   2.65272
    R3        3.20247   0.00005  -0.00010   0.00025   0.00014   3.20261
    R4        2.62662   0.00005   0.00016  -0.00011   0.00005   2.62667
    R5        2.08138   0.00023   0.00029   0.00118   0.00147   2.08285
    R6        2.64311   0.00010   0.00011   0.00000   0.00011   2.64322
    R7        2.08188   0.00005   0.00020  -0.00100  -0.00080   2.08107
    R8        2.65282   0.00003   0.00006  -0.00017  -0.00011   2.65271
    R9        3.20247   0.00005  -0.00010   0.00024   0.00014   3.20261
   R10        2.65783   0.00018  -0.00018   0.00041   0.00023   2.65805
   R11        3.19795   0.00013   0.00037  -0.00008   0.00029   3.19824
   R12        3.19795   0.00013   0.00037  -0.00008   0.00029   3.19824
    A1        2.09813   0.00009  -0.00011   0.00047   0.00036   2.09848
    A2        2.07461  -0.00004   0.00011  -0.00027  -0.00016   2.07445
    A3        2.11045  -0.00004  -0.00000  -0.00019  -0.00020   2.11025
    A4        2.09699  -0.00005   0.00001  -0.00022  -0.00021   2.09678
    A5        2.09388   0.00002  -0.00003   0.00012   0.00010   2.09398
    A6        2.09232   0.00003   0.00001   0.00010   0.00011   2.09243
    A7        2.09698  -0.00003   0.00001  -0.00017  -0.00016   2.09682
    A8        2.09232   0.00002   0.00001   0.00008   0.00009   2.09241
    A9        2.09389   0.00001  -0.00003   0.00009   0.00007   2.09395
   A10        2.09813   0.00009  -0.00011   0.00046   0.00034   2.09847
   A11        2.07461  -0.00004   0.00011  -0.00027  -0.00016   2.07445
   A12        2.11045  -0.00004  -0.00000  -0.00019  -0.00019   2.11026
   A13        2.08808  -0.00005   0.00010  -0.00027  -0.00017   2.08791
   A14        2.09813   0.00005  -0.00011   0.00028   0.00018   2.09831
   A15        2.09698  -0.00000   0.00001  -0.00001  -0.00001   2.09697
   A16        2.08808  -0.00005   0.00010  -0.00026  -0.00017   2.08791
   A17        2.09813   0.00005  -0.00011   0.00028   0.00018   2.09830
   A18        2.09698  -0.00000   0.00001  -0.00002  -0.00001   2.09697
    D1       -0.00000  -0.00000   0.00000  -0.00000   0.00000   0.00000
    D2        3.14159  -0.00000   0.00000  -0.00000   0.00000   3.14159
    D3        3.14159   0.00000   0.00000   0.00000   0.00000   3.14159
    D4        0.00000   0.00000   0.00000   0.00000  -0.00000   0.00000
    D5        0.00000   0.00000   0.00000   0.00000  -0.00000   0.00000
    D6        3.14159   0.00000   0.00000   0.00000   0.00000   3.14159
    D7        3.14159  -0.00000   0.00000  -0.00000   0.00000   3.14159
    D8        0.00000  -0.00000   0.00000  -0.00000   0.00000   0.00000
    D9        0.00000  -0.00000   0.00000  -0.00000  -0.00000   0.00000
   D10        3.14159  -0.00000   0.00000  -0.00000   0.00000   3.14159
   D11        3.14159   0.00000   0.00000   0.00000   0.00000   3.14159
   D12       -0.00000  -0.00000   0.00000  -0.00000   0.00000   0.00000
   D13       -0.00000   0.00000   0.00000   0.00000   0.00000   0.00000
   D14        3.14159  -0.00000   0.00000  -0.00000   0.00000   3.14159
   D15        3.14159   0.00000   0.00000   0.00000   0.00000   3.14159
   D16       -0.00000   0.00000   0.00000   0.00000   0.00000   0.00000
   D17        0.00000   0.00000   0.00000   0.00000  -0.00000   0.00000
   D18        3.14159  -0.00000   0.00000  -0.00000   0.00000   3.14159
   D19        3.14159   0.00000   0.00000   0.00000   0.00000   3.14159
   D20        0.00000  -0.00000   0.00000  -0.00000  -0.00000   0.00000
   D21       -0.00000  -0.00000   0.00000  -0.00000   0.00000   0.00000
   D22        3.14159  -0.00000   0.00000  -0.00000   0.00000   3.14159
   D23        3.14159   0.00000   0.00000   0.00000   0.00000   3.14159
   D24       -0.00000   0.00000   0.00000   0.00000   0.00000   0.00000
         Item               Value     Threshold  Converged?
 Maximum Force            0.000229     0.000450     YES
 RMS     Force            0.000059     0.000300     YES
 Maximum Displacement     0.001721     0.001800     YES
 RMS     Displacement     0.000287     0.001200     YES
 Predicted change in Energy=-3.216724D-07
 Optimization completed.
    -- Stationary point found.
                           ----------------------------
                           !   Optimized Parameters   !
                           ! (Angstroms and Degrees)  !
 --------------------------                            --------------------------
 ! Name  Definition              Value          Derivative Info.                !
 --------------------------------------------------------------------------------
 ! R1    R(1,2)                  1.3987         -DE/DX =    0.0001              !
 ! R2    R(1,6)                  1.4038         -DE/DX =    0.0                 !
 ! R3    R(1,8)                  1.6947         -DE/DX =    0.0                 !
 ! R4    R(2,3)                  1.3899         -DE/DX =    0.0001              !
 ! R5    R(2,11)                 1.1014         -DE/DX =    0.0002              !
 ! R6    R(3,4)                  1.3987         -DE/DX =    0.0001              !
 ! R7    R(3,12)                 1.1017         -DE/DX =    0.0                 !
 ! R8    R(4,5)                  1.4038         -DE/DX =    0.0                 !
 ! R9    R(4,9)                  1.6947         -DE/DX =    0.0                 !
 ! R10   R(5,6)                  1.4065         -DE/DX =    0.0002              !
 ! R11   R(5,10)                 1.6923         -DE/DX =    0.0001              !
 ! R12   R(6,7)                  1.6923         -DE/DX =    0.0001              !
 ! A1    A(2,1,6)              120.2137         -DE/DX =    0.0001              !
 ! A2    A(2,1,8)              118.8664         -DE/DX =    0.0                 !
 ! A3    A(6,1,8)              120.9198         -DE/DX =    0.0                 !
 ! A4    A(1,2,3)              120.1485         -DE/DX =    0.0                 !
 ! A5    A(1,2,11)             119.9705         -DE/DX =    0.0                 !
 ! A6    A(3,2,11)             119.881          -DE/DX =    0.0                 !
 ! A7    A(2,3,4)              120.1479         -DE/DX =    0.0                 !
 ! A8    A(2,3,12)             119.8813         -DE/DX =    0.0                 !
 ! A9    A(4,3,12)             119.9708         -DE/DX =    0.0                 !
 ! A10   A(3,4,5)              120.2139         -DE/DX =    0.0001              !
 ! A11   A(3,4,9)              118.8664         -DE/DX =    0.0                 !
 ! A12   A(5,4,9)              120.9197         -DE/DX =    0.0                 !
 ! A13   A(4,5,6)              119.638          -DE/DX =    0.0                 !
 ! A14   A(4,5,10)             120.2139         -DE/DX =    0.0001              !
 ! A15   A(6,5,10)             120.1481         -DE/DX =    0.0                 !
 ! A16   A(1,6,5)              119.638          -DE/DX =    0.0                 !
 ! A17   A(1,6,7)              120.2139         -DE/DX =    0.0001              !
 ! A18   A(5,6,7)              120.1481         -DE/DX =    0.0                 !
 ! D1    D(6,1,2,3)              0.0            -DE/DX =    0.0                 !
 ! D2    D(6,1,2,11)           180.0            -DE/DX =    0.0                 !
 ! D3    D(8,1,2,3)            180.0            -DE/DX =    0.0                 !
 ! D4    D(8,1,2,11)             0.0            -DE/DX =    0.0                 !
 ! D5    D(2,1,6,5)              0.0            -DE/DX =    0.0                 !
 ! D6    D(2,1,6,7)            180.0            -DE/DX =    0.0                 !
 ! D7    D(8,1,6,5)            180.0            -DE/DX =    0.0                 !
 ! D8    D(8,1,6,7)              0.0            -DE/DX =    0.0                 !
 ! D9    D(1,2,3,4)              0.0            -DE/DX =    0.0                 !
 ! D10   D(1,2,3,12)           180.0            -DE/DX =    0.0                 !
 ! D11   D(11,2,3,4)           180.0            -DE/DX =    0.0                 !
 ! D12   D(11,2,3,12)            0.0            -DE/DX =    0.0                 !
 ! D13   D(2,3,4,5)              0.0            -DE/DX =    0.0                 !
 ! D14   D(2,3,4,9)            180.0            -DE/DX =    0.0                 !
 ! D15   D(12,3,4,5)           180.0            -DE/DX =    0.0                 !
 ! D16   D(12,3,4,9)             0.0            -DE/DX =    0.0                 !
 ! D17   D(3,4,5,6)              0.0            -DE/DX =    0.0                 !
 ! D18   D(3,4,5,10)           180.0            -DE/DX =    0.0                 !
 ! D19   D(9,4,5,6)            180.0            -DE/DX =    0.0                 !
 ! D20   D(9,4,5,10)             0.0            -DE/DX =    0.0                 !
 ! D21   D(4,5,6,1)              0.0            -DE/DX =    0.0                 !
 ! D22   D(4,5,6,7)            180.0            -DE/DX =    0.0                 !
 ! D23   D(10,5,6,1)           180.0            -DE/DX =    0.0                 !
 ! D24   D(10,5,6,7)             0.0            -DE/DX =    0.0                 !
 --------------------------------------------------------------------------------
 GradGradGradGradGradGradGradGradGradGradGradGradGradGradGradGradGradGrad

                          Input orientation:                          
 ---------------------------------------------------------------------
 Center     Atomic      Atomic             Coordinates (Angstroms)
 Number     Number       Type             X           Y           Z
 ---------------------------------------------------------------------
      1          6           0       -3.162842    0.267478    0.000000
      2          6           0       -1.969328    0.996726    0.000000
      3          6           0       -0.746963    0.335074   -0.000000
      4          6           0       -0.704939   -1.062968   -0.000000
      5          6           0       -1.896276   -1.805537   -0.000000
      6          6           0       -3.133159   -1.136021    0.000000
      7         17           0       -4.577214   -2.018357    0.000000
      8         17           0       -4.634769    1.107331    0.000000
      9         17           0        0.803079   -1.836145   -0.000000
     10         17           0       -1.845432   -3.497053   -0.000000
     11          1           0       -1.997292    2.097788    0.000000
     12          1           0        0.190435    0.913854   -0.000000
 ---------------------------------------------------------------------
                    Distance matrix (angstroms):
                    1          2          3          4          5
     1  C    0.000000
     2  C    1.398669   0.000000
     3  C    2.416824   1.389950   0.000000
     4  C    2.794883   2.416820   1.398673   0.000000
     5  C    2.429317   2.803215   2.429637   1.403813   0.000000
     6  C    1.403813   2.429632   2.803221   2.429318   1.406461
     7  Cl   2.688028   3.986451   4.495493   3.988393   2.689371
     8  Cl   1.694674   2.667734   3.963763   4.489293   3.998017
     9  Cl   4.489294   3.963761   2.667737   1.694674   2.699529
    10  Cl   3.988392   4.495487   3.986456   2.688028   1.692280
    11  H    2.169916   1.101417   2.161130   3.414755   3.904632
    12  H    3.415006   2.161353   1.101681   2.170143   3.427747
                    6          7          8          9         10
     6  C    0.000000
     7  Cl   1.692280   0.000000
     8  Cl   2.699530   3.126219   0.000000
     9  Cl   3.998017   5.383377   6.183384   0.000000
    10  Cl   2.689371   3.106312   5.383378   3.126216   0.000000
    11  H    3.427493   4.857843   2.817318   4.828861   5.596902
    12  H    3.904903   5.597172   4.829081   2.817415   4.858071
                   11         12
    11  H    0.000000
    12  H    2.487539   0.000000
 Stoichiometry    C6H2Cl4
 Framework group  CS[SG(C6H2Cl4)]
 Deg. of freedom    21
 Full point group                 CS      NOp   2
 Largest Abelian subgroup         CS      NOp   2
 Largest concise Abelian subgroup C1      NOp   1
                         Standard orientation:                         
 ---------------------------------------------------------------------
 Center     Atomic      Atomic             Coordinates (Angstroms)
 Number     Number       Type             X           Y           Z
 ---------------------------------------------------------------------
      1          6           0        0.808958    1.397443    0.000000
      2          6           0        2.018427    0.694975    0.000000
      3          6           0        2.018432   -0.694975   -0.000000
      4          6           0        0.808958   -1.397440   -0.000000
      5          6           0       -0.411191   -0.703229   -0.000000
      6          6           0       -0.411191    0.703232    0.000000
      7         17           0       -1.874556    1.553158    0.000000
      8         17           0        0.846869    3.091693    0.000000
      9         17           0        0.846864   -3.091691   -0.000000
     10         17           0       -1.874556   -1.553154   -0.000000
     11          1           0        2.973421    1.243705    0.000000
     12          1           0        2.973658   -1.243834   -0.000000
 ---------------------------------------------------------------------
 Rotational constants (GHZ):           1.1726039           0.5549585           0.3766848

 **********************************************************************

            Population analysis using the SCF Density.

 **********************************************************************

 Orbital symmetries:
       Occupied  (A') (A') (A') (A') (A') (A') (A') (A') (A') (A')
                 (A') (A') (A') (A") (A') (A") (A') (A') (A") (A")
                 (A') (A') (A') (A') (A") (A") (A")
       Virtual   (A") (A") (A') (A') (A') (A') (A") (A') (A') (A')
                 (A') (A') (A') (A') (A')
 The electronic state is 1-A'.
 Alpha  occ. eigenvalues --   -1.48926  -1.41437  -1.40383  -1.39161  -1.37394
 Alpha  occ. eigenvalues --   -1.17415  -1.16009  -0.90005  -0.89503  -0.71010
 Alpha  occ. eigenvalues --   -0.65683  -0.65565  -0.59266  -0.58566  -0.57834
 Alpha  occ. eigenvalues --   -0.51817  -0.51301  -0.51137  -0.49443  -0.47264
 Alpha  occ. eigenvalues --   -0.45266  -0.45189  -0.44953  -0.44012  -0.43980
 Alpha  occ. eigenvalues --   -0.36664  -0.35773
 Alpha virt. eigenvalues --   -0.02394  -0.02055   0.01968   0.02808   0.03789
 Alpha virt. eigenvalues --    0.04631   0.06491   0.11587   0.12261   0.13386
 Alpha virt. eigenvalues --    0.13496   0.14718   0.15813   0.16603   0.17634
          Condensed to atoms (all electrons):
               1          2          3          4          5          6
     1  C    4.056897   0.000000   0.000000   0.000000   0.000000   0.000000
     2  C    0.000000   4.110455   0.000000   0.000000   0.000000   0.000000
     3  C    0.000000   0.000000   4.110481   0.000000   0.000000   0.000000
     4  C    0.000000   0.000000   0.000000   4.056897   0.000000   0.000000
     5  C    0.000000   0.000000   0.000000   0.000000   4.055906   0.000000
     6  C    0.000000   0.000000   0.000000   0.000000   0.000000   4.055912
     7  Cl   0.000000   0.000000   0.000000   0.000000   0.000000   0.000000
     8  Cl   0.000000   0.000000   0.000000   0.000000   0.000000   0.000000
     9  Cl   0.000000   0.000000   0.000000   0.000000   0.000000   0.000000
    10  Cl   0.000000   0.000000   0.000000   0.000000   0.000000   0.000000
    11  H    0.000000   0.000000   0.000000   0.000000   0.000000   0.000000
    12  H    0.000000   0.000000   0.000000   0.000000   0.000000   0.000000
               7          8          9         10         11         12
     1  C    0.000000   0.000000   0.000000   0.000000   0.000000   0.000000
     2  C    0.000000   0.000000   0.000000   0.000000   0.000000   0.000000
     3  C    0.000000   0.000000   0.000000   0.000000   0.000000   0.000000
     4  C    0.000000   0.000000   0.000000   0.000000   0.000000   0.000000
     5  C    0.000000   0.000000   0.000000   0.000000   0.000000   0.000000
     6  C    0.000000   0.000000   0.000000   0.000000   0.000000   0.000000
     7  Cl   6.959437   0.000000   0.000000   0.000000   0.000000   0.000000
     8  Cl   0.000000   6.976954   0.000000   0.000000   0.000000   0.000000
     9  Cl   0.000000   0.000000   6.976957   0.000000   0.000000   0.000000
    10  Cl   0.000000   0.000000   0.000000   6.959436   0.000000   0.000000
    11  H    0.000000   0.000000   0.000000   0.000000   0.840352   0.000000
    12  H    0.000000   0.000000   0.000000   0.000000   0.000000   0.840315
 Mulliken charges:
               1
     1  C   -0.056897
     2  C   -0.110455
     3  C   -0.110481
     4  C   -0.056897
     5  C   -0.055906
     6  C   -0.055912
     7  Cl   0.040563
     8  Cl   0.023046
     9  Cl   0.023043
    10  Cl   0.040564
    11  H    0.159648
    12  H    0.159685
 Sum of Mulliken charges =  -0.00000
 Mulliken charges with hydrogens summed into heavy atoms:
               1
     1  C   -0.056897
     2  C    0.049193
     3  C    0.049204
     4  C   -0.056897
     5  C   -0.055906
     6  C   -0.055912
     7  Cl   0.040563
     8  Cl   0.023046
     9  Cl   0.023043
    10  Cl   0.040564
 Charge=             -0.0000 electrons
 Dipole moment (field-independent basis, Debye):
    X=              1.6083    Y=             -0.0002    Z=              0.0000  Tot=              1.6083
 N-N= 3.079756924741D+02 E-N=-4.402827673207D+02  KE=-1.347716886535D+02
 Symmetry A'   KE=-1.031753542311D+02
 Symmetry A"   KE=-3.159633442241D+01
 1\1\GINC-SH02-02N45\FOpt\RAM1\ZDO\C6H2Cl4\JLAPIER\08-Dec-2025\0\\# opt
  am1 SCF(maxcyc=10000)\\4-Chloro-Benzene (1234)\\0,1\C,-3.1628417843,0
 .2674784216,0.\C,-1.9693283332,0.9967258702,0.\C,-0.7469629245,0.33507
 37366,0.\C,-0.7049394563,-1.0629679856,0.\C,-1.8962761709,-1.805537136
 1,0.\C,-3.133159006,-1.1360206697,0.\Cl,-4.5772137062,-2.0183573155,0.
 \Cl,-4.6347685313,1.1073314196,0.\Cl,0.8030789021,-1.8361446792,0.\Cl,
 -1.8454316911,-3.4970533159,0.\H,-1.9972924821,2.0977876093,0.\H,0.190
 4351837,0.9138540447,0.\\Version=ES64L-G16RevB.01\State=1-A'\HF=-0.001
 1114\RMSD=8.843e-09\RMSF=7.746e-05\Dipole=0.3012616,0.5564323,0.\PG=CS
  [SG(C6H2Cl4)]\\@


 Human beings, who are almost unique in having the
 ability to learn from the experience of others, are
 also remarkable for their apparent disinclination to do so.
                               -- Douglas Adams,
                                Last Chance to See
 Job cpu time:       0 days  0 hours  0 minutes  8.3 seconds.
 Elapsed time:       0 days  0 hours  0 minutes 28.9 seconds.
 File lengths (MBytes):  RWF=     10 Int=      0 D2E=      0 Chk=      2 Scr=      1
 Normal termination of Gaussian 16 at Mon Dec  8 17:09:03 2025.
