 Entering Gaussian System, Link 0=g16
 Initial command:
 /share/software/user/restricted/gaussian/g16.B01/l1.exe "/home/users/jlapier/Chloroaromatics/Gau-30934.inp" -scrdir="/home/users/jlapier/Chloroaromatics/"
 Entering Link 1 = /share/software/user/restricted/gaussian/g16.B01/l1.exe PID=     30935.
  
 Copyright (c) 1988-2017, Gaussian, Inc.  All Rights Reserved.
  
 This is part of the Gaussian(R) 16 program.  It is based on
 the Gaussian(R) 09 system (copyright 2009, Gaussian, Inc.),
 the Gaussian(R) 03 system (copyright 2003, Gaussian, Inc.),
 the Gaussian(R) 98 system (copyright 1998, Gaussian, Inc.),
 the Gaussian(R) 94 system (copyright 1995, Gaussian, Inc.),
 the Gaussian 92(TM) system (copyright 1992, Gaussian, Inc.),
 the Gaussian 90(TM) system (copyright 1990, Gaussian, Inc.),
 the Gaussian 88(TM) system (copyright 1988, Gaussian, Inc.),
 the Gaussian 86(TM) system (copyright 1986, Carnegie Mellon
 University), and the Gaussian 82(TM) system (copyright 1983,
 Carnegie Mellon University). Gaussian is a federally registered
 trademark of Gaussian, Inc.
  
 This software contains proprietary and confidential information,
 including trade secrets, belonging to Gaussian, Inc.
  
 This software is provided under written license and may be
 used, copied, transmitted, or stored only in accord with that
 written license.
  
 The following legend is applicable only to US Government
 contracts under FAR:
  
                    RESTRICTED RIGHTS LEGEND
  
 Use, reproduction and disclosure by the US Government is
 subject to restrictions as set forth in subparagraphs (a)
 and (c) of the Commercial Computer Software - Restricted
 Rights clause in FAR 52.227-19.
  
 Gaussian, Inc.
 340 Quinnipiac St., Bldg. 40, Wallingford CT 06492
  
  
 ---------------------------------------------------------------
 Warning -- This program may not be used in any manner that
 competes with the business of Gaussian, Inc. or will provide
 assistance to any competitor of Gaussian, Inc.  The licensee
 of this program is prohibited from giving any competitor of
 Gaussian, Inc. access to this program.  By using this program,
 the user acknowledges that Gaussian, Inc. is engaged in the
 business of creating and licensing software in the field of
 computational chemistry and represents and warrants to the
 licensee that it is not a competitor of Gaussian, Inc. and that
 it will not use this program in any manner prohibited above.
 ---------------------------------------------------------------
  

 Cite this work as:
 Gaussian 16, Revision B.01,
 M. J. Frisch, G. W. Trucks, H. B. Schlegel, G. E. Scuseria, 
 M. A. Robb, J. R. Cheeseman, G. Scalmani, V. Barone, 
 G. A. Petersson, H. Nakatsuji, X. Li, M. Caricato, A. V. Marenich, 
 J. Bloino, B. G. Janesko, R. Gomperts, B. Mennucci, H. P. Hratchian, 
 J. V. Ortiz, A. F. Izmaylov, J. L. Sonnenberg, D. Williams-Young, 
 F. Ding, F. Lipparini, F. Egidi, J. Goings, B. Peng, A. Petrone, 
 T. Henderson, D. Ranasinghe, V. G. Zakrzewski, J. Gao, N. Rega, 
 G. Zheng, W. Liang, M. Hada, M. Ehara, K. Toyota, R. Fukuda, 
 J. Hasegawa, M. Ishida, T. Nakajima, Y. Honda, O. Kitao, H. Nakai, 
 T. Vreven, K. Throssell, J. A. Montgomery, Jr., J. E. Peralta, 
 F. Ogliaro, M. J. Bearpark, J. J. Heyd, E. N. Brothers, K. N. Kudin, 
 V. N. Staroverov, T. A. Keith, R. Kobayashi, J. Normand, 
 K. Raghavachari, A. P. Rendell, J. C. Burant, S. S. Iyengar, 
 J. Tomasi, M. Cossi, J. M. Millam, M. Klene, C. Adamo, R. Cammi, 
 J. W. Ochterski, R. L. Martin, K. Morokuma, O. Farkas, 
 J. B. Foresman, and D. J. Fox, Gaussian, Inc., Wallingford CT, 2016.
 
 ******************************************
 Gaussian 16:  ES64L-G16RevB.01 20-Dec-2017
                 9-Dec-2025 
 ******************************************
 %mem=2GB
 %nprocshare=1
 Will use up to    1 processors via shared memory.
 %chk=geometry_chks/12345ClBz.chk
 -----------------
 # opt am1 SCF=XQC
 -----------------
 1/18=20,19=15,26=1,38=1/1,3;
 2/9=110,12=2,17=6,18=5,40=1/2;
 3/5=2,25=1,41=700000,71=1/1,2,3;
 4/35=1/1;
 5/5=2,8=3,13=1,35=1,38=5/2,8;
 6/7=2,8=2,9=2,10=2,28=1/1;
 7//1,2,3,16;
 1/18=20,19=15,26=1/3(2);
 2/9=110/2;
 99//99;
 2/9=110/2;
 3/5=2,25=1,41=700000,71=1,135=20/1,2,3;
 4/5=5,16=3,35=1/1;
 5/5=2,8=3,13=1,35=1,38=5/2,8;
 7//1,2,3,16;
 1/18=20,19=15,26=1/3(-5);
 2/9=110/2;
 6/7=2,8=2,9=2,10=2,19=2,28=1/1;
 99/9=1/99;
 ------------------------
 5-Chloro-Benzene (12345)
 ------------------------
 Symbolic Z-matrix:
 Charge =  0 Multiplicity = 1
 C                    -3.20928   0.19943   0. 
 C                    -2.0115    0.93555   0. 
 C                    -0.77511   0.2663    0. 
 C                    -0.7365   -1.13907   0. 
 C                    -1.93429  -1.87519   0. 
 C                    -3.17067  -1.20594   0. 
 Cl                   -4.67483  -2.13035   0. 
 Cl                   -4.76193   1.03987   0. 
 Cl                   -2.05998   2.7004    0. 
 Cl                    0.72905   1.19071   0. 
 Cl                    0.81614  -1.97951   0. 
 H                    -1.8858   -3.64003   0. 
 
 Add virtual bond connecting atoms H12        and C5         Dist= 3.34D+00.

 GradGradGradGradGradGradGradGradGradGradGradGradGradGradGradGradGradGrad
 Berny optimization.
 Initialization pass.
                           ----------------------------
                           !    Initial Parameters    !
                           ! (Angstroms and Degrees)  !
 --------------------------                            --------------------------
 ! Name  Definition              Value          Derivative Info.                !
 --------------------------------------------------------------------------------
 ! R1    R(1,2)                  1.4059         estimate D2E/DX2                !
 ! R2    R(1,6)                  1.4059         estimate D2E/DX2                !
 ! R3    R(1,8)                  1.7655         estimate D2E/DX2                !
 ! R4    R(2,3)                  1.4059         estimate D2E/DX2                !
 ! R5    R(2,9)                  1.7655         estimate D2E/DX2                !
 ! R6    R(3,4)                  1.4059         estimate D2E/DX2                !
 ! R7    R(3,10)                 1.7655         estimate D2E/DX2                !
 ! R8    R(4,5)                  1.4059         estimate D2E/DX2                !
 ! R9    R(4,11)                 1.7655         estimate D2E/DX2                !
 ! R10   R(5,6)                  1.4059         estimate D2E/DX2                !
 ! R11   R(5,12)                 1.7655         estimate D2E/DX2                !
 ! R12   R(6,7)                  1.7655         estimate D2E/DX2                !
 ! A1    A(2,1,6)              119.9999         estimate D2E/DX2                !
 ! A2    A(2,1,8)              119.9999         estimate D2E/DX2                !
 ! A3    A(6,1,8)              120.0001         estimate D2E/DX2                !
 ! A4    A(1,2,3)              120.0            estimate D2E/DX2                !
 ! A5    A(1,2,9)              120.0001         estimate D2E/DX2                !
 ! A6    A(3,2,9)              119.9999         estimate D2E/DX2                !
 ! A7    A(2,3,4)              120.0001         estimate D2E/DX2                !
 ! A8    A(2,3,10)             120.0            estimate D2E/DX2                !
 ! A9    A(4,3,10)             119.9999         estimate D2E/DX2                !
 ! A10   A(3,4,5)              119.9997         estimate D2E/DX2                !
 ! A11   A(3,4,11)             120.0003         estimate D2E/DX2                !
 ! A12   A(5,4,11)             120.0            estimate D2E/DX2                !
 ! A13   A(4,5,6)              120.0            estimate D2E/DX2                !
 ! A14   A(4,5,12)             119.9996         estimate D2E/DX2                !
 ! A15   A(6,5,12)             120.0004         estimate D2E/DX2                !
 ! A16   A(1,6,5)              120.0003         estimate D2E/DX2                !
 ! A17   A(1,6,7)              119.9999         estimate D2E/DX2                !
 ! A18   A(5,6,7)              119.9998         estimate D2E/DX2                !
 ! D1    D(6,1,2,3)              0.0            estimate D2E/DX2                !
 ! D2    D(6,1,2,9)            180.0            estimate D2E/DX2                !
 ! D3    D(8,1,2,3)            180.0            estimate D2E/DX2                !
 ! D4    D(8,1,2,9)              0.0            estimate D2E/DX2                !
 ! D5    D(2,1,6,5)              0.0            estimate D2E/DX2                !
 ! D6    D(2,1,6,7)            180.0            estimate D2E/DX2                !
 ! D7    D(8,1,6,5)            180.0            estimate D2E/DX2                !
 ! D8    D(8,1,6,7)              0.0            estimate D2E/DX2                !
 ! D9    D(1,2,3,4)              0.0            estimate D2E/DX2                !
 ! D10   D(1,2,3,10)           180.0            estimate D2E/DX2                !
 ! D11   D(9,2,3,4)            180.0            estimate D2E/DX2                !
 ! D12   D(9,2,3,10)             0.0            estimate D2E/DX2                !
 ! D13   D(2,3,4,5)              0.0            estimate D2E/DX2                !
 ! D14   D(2,3,4,11)           180.0            estimate D2E/DX2                !
 ! D15   D(10,3,4,5)           180.0            estimate D2E/DX2                !
 ! D16   D(10,3,4,11)            0.0            estimate D2E/DX2                !
 ! D17   D(3,4,5,6)              0.0            estimate D2E/DX2                !
 ! D18   D(3,4,5,12)           180.0            estimate D2E/DX2                !
 ! D19   D(11,4,5,6)           180.0            estimate D2E/DX2                !
 ! D20   D(11,4,5,12)            0.0            estimate D2E/DX2                !
 ! D21   D(4,5,6,1)              0.0            estimate D2E/DX2                !
 ! D22   D(4,5,6,7)            180.0            estimate D2E/DX2                !
 ! D23   D(12,5,6,1)           180.0            estimate D2E/DX2                !
 ! D24   D(12,5,6,7)             0.0            estimate D2E/DX2                !
 --------------------------------------------------------------------------------
 Trust Radius=3.00D-01 FncErr=1.00D-07 GrdErr=1.00D-07 EigMax=2.50D+02 EigMin=1.00D-04
 Number of steps in this run=     64 maximum allowed number of steps=    100.
 GradGradGradGradGradGradGradGradGradGradGradGradGradGradGradGradGradGrad

                          Input orientation:                          
 ---------------------------------------------------------------------
 Center     Atomic      Atomic             Coordinates (Angstroms)
 Number     Number       Type             X           Y           Z
 ---------------------------------------------------------------------
      1          6           0       -3.209280    0.199430    0.000000
      2          6           0       -2.011500    0.935550    0.000000
      3          6           0       -0.775110    0.266300    0.000000
      4          6           0       -0.736500   -1.139070    0.000000
      5          6           0       -1.934290   -1.875190    0.000000
      6          6           0       -3.170670   -1.205940    0.000000
      7         17           0       -4.674830   -2.130350    0.000000
      8         17           0       -4.761930    1.039870    0.000000
      9         17           0       -2.059980    2.700400    0.000000
     10         17           0        0.729050    1.190710    0.000000
     11         17           0        0.816140   -1.979510    0.000000
     12          1           0       -1.885800   -3.640030    0.000000
 ---------------------------------------------------------------------
                    Distance matrix (angstroms):
                    1          2          3          4          5
     1  C    0.000000
     2  C    1.405898   0.000000
     3  C    2.435088   1.405900   0.000000
     4  C    2.811801   2.435092   1.405900   0.000000
     5  C    2.435087   2.811800   2.435093   1.405907   0.000000
     6  C    1.405900   2.435088   2.811796   2.435088   1.405892
     7  Cl   2.752401   4.061166   4.577308   4.061167   2.752393
     8  Cl   1.765520   2.752408   4.061175   4.577321   4.061173
     9  Cl   2.752406   1.765516   2.752405   4.061173   4.577316
    10  Cl   4.061167   2.752403   1.765512   2.752401   4.061173
    11  Cl   4.577312   4.061173   2.752406   1.765511   2.752408
    12  H    4.061164   4.577306   4.061163   2.752397   1.765506
                    6          7          8          9         10
     6  C    0.000000
     7  Cl   1.765512   0.000000
     8  Cl   2.752412   3.171416   0.000000
     9  Cl   4.061173   5.493049   3.171418   0.000000
    10  Cl   4.577308   6.342819   5.493051   3.171412   0.000000
    11  Cl   4.061165   5.493041   6.342832   5.493052   3.171416
    12  H    2.752396   3.171407   5.493049   6.342822   5.493040
                   11         12
    11  Cl   0.000000
    12  H    3.171404   0.000000
 Stoichiometry    C6HCl5
 Framework group  CS[SG(C6HCl5)]
 Deg. of freedom    21
 Full point group                 CS      NOp   2
 Largest Abelian subgroup         CS      NOp   2
 Largest concise Abelian subgroup C1      NOp   1
                         Standard orientation:                         
 ---------------------------------------------------------------------
 Center     Atomic      Atomic             Coordinates (Angstroms)
 Number     Number       Type             X           Y           Z
 ---------------------------------------------------------------------
      1          6           0       -0.360199   -1.197937    0.000000
      2          6           0        0.857345   -0.494989    0.000000
      3          6           0        0.857345    0.910911   -0.000000
      4          6           0       -0.360199    1.613864   -0.000000
      5          6           0       -1.577748    0.910907   -0.000000
      6          6           0       -1.577744   -0.494985    0.000000
      7         17           0       -3.106721   -1.377741    0.000000
      8         17           0       -0.360199   -2.963457    0.000000
      9         17           0        2.386328   -1.377744    0.000000
     10         17           0        2.386322    1.793667   -0.000000
     11         17           0       -0.360205    3.379375   -0.000000
     12          1           0       -3.106718    1.793666   -0.000000
 ---------------------------------------------------------------------
 Rotational constants (GHZ):           0.6848749           0.4487110           0.2710963
 Standard basis: VSTO-6G (5D, 7F)
 There are    34 symmetry adapted cartesian basis functions of A'  symmetry.
 There are    11 symmetry adapted cartesian basis functions of A"  symmetry.
 There are    34 symmetry adapted basis functions of A'  symmetry.
 There are    11 symmetry adapted basis functions of A"  symmetry.
    45 basis functions,   270 primitive gaussians,    45 cartesian basis functions
    30 alpha electrons       30 beta electrons
       nuclear repulsion energy       357.7850492036 Hartrees.
 Integral buffers will be    131072 words long.
 Regular integral format.
 Two-electron integral symmetry is turned off.
 Do NDO integrals.
 One-electron integrals computed using PRISM.
 NBasis=    45 RedAO= T EigKep=  1.00D+00  NBF=    34    11
 NBsUse=    45 1.00D-06 EigRej= -1.00D+00 NBFU=    34    11
 Simple Huckel Guess.
 Initial guess orbital symmetries:
       Occupied  (A') (A') (A') (A') (A') (A') (A') (A') (A') (A')
                 (A') (A") (A') (A') (A') (A") (A') (A") (A') (A')
                 (A") (A") (A') (A') (A') (A") (A') (A') (A") (A")
       Virtual   (A') (A") (A") (A") (A') (A') (A') (A') (A') (A')
                 (A') (A') (A') (A') (A')
 The electronic state of the initial guess is 1-A'.
 Keep J ints in memory in canonical form, NReq=865560.
 Overlap will be assumed to be unity.
 Requested convergence on RMS density matrix=1.00D-08 within  32 cycles.
 Requested convergence on MAX density matrix=1.00D-06.
 Requested convergence on             energy=1.00D-06.
 No special actions if energy rises.
 Fock symm off for IB=2 I1=    1 I=   35 J=   13 Cut=1.00D-07 Err=1.80D-03
 Fock matrix is not symmetric: symmetry in diagonalization turned off.
 SCF Done:  E(RAM1) =  0.126733744768     A.U. after   13 cycles
            NFock= 12  Conv=0.91D-08     -V/T= 1.0008
 QCSCF skips out because SCF is already converged.

 **********************************************************************

            Population analysis using the SCF Density.

 **********************************************************************

 Orbital symmetries:
       Occupied  (A') (A') (A') (A') (A') (A') (A') (A') (A') (A')
                 (A') (A') (A') (A') (A") (A') (A') (A") (A") (A')
                 (A") (A") (A') (A') (A') (A') (A") (A') (A") (A")
       Virtual   (A") (A") (A') (A') (A') (A') (A') (A') (A") (A')
                 (A') (A') (A') (A') (A')
 The electronic state is 1-A'.
 Alpha  occ. eigenvalues --   -1.47026  -1.40029  -1.39309  -1.38416  -1.37957
 Alpha  occ. eigenvalues --   -1.36063  -1.15573  -1.14589  -0.88691  -0.87625
 Alpha  occ. eigenvalues --   -0.69305  -0.65795  -0.63455  -0.59360  -0.58259
 Alpha  occ. eigenvalues --   -0.56282  -0.52087  -0.51426  -0.49976  -0.47550
 Alpha  occ. eigenvalues --   -0.47395  -0.46749  -0.45772  -0.45378  -0.45281
 Alpha  occ. eigenvalues --   -0.43790  -0.43195  -0.42990  -0.36955  -0.36549
 Alpha virt. eigenvalues --   -0.03242  -0.02569  -0.02021   0.00065   0.01081
 Alpha virt. eigenvalues --    0.01582   0.03172   0.03620   0.05769   0.11856
 Alpha virt. eigenvalues --    0.12087   0.13527   0.13804   0.15368   0.15880
          Condensed to atoms (all electrons):
               1          2          3          4          5          6
     1  C    4.029518   0.000000   0.000000   0.000000   0.000000   0.000000
     2  C    0.000000   4.041058   0.000000   0.000000   0.000000   0.000000
     3  C    0.000000   0.000000   4.029521   0.000000   0.000000   0.000000
     4  C    0.000000   0.000000   0.000000   4.035928   0.000000   0.000000
     5  C    0.000000   0.000000   0.000000   0.000000   4.139155   0.000000
     6  C    0.000000   0.000000   0.000000   0.000000   0.000000   4.035927
     7  Cl   0.000000   0.000000   0.000000   0.000000   0.000000   0.000000
     8  Cl   0.000000   0.000000   0.000000   0.000000   0.000000   0.000000
     9  Cl   0.000000   0.000000   0.000000   0.000000   0.000000   0.000000
    10  Cl   0.000000   0.000000   0.000000   0.000000   0.000000   0.000000
    11  Cl   0.000000   0.000000   0.000000   0.000000   0.000000   0.000000
    12  H    0.000000   0.000000   0.000000   0.000000   0.000000   0.000000
               7          8          9         10         11         12
     1  C    0.000000   0.000000   0.000000   0.000000   0.000000   0.000000
     2  C    0.000000   0.000000   0.000000   0.000000   0.000000   0.000000
     3  C    0.000000   0.000000   0.000000   0.000000   0.000000   0.000000
     4  C    0.000000   0.000000   0.000000   0.000000   0.000000   0.000000
     5  C    0.000000   0.000000   0.000000   0.000000   0.000000   0.000000
     6  C    0.000000   0.000000   0.000000   0.000000   0.000000   0.000000
     7  Cl   7.001317   0.000000   0.000000   0.000000   0.000000   0.000000
     8  Cl   0.000000   6.982350   0.000000   0.000000   0.000000   0.000000
     9  Cl   0.000000   0.000000   6.979890   0.000000   0.000000   0.000000
    10  Cl   0.000000   0.000000   0.000000   6.982348   0.000000   0.000000
    11  Cl   0.000000   0.000000   0.000000   0.000000   7.001315   0.000000
    12  H    0.000000   0.000000   0.000000   0.000000   0.000000   0.741674
 Mulliken charges:
               1
     1  C   -0.029518
     2  C   -0.041058
     3  C   -0.029521
     4  C   -0.035928
     5  C   -0.139155
     6  C   -0.035927
     7  Cl  -0.001317
     8  Cl   0.017650
     9  Cl   0.020110
    10  Cl   0.017652
    11  Cl  -0.001315
    12  H    0.258326
 Sum of Mulliken charges =  -0.00000
 Mulliken charges with hydrogens summed into heavy atoms:
               1
     1  C   -0.029518
     2  C   -0.041058
     3  C   -0.029521
     4  C   -0.035928
     5  C    0.119171
     6  C   -0.035927
     7  Cl  -0.001317
     8  Cl   0.017650
     9  Cl   0.020110
    10  Cl   0.017652
    11  Cl  -0.001315
 Charge=             -0.0000 electrons
 Dipole moment (field-independent basis, Debye):
    X=             -1.9761    Y=              1.1409    Z=              0.0000  Tot=              2.2818
 N-N= 3.577850492036D+02 E-N=-5.139209093801D+02  KE=-1.563391814408D+02
 Symmetry A'   KE=-1.191101613054D+02
 Symmetry A"   KE=-3.722902013535D+01
 Calling FoFJK, ICntrl=      2127 FMM=F ISym2X=1 I1Cent= 0 IOpClX= 0 NMat=1 NMatS=1 NMatT=0.
 ***** Axes restored to original set *****
 -------------------------------------------------------------------
 Center     Atomic                   Forces (Hartrees/Bohr)
 Number     Number              X              Y              Z
 -------------------------------------------------------------------
      1        6          -0.023605136    0.013062509   -0.000000000
      2        6          -0.000692774    0.025201696   -0.000000000
      3        6           0.022851440    0.014333299   -0.000000000
      4        6           0.008419285   -0.025671879   -0.000000000
      5        6           0.002019990   -0.073113584    0.000000000
      6        6          -0.007008073   -0.026093367    0.000000000
      7       17           0.035169069    0.018365959    0.000000000
      8       17           0.034949670   -0.018575122    0.000000000
      9       17           0.001095368   -0.039881733    0.000000000
     10       17          -0.033873960   -0.020463585    0.000000000
     11       17          -0.036125829    0.016408106    0.000000000
     12        1          -0.003199050    0.116427701    0.000000000
 -------------------------------------------------------------------
 Cartesian Forces:  Max     0.116427701 RMS     0.029030271

 GradGradGradGradGradGradGradGradGradGradGradGradGradGradGradGradGradGrad
 Berny optimization.
 FormGI is forming the generalized inverse of G from B-inverse, IUseBI=4.
 Internal  Forces:  Max     0.116471642 RMS     0.021467229
 Search for a local minimum.
 Step number   1 out of a maximum of   64
 All quantities printed in internal units (Hartrees-Bohrs-Radians)
 Mixed Optimization -- RFO/linear search
 Second derivative matrix not updated -- first step.
 ITU=  0
     Eigenvalues ---    0.02011   0.02011   0.02011   0.02011   0.02011
     Eigenvalues ---    0.02011   0.02011   0.02011   0.02011   0.06524
     Eigenvalues ---    0.16000   0.23485   0.25000   0.25000   0.25000
     Eigenvalues ---    0.25000   0.25000   0.25000   0.25000   0.29033
     Eigenvalues ---    0.29033   0.29033   0.29033   0.29033   0.41051
     Eigenvalues ---    0.41211   0.44656   0.44657   0.44657   0.44657
 RFO step:  Lambda=-1.05736776D-01 EMin= 2.01065826D-02
 Linear search not attempted -- first point.
 Maximum step size (   0.300) exceeded in Quadratic search.
    -- Step size scaled by   0.413
 Iteration  1 RMS(Cart)=  0.03613165 RMS(Int)=  0.01110105
 Iteration  2 RMS(Cart)=  0.01061130 RMS(Int)=  0.00000904
 Iteration  3 RMS(Cart)=  0.00000004 RMS(Int)=  0.00000904
 ClnCor:  largest displacement from symmetrization is 7.64D-09 for atom    12.
 Variable       Old X    -DE/DX   Delta X   Delta X   Delta X     New X
                                 (Linear)    (Quad)   (Total)
    R1        2.65676  -0.01320   0.00000  -0.00924  -0.00926   2.64750
    R2        2.65677  -0.01317   0.00000  -0.00985  -0.00985   2.64691
    R3        3.33635  -0.03958   0.00000  -0.04130  -0.04130   3.29504
    R4        2.65677  -0.01319   0.00000  -0.00924  -0.00926   2.64751
    R5        3.33634  -0.03990   0.00000  -0.04164  -0.04164   3.29470
    R6        2.65677  -0.01317   0.00000  -0.00985  -0.00985   2.64691
    R7        3.33633  -0.03957   0.00000  -0.04130  -0.04130   3.29503
    R8        2.65678  -0.03520   0.00000  -0.02698  -0.02696   2.62981
    R9        3.33633  -0.03958   0.00000  -0.04131  -0.04131   3.29503
   R10        2.65675  -0.03519   0.00000  -0.02697  -0.02696   2.62979
   R11        3.33632  -0.11647   0.00000  -0.28158  -0.28158   3.05475
   R12        3.33633  -0.03958   0.00000  -0.04131  -0.04131   3.29503
    A1        2.09439  -0.00341   0.00000  -0.00311  -0.00313   2.09127
    A2        2.09439   0.00120   0.00000   0.00097   0.00098   2.09537
    A3        2.09440   0.00221   0.00000   0.00214   0.00215   2.09654
    A4        2.09439  -0.00155   0.00000   0.00005   0.00002   2.09442
    A5        2.09440   0.00078   0.00000  -0.00003  -0.00001   2.09439
    A6        2.09439   0.00078   0.00000  -0.00003  -0.00001   2.09438
    A7        2.09440  -0.00341   0.00000  -0.00311  -0.00313   2.09127
    A8        2.09440   0.00120   0.00000   0.00097   0.00098   2.09537
    A9        2.09439   0.00221   0.00000   0.00214   0.00215   2.09654
   A10        2.09439  -0.00100   0.00000  -0.00232  -0.00231   2.09208
   A11        2.09440   0.00512   0.00000   0.00653   0.00652   2.10092
   A12        2.09440  -0.00411   0.00000  -0.00420  -0.00421   2.09019
   A13        2.09439   0.01039   0.00000   0.01082   0.01085   2.10525
   A14        2.09439  -0.00519   0.00000  -0.00541  -0.00543   2.08896
   A15        2.09440  -0.00519   0.00000  -0.00541  -0.00543   2.08898
   A16        2.09440  -0.00101   0.00000  -0.00233  -0.00231   2.09209
   A17        2.09439   0.00512   0.00000   0.00653   0.00652   2.10091
   A18        2.09439  -0.00411   0.00000  -0.00420  -0.00421   2.09018
    D1       -0.00000   0.00000   0.00000   0.00000   0.00000   0.00000
    D2        3.14159   0.00000   0.00000   0.00000   0.00000   3.14159
    D3        3.14159  -0.00000   0.00000  -0.00000   0.00000   3.14159
    D4       -0.00000   0.00000   0.00000   0.00000   0.00000   0.00000
    D5        0.00000  -0.00000   0.00000  -0.00000   0.00000   0.00000
    D6        3.14159  -0.00000   0.00000  -0.00000   0.00000   3.14159
    D7        3.14159   0.00000   0.00000   0.00000   0.00000   3.14159
    D8       -0.00000   0.00000   0.00000   0.00000   0.00000   0.00000
    D9        0.00000  -0.00000   0.00000  -0.00000   0.00000   0.00000
   D10        3.14159   0.00000   0.00000   0.00000   0.00000   3.14159
   D11        3.14159  -0.00000   0.00000  -0.00000   0.00000   3.14159
   D12       -0.00000  -0.00000   0.00000  -0.00000   0.00000   0.00000
   D13        0.00000  -0.00000   0.00000  -0.00000  -0.00000   0.00000
   D14        3.14159   0.00000   0.00000   0.00000   0.00000   3.14159
   D15        3.14159  -0.00000   0.00000  -0.00000   0.00000   3.14159
   D16       -0.00000  -0.00000   0.00000  -0.00000   0.00000   0.00000
   D17        0.00000   0.00000   0.00000   0.00000   0.00000   0.00000
   D18        3.14159   0.00000   0.00000   0.00000   0.00000   3.14159
   D19        3.14159  -0.00000   0.00000  -0.00000   0.00000   3.14159
   D20        0.00000   0.00000   0.00000   0.00000  -0.00000   0.00000
   D21       -0.00000   0.00000   0.00000   0.00000   0.00000   0.00000
   D22        3.14159   0.00000   0.00000   0.00000   0.00000   3.14159
   D23        3.14159  -0.00000   0.00000  -0.00000   0.00000   3.14159
   D24       -0.00000   0.00000   0.00000   0.00000   0.00000   0.00000
         Item               Value     Threshold  Converged?
 Maximum Force            0.116472     0.000450     NO 
 RMS     Force            0.021467     0.000300     NO 
 Maximum Displacement     0.293754     0.001800     NO 
 RMS     Displacement     0.045605     0.001200     NO 
 Predicted change in Energy=-3.943110D-02
 GradGradGradGradGradGradGradGradGradGradGradGradGradGradGradGradGradGrad

                          Input orientation:                          
 ---------------------------------------------------------------------
 Center     Atomic      Atomic             Coordinates (Angstroms)
 Number     Number       Type             X           Y           Z
 ---------------------------------------------------------------------
      1          6           0       -3.204707    0.187151    0.000000
      2          6           0       -2.011092    0.920692    0.000000
      3          6           0       -0.779003    0.253788   -0.000000
      4          6           0       -0.744898   -1.146483   -0.000000
      5          6           0       -1.934467   -1.868689   -0.000000
      6          6           0       -3.161879   -1.212880    0.000000
      7         17           0       -4.638553   -2.140115    0.000000
      8         17           0       -4.738937    1.015704    0.000000
      9         17           0       -2.058967    2.663517    0.000000
     10         17           0        0.707420    1.165317   -0.000000
     11         17           0        0.780451   -1.991251   -0.000000
     12          1           0       -1.890068   -3.484582   -0.000000
 ---------------------------------------------------------------------
                    Distance matrix (angstroms):
                    1          2          3          4          5
     1  C    0.000000
     2  C    1.400999   0.000000
     3  C    2.426619   1.401002   0.000000
     4  C    2.798078   2.424141   1.400685   0.000000
     5  C    2.416607   2.790433   2.416610   1.391638   0.000000
     6  C    1.400686   2.424137   2.798074   2.417893   1.391628
     7  Cl   2.733511   4.033868   4.541684   4.018439   2.717674
     8  Cl   1.743663   2.729499   4.032566   4.541739   4.023030
     9  Cl   2.728572   1.743482   2.728572   4.030245   4.533916
    10  Cl   4.032561   2.729496   1.743657   2.730137   4.023029
    11  Cl   4.541687   4.033872   2.733513   1.743653   2.717683
    12  H    3.899987   4.406936   3.899984   2.603483   1.616503
                    6          7          8          9         10
     6  C    0.000000
     7  Cl   1.743654   0.000000
     8  Cl   2.730146   3.157414   0.000000
     9  Cl   4.030245   5.452444   3.146033   0.000000
    10  Cl   4.541729   6.285325   5.448411   3.146029   0.000000
    11  Cl   4.018436   5.421048   6.285333   5.452446   3.157413
    12  H    2.603485   3.059700   5.326220   6.150419   5.326210
                   11         12
    11  Cl   0.000000
    12  H    3.059691   0.000000
 Stoichiometry    C6HCl5
 Framework group  CS[SG(C6HCl5)]
 Deg. of freedom    21
 Full point group                 CS      NOp   2
 Largest Abelian subgroup         CS      NOp   2
 Largest concise Abelian subgroup C1      NOp   1
                         Standard orientation:                         
 ---------------------------------------------------------------------
 Center     Atomic      Atomic             Coordinates (Angstroms)
 Number     Number       Type             X           Y           Z
 ---------------------------------------------------------------------
      1          6           0       -1.213309   -0.290738   -0.000000
      2          6           0        0.000000   -0.991223   -0.000000
      3          6           0        1.213310   -0.290735    0.000000
      4          6           0        1.208948    1.109944    0.000000
      5          6           0       -0.000005    1.799210    0.000000
      6          6           0       -1.208945    1.109942   -0.000000
      7         17           0       -2.710525    1.996274   -0.000000
      8         17           0       -2.724207   -1.161110   -0.000000
      9         17           0        0.000004   -2.734706   -0.000000
     10         17           0        2.724204   -1.161101    0.000000
     11         17           0        2.710523    1.996283    0.000000
     12          1           0        0.000002    3.415713    0.000000
 ---------------------------------------------------------------------
 Rotational constants (GHZ):           0.6937934           0.4580759           0.2759081
 Standard basis: VSTO-6G (5D, 7F)
 There are    34 symmetry adapted cartesian basis functions of A'  symmetry.
 There are    11 symmetry adapted cartesian basis functions of A"  symmetry.
 There are    34 symmetry adapted basis functions of A'  symmetry.
 There are    11 symmetry adapted basis functions of A"  symmetry.
    45 basis functions,   270 primitive gaussians,    45 cartesian basis functions
    30 alpha electrons       30 beta electrons
       nuclear repulsion energy       359.9616033541 Hartrees.
 Integral buffers will be    131072 words long.
 Regular integral format.
 Two-electron integral symmetry is turned off.
 Do NDO integrals.
 One-electron integrals computed using PRISM.
 NBasis=    45 RedAO= T EigKep=  1.00D+00  NBF=    34    11
 NBsUse=    45 1.00D-06 EigRej= -1.00D+00 NBFU=    34    11
 Initial guess from the checkpoint file:  "geometry_chks/12345ClBz.chk"
 B after Tr=     0.000000    0.000000    0.000000
         Rot=    0.866026   -0.000000    0.000000    0.500000 Ang=  60.00 deg.
 Initial guess orbital symmetries:
       Occupied  (A') (A') (A') (A') (A') (A') (A') (A') (A') (A')
                 (A') (A') (A') (A') (A") (A') (A') (A") (A") (A')
                 (A") (A") (A') (A') (A') (A') (A") (A') (A") (A")
       Virtual   (A") (A") (A') (A') (A') (A') (A') (A') (A") (A')
                 (A') (A') (A') (A') (A')
 Keep J ints in memory in canonical form, NReq=865560.
 Overlap will be assumed to be unity.
 Requested convergence on RMS density matrix=1.00D-08 within  32 cycles.
 Requested convergence on MAX density matrix=1.00D-06.
 Requested convergence on             energy=1.00D-06.
 No special actions if energy rises.
 Fock symm off for IB=2 I1=    1 I=   35 J=    8 Cut=1.00D-07 Err=1.74D-03
 Fock matrix is not symmetric: symmetry in diagonalization turned off.
 SCF Done:  E(RAM1) =  0.841033655406E-01 A.U. after   12 cycles
            NFock= 11  Conv=0.41D-08     -V/T= 1.0005
 QCSCF skips out because SCF is already converged.
 Calling FoFJK, ICntrl=      2127 FMM=F ISym2X=1 I1Cent= 0 IOpClX= 0 NMat=1 NMatS=1 NMatT=0.
 ***** Axes restored to original set *****
 -------------------------------------------------------------------
 Center     Atomic                   Forces (Hartrees/Bohr)
 Number     Number              X              Y              Z
 -------------------------------------------------------------------
      1        6          -0.023850056    0.013790822   -0.000000000
      2        6          -0.000685364    0.024961082    0.000000000
      3        6           0.023055625    0.015076577   -0.000000000
      4        6           0.015933441   -0.021075998   -0.000000000
      5        6           0.002756200   -0.100035407   -0.000000000
      6        6          -0.014760374   -0.021917242    0.000000000
      7       17           0.025027712    0.013296245    0.000000000
      8       17           0.025298659   -0.013542118    0.000000000
      9       17           0.000785388   -0.028595709    0.000000000
     10       17          -0.024514546   -0.014908722    0.000000000
     11       17          -0.025720540    0.011902428    0.000000000
     12        1          -0.003326146    0.121048044    0.000000000
 -------------------------------------------------------------------
 Cartesian Forces:  Max     0.121048044 RMS     0.029947846

 GradGradGradGradGradGradGradGradGradGradGradGradGradGradGradGradGradGrad
 Berny optimization.
 Using GEDIIS/GDIIS optimizer.
 FormGI is forming the generalized inverse of G from B-inverse, IUseBI=4.
 Internal  Forces:  Max     0.121093733 RMS     0.018910935
 Search for a local minimum.
 Step number   2 out of a maximum of   64
 All quantities printed in internal units (Hartrees-Bohrs-Radians)
 Mixed Optimization -- RFO/linear search
 Update second derivatives using D2CorX and points    1    2
 DE= -4.26D-02 DEPred=-3.94D-02 R= 1.08D+00
 TightC=F SS=  1.41D+00  RLast= 3.00D-01 DXNew= 5.0454D-01 9.0000D-01
 Trust test= 1.08D+00 RLast= 3.00D-01 DXMaxT set to 5.05D-01
 ITU=  1  0
 Use linear search instead of GDIIS.
 Linear search step of   0.600 exceeds DXMaxT=   0.505 but not scaled.
 Quartic linear search produced a step of  2.00000.
 Iteration  1 RMS(Cart)=  0.05149952 RMS(Int)=  0.04941883
 Iteration  2 RMS(Cart)=  0.02598905 RMS(Int)=  0.02220199
 Iteration  3 RMS(Cart)=  0.02125672 RMS(Int)=  0.00005466
 Iteration  4 RMS(Cart)=  0.00000002 RMS(Int)=  0.00005466
 ClnCor:  largest displacement from symmetrization is 1.91D-08 for atom    10.
 Variable       Old X    -DE/DX   Delta X   Delta X   Delta X     New X
                                 (Linear)    (Quad)   (Total)
    R1        2.64750  -0.00157  -0.01852   0.00000  -0.01860   2.62890
    R2        2.64691  -0.00161  -0.01971   0.00000  -0.01970   2.62721
    R3        3.29504  -0.02869  -0.08261   0.00000  -0.08261   3.21244
    R4        2.64751  -0.00157  -0.01851   0.00000  -0.01860   2.62891
    R5        3.29470  -0.02861  -0.08327   0.00000  -0.08327   3.21143
    R6        2.64691  -0.00161  -0.01971   0.00000  -0.01971   2.62720
    R7        3.29503  -0.02869  -0.08260   0.00000  -0.08260   3.21243
    R8        2.62981  -0.01452  -0.05393   0.00000  -0.05384   2.57597
    R9        3.29503  -0.02827  -0.08261   0.00000  -0.08261   3.21241
   R10        2.62979  -0.01452  -0.05391   0.00000  -0.05382   2.57597
   R11        3.05475  -0.12109  -0.56315   0.00000  -0.56315   2.49160
   R12        3.29503  -0.02827  -0.08261   0.00000  -0.08261   3.21242
    A1        2.09127  -0.00232  -0.00625   0.00000  -0.00634   2.08493
    A2        2.09537   0.00099   0.00196   0.00000   0.00200   2.09737
    A3        2.09654   0.00134   0.00430   0.00000   0.00434   2.10088
    A4        2.09442  -0.00010   0.00005   0.00000  -0.00013   2.09429
    A5        2.09439   0.00005  -0.00002   0.00000   0.00006   2.09445
    A6        2.09438   0.00005  -0.00002   0.00000   0.00006   2.09445
    A7        2.09127  -0.00232  -0.00625   0.00000  -0.00634   2.08493
    A8        2.09537   0.00099   0.00196   0.00000   0.00200   2.09737
    A9        2.09654   0.00134   0.00430   0.00000   0.00434   2.10088
   A10        2.09208  -0.00140  -0.00462   0.00000  -0.00453   2.08755
   A11        2.10092   0.00408   0.01304   0.00000   0.01299   2.11391
   A12        2.09019  -0.00268  -0.00842   0.00000  -0.00846   2.08172
   A13        2.10525   0.00755   0.02170   0.00000   0.02187   2.12712
   A14        2.08896  -0.00377  -0.01085   0.00000  -0.01094   2.07803
   A15        2.08898  -0.00377  -0.01085   0.00000  -0.01094   2.07804
   A16        2.09209  -0.00140  -0.00462   0.00000  -0.00454   2.08755
   A17        2.10091   0.00408   0.01304   0.00000   0.01300   2.11391
   A18        2.09018  -0.00267  -0.00841   0.00000  -0.00846   2.08173
    D1        0.00000   0.00000   0.00000   0.00000  -0.00000   0.00000
    D2        3.14159   0.00000   0.00000   0.00000   0.00000   3.14159
    D3        3.14159  -0.00000   0.00000   0.00000   0.00000   3.14159
    D4       -0.00000  -0.00000   0.00000   0.00000   0.00000   0.00000
    D5       -0.00000   0.00000   0.00000   0.00000   0.00000   0.00000
    D6        3.14159  -0.00000   0.00000   0.00000   0.00000   3.14159
    D7        3.14159   0.00000   0.00000   0.00000   0.00000   3.14159
    D8        0.00000   0.00000   0.00000   0.00000  -0.00000   0.00000
    D9        0.00000  -0.00000   0.00000   0.00000   0.00000   0.00000
   D10        3.14159   0.00000   0.00000   0.00000   0.00000   3.14159
   D11        3.14159  -0.00000   0.00000   0.00000   0.00000   3.14159
   D12       -0.00000   0.00000   0.00000   0.00000   0.00000   0.00000
   D13       -0.00000   0.00000   0.00000   0.00000   0.00000   0.00000
   D14        3.14159   0.00000   0.00000   0.00000   0.00000   3.14159
   D15        3.14159  -0.00000   0.00000   0.00000   0.00000   3.14159
   D16        0.00000  -0.00000   0.00000   0.00000   0.00000   0.00000
   D17        0.00000  -0.00000   0.00000   0.00000   0.00000   0.00000
   D18        3.14159   0.00000   0.00000   0.00000   0.00000   3.14159
   D19        3.14159  -0.00000   0.00000   0.00000   0.00000   3.14159
   D20        0.00000   0.00000   0.00000   0.00000   0.00000   0.00000
   D21        0.00000   0.00000   0.00000   0.00000  -0.00000   0.00000
   D22        3.14159   0.00000   0.00000   0.00000   0.00000   3.14159
   D23        3.14159  -0.00000   0.00000   0.00000   0.00000   3.14159
   D24       -0.00000  -0.00000   0.00000   0.00000   0.00000   0.00000
         Item               Value     Threshold  Converged?
 Maximum Force            0.121094     0.000450     NO 
 RMS     Force            0.018911     0.000300     NO 
 Maximum Displacement     0.586770     0.001800     NO 
 RMS     Displacement     0.091144     0.001200     NO 
 Predicted change in Energy=-7.684657D-02
 GradGradGradGradGradGradGradGradGradGradGradGradGradGradGradGradGradGrad

                          Input orientation:                          
 ---------------------------------------------------------------------
 Center     Atomic      Atomic             Coordinates (Angstroms)
 Number     Number       Type             X           Y           Z
 ---------------------------------------------------------------------
      1          6           0       -3.195457    0.162429   -0.000000
      2          6           0       -2.010274    0.890890   -0.000000
      3          6           0       -0.786883    0.228592    0.000000
      4          6           0       -0.761931   -1.161440    0.000000
      5          6           0       -1.934809   -1.856077   -0.000000
      6          6           0       -3.144055   -1.226879   -0.000000
      7         17           0       -4.565903   -2.158619   -0.000000
      8         17           0       -4.692885    0.967122   -0.000000
      9         17           0       -2.056938    2.589665    0.000000
     10         17           0        0.664109    1.114280    0.000000
     11         17           0        0.708921   -2.013716    0.000000
     12          1           0       -1.898594   -3.174077    0.000000
 ---------------------------------------------------------------------
                    Distance matrix (angstroms):
                    1          2          3          4          5
     1  C    0.000000
     2  C    1.391156   0.000000
     3  C    2.409483   1.391159   0.000000
     4  C    2.770321   2.402169   1.390256   0.000000
     5  C    2.379832   2.748004   2.379829   1.363145   0.000000
     6  C    1.390259   2.402167   2.770317   2.383022   1.363145
     7  Cl   2.695438   3.978787   4.469874   3.932501   2.648430
     8  Cl   1.699947   2.683694   3.975208   4.470254   3.946826
     9  Cl   2.680988   1.699416   2.680989   3.968353   4.447419
    10  Cl   3.975207   2.683696   1.699947   2.685608   3.946821
    11  Cl   4.469874   3.978788   2.695436   1.699935   2.648426
    12  H    3.579682   4.066500   3.579673   2.311430   1.318497
                    6          7          8          9         10
     6  C    0.000000
     7  Cl   1.699938   0.000000
     8  Cl   2.685613   3.128319   0.000000
     9  Cl   3.968354   5.370391   3.095296   0.000000
    10  Cl   4.470250   6.169675   5.359015   3.095296   0.000000
    11  Cl   3.932497   5.276814   6.169676   5.370390   3.128317
    12  H    2.311439   2.854065   4.995757   5.765916   4.995743
                   11         12
    11  Cl   0.000000
    12  H    2.854045   0.000000
 Stoichiometry    C6HCl5
 Framework group  CS[SG(C6HCl5)]
 Deg. of freedom    21
 Full point group                 CS      NOp   2
 Largest Abelian subgroup         CS      NOp   2
 Largest concise Abelian subgroup C1      NOp   1
                         Standard orientation:                         
 ---------------------------------------------------------------------
 Center     Atomic      Atomic             Coordinates (Angstroms)
 Number     Number       Type             X           Y           Z
 ---------------------------------------------------------------------
      1          6           0       -1.204741   -0.297843   -0.000000
      2          6           0       -0.000000   -0.993482   -0.000000
      3          6           0        1.204742   -0.297838    0.000000
      4          6           0        1.191511    1.092356    0.000000
      5          6           0       -0.000001    1.754522    0.000000
      6          6           0       -1.191511    1.092353   -0.000000
      7         17           0       -2.638410    1.984694   -0.000000
      8         17           0       -2.679506   -1.143355   -0.000000
      9         17           0        0.000005   -2.692898   -0.000000
     10         17           0        2.679509   -1.143345    0.000000
     11         17           0        2.638403    1.984702    0.000000
     12          1           0        0.000006    3.073018    0.000000
 ---------------------------------------------------------------------
 Rotational constants (GHZ):           0.7123042           0.4777227           0.2859464
 Standard basis: VSTO-6G (5D, 7F)
 There are    34 symmetry adapted cartesian basis functions of A'  symmetry.
 There are    11 symmetry adapted cartesian basis functions of A"  symmetry.
 There are    34 symmetry adapted basis functions of A'  symmetry.
 There are    11 symmetry adapted basis functions of A"  symmetry.
    45 basis functions,   270 primitive gaussians,    45 cartesian basis functions
    30 alpha electrons       30 beta electrons
       nuclear repulsion energy       364.4980397403 Hartrees.
 Integral buffers will be    131072 words long.
 Regular integral format.
 Two-electron integral symmetry is turned off.
 Do NDO integrals.
 One-electron integrals computed using PRISM.
 NBasis=    45 RedAO= T EigKep=  1.00D+00  NBF=    34    11
 NBsUse=    45 1.00D-06 EigRej= -1.00D+00 NBFU=    34    11
 Initial guess from the checkpoint file:  "geometry_chks/12345ClBz.chk"
 B after Tr=     0.000000   -0.000000   -0.000000
         Rot=    1.000000    0.000000    0.000000   -0.000000 Ang=  -0.00 deg.
 Initial guess orbital symmetries:
       Occupied  (A') (A') (A') (A') (A') (A') (A') (A') (A') (A')
                 (A') (A') (A') (A') (A") (A') (A') (A") (A") (A')
                 (A") (A") (A') (A') (A') (A') (A') (A") (A") (A")
       Virtual   (A") (A") (A') (A') (A') (A') (A') (A') (A") (A')
                 (A') (A') (A') (A') (A')
 Keep J ints in memory in canonical form, NReq=865560.
 Overlap will be assumed to be unity.
 Requested convergence on RMS density matrix=1.00D-08 within  32 cycles.
 Requested convergence on MAX density matrix=1.00D-06.
 Requested convergence on             energy=1.00D-06.
 No special actions if energy rises.
 Fock symm off for IB=2 I1=    1 I=   35 J=    2 Cut=1.00D-07 Err=1.64D-03
 Fock matrix is not symmetric: symmetry in diagonalization turned off.
 SCF Done:  E(RAM1) =  0.166606880253E-01 A.U. after   12 cycles
            NFock= 11  Conv=0.70D-08     -V/T= 1.0001
 QCSCF skips out because SCF is already converged.
 Calling FoFJK, ICntrl=      2127 FMM=F ISym2X=1 I1Cent= 0 IOpClX= 0 NMat=1 NMatS=1 NMatT=0.
 ***** Axes restored to original set *****
 -------------------------------------------------------------------
 Center     Atomic                   Forces (Hartrees/Bohr)
 Number     Number              X              Y              Z
 -------------------------------------------------------------------
      1        6          -0.022871201    0.014441509   -0.000000000
      2        6          -0.000610624    0.022308456   -0.000000000
      3        6           0.022042174    0.015678771   -0.000000000
      4        6           0.034258138   -0.005098473   -0.000000000
      5        6           0.003423592   -0.124660557    0.000000000
      6        6          -0.033927216   -0.006971618    0.000000000
      7       17           0.001103136    0.000713797   -0.000000000
      8       17           0.002509299   -0.001789675   -0.000000000
      9       17           0.000057185   -0.002081551    0.000000000
     10       17          -0.002406897   -0.001924053    0.000000000
     11       17          -0.001138837    0.000651435    0.000000000
     12        1          -0.002438749    0.088731957    0.000000000
 -------------------------------------------------------------------
 Cartesian Forces:  Max     0.124660557 RMS     0.027798234

 GradGradGradGradGradGradGradGradGradGradGradGradGradGradGradGradGradGrad
 Berny optimization.
 Using GEDIIS/GDIIS optimizer.
 FormGI is forming the generalized inverse of G from B-inverse, IUseBI=4.
 Internal  Forces:  Max     0.088765465 RMS     0.015388351
 Search for a local minimum.
 Step number   3 out of a maximum of   64
 All quantities printed in internal units (Hartrees-Bohrs-Radians)
 Mixed Optimization -- RFO/linear search
 Update second derivatives using D2CorX and points    2    3
 ITU=  0  1  0
 Use linear search instead of GDIIS.
     Eigenvalues ---    0.02011   0.02011   0.02011   0.02011   0.02011
     Eigenvalues ---    0.02011   0.02011   0.02011   0.02011   0.05098
     Eigenvalues ---    0.16000   0.23488   0.24985   0.25000   0.25000
     Eigenvalues ---    0.25000   0.25000   0.25000   0.25019   0.28052
     Eigenvalues ---    0.29033   0.29033   0.29033   0.29050   0.41141
     Eigenvalues ---    0.41146   0.44641   0.44657   0.44657   0.63606
 RFO step:  Lambda=-4.17232528D-02 EMin= 2.01065877D-02
 Quartic linear search produced a step of  0.55777.
 Iteration  1 RMS(Cart)=  0.03070066 RMS(Int)=  0.07194900
 Iteration  2 RMS(Cart)=  0.02607251 RMS(Int)=  0.04473244
 Iteration  3 RMS(Cart)=  0.02605787 RMS(Int)=  0.01751594
 Iteration  4 RMS(Cart)=  0.01677015 RMS(Int)=  0.00005535
 Iteration  5 RMS(Cart)=  0.00000001 RMS(Int)=  0.00005535
 ClnCor:  largest displacement from symmetrization is 1.12D-08 for atom    10.
 Variable       Old X    -DE/DX   Delta X   Delta X   Delta X     New X
                                 (Linear)    (Quad)   (Total)
    R1        2.62890   0.02365  -0.01038   0.06386   0.05340   2.68230
    R2        2.62721   0.02331  -0.01099   0.06504   0.05405   2.68126
    R3        3.21244  -0.00306  -0.04608   0.02427  -0.02181   3.19063
    R4        2.62891   0.02365  -0.01037   0.06385   0.05339   2.68230
    R5        3.21143  -0.00208  -0.04645   0.02814  -0.01830   3.19313
    R6        2.62720   0.02331  -0.01099   0.06505   0.05405   2.68126
    R7        3.21243  -0.00306  -0.04607   0.02427  -0.02181   3.19063
    R8        2.57597   0.03628  -0.03003   0.11199   0.08204   2.65801
    R9        3.21241  -0.00131  -0.04608   0.03082  -0.01526   3.19716
   R10        2.57597   0.03628  -0.03002   0.11197   0.08203   2.65801
   R11        2.49160  -0.08877  -0.31411  -0.41460  -0.72871   1.76289
   R12        3.21242  -0.00131  -0.04608   0.03081  -0.01526   3.19715
    A1        2.08493   0.00087  -0.00354   0.00416   0.00054   2.08547
    A2        2.09737   0.00019   0.00112   0.00111   0.00227   2.09964
    A3        2.10088  -0.00106   0.00242  -0.00527  -0.00280   2.09808
    A4        2.09429   0.00391  -0.00007   0.01113   0.01089   2.10518
    A5        2.09445  -0.00196   0.00003  -0.00557  -0.00544   2.08900
    A6        2.09445  -0.00196   0.00004  -0.00557  -0.00544   2.08900
    A7        2.08493   0.00087  -0.00354   0.00416   0.00053   2.08547
    A8        2.09737   0.00019   0.00112   0.00111   0.00227   2.09964
    A9        2.10088  -0.00106   0.00242  -0.00526  -0.00280   2.09808
   A10        2.08755  -0.00166  -0.00253  -0.00147  -0.00391   2.08364
   A11        2.11391   0.00084   0.00725  -0.00439   0.00281   2.11672
   A12        2.08172   0.00082  -0.00472   0.00586   0.00109   2.08282
   A13        2.12712  -0.00233   0.01220  -0.01652  -0.00415   2.12297
   A14        2.07803   0.00117  -0.00610   0.00826   0.00208   2.08011
   A15        2.07804   0.00117  -0.00610   0.00826   0.00207   2.08011
   A16        2.08755  -0.00166  -0.00253  -0.00146  -0.00391   2.08364
   A17        2.11391   0.00084   0.00725  -0.00439   0.00281   2.11672
   A18        2.08173   0.00082  -0.00472   0.00586   0.00109   2.08282
    D1        0.00000   0.00000   0.00000   0.00000  -0.00000   0.00000
    D2        3.14159   0.00000   0.00000   0.00000   0.00000   3.14159
    D3        3.14159  -0.00000   0.00000  -0.00000   0.00000   3.14159
    D4        0.00000   0.00000   0.00000   0.00000   0.00000   0.00000
    D5       -0.00000  -0.00000   0.00000  -0.00000   0.00000   0.00000
    D6        3.14159  -0.00000   0.00000  -0.00000   0.00000   3.14159
    D7        3.14159   0.00000   0.00000   0.00000   0.00000   3.14159
    D8        0.00000   0.00000   0.00000   0.00000   0.00000   0.00000
    D9        0.00000   0.00000   0.00000   0.00000  -0.00000   0.00000
   D10        3.14159   0.00000   0.00000   0.00000   0.00000   3.14159
   D11        3.14159  -0.00000   0.00000  -0.00000   0.00000   3.14159
   D12        0.00000  -0.00000   0.00000  -0.00000  -0.00000   0.00000
   D13        0.00000  -0.00000   0.00000  -0.00000   0.00000   0.00000
   D14        3.14159   0.00000   0.00000   0.00000   0.00000   3.14159
   D15        3.14159  -0.00000   0.00000  -0.00000   0.00000   3.14159
   D16        0.00000  -0.00000   0.00000  -0.00000   0.00000   0.00000
   D17       -0.00000   0.00000   0.00000   0.00000   0.00000   0.00000
   D18        3.14159   0.00000   0.00000   0.00000   0.00000   3.14159
   D19        3.14159  -0.00000   0.00000  -0.00000   0.00000   3.14159
   D20       -0.00000   0.00000   0.00000   0.00000   0.00000   0.00000
   D21        0.00000  -0.00000   0.00000  -0.00000   0.00000   0.00000
   D22        3.14159   0.00000   0.00000  -0.00000   0.00000   3.14159
   D23        3.14159  -0.00000   0.00000  -0.00000   0.00000   3.14159
   D24       -0.00000  -0.00000   0.00000  -0.00000   0.00000   0.00000
         Item               Value     Threshold  Converged?
 Maximum Force            0.088765     0.000450     NO 
 RMS     Force            0.015388     0.000300     NO 
 Maximum Displacement     0.600212     0.001800     NO 
 RMS     Displacement     0.089188     0.001200     NO 
 Predicted change in Energy=-5.868320D-02
 GradGradGradGradGradGradGradGradGradGradGradGradGradGradGradGradGradGrad

                          Input orientation:                          
 ---------------------------------------------------------------------
 Center     Atomic      Atomic             Coordinates (Angstroms)
 Number     Number       Type             X           Y           Z
 ---------------------------------------------------------------------
      1          6           0       -3.223332    0.146072   -0.000000
      2          6           0       -2.010048    0.882735   -0.000000
      3          6           0       -0.758149    0.213795    0.000000
      4          6           0       -0.724203   -1.204660    0.000000
      5          6           0       -1.932948   -1.923929    0.000000
      6          6           0       -3.179353   -1.272106   -0.000000
      7         17           0       -4.597376   -2.194931   -0.000000
      8         17           0       -4.708047    0.950023   -0.000000
      9         17           0       -2.056448    2.571828   -0.000000
     10         17           0        0.680188    1.098048    0.000000
     11         17           0        0.742344   -2.048246    0.000000
     12          1           0       -1.907329   -2.856458    0.000000
 ---------------------------------------------------------------------
                    Distance matrix (angstroms):
                    1          2          3          4          5
     1  C    0.000000
     2  C    1.419412   0.000000
     3  C    2.466112   1.419412   0.000000
     4  C    2.840796   2.451655   1.418861   0.000000
     5  C    2.439261   2.807723   2.439265   1.406560   0.000000
     6  C    1.418860   2.451656   2.840797   2.456076   1.406556
     7  Cl   2.714461   4.020734   4.532287   3.997763   2.678175
     8  Cl   1.688406   2.698838   4.017925   4.529202   3.995094
     9  Cl   2.691822   1.689730   2.691821   4.004589   4.497453
    10  Cl   4.017926   2.698838   1.688407   2.697180   3.995100
    11  Cl   4.532286   4.020735   2.714462   1.691862   2.678178
    12  H    3.278270   3.740604   3.278272   2.031803   0.932881
                    6          7          8          9         10
     6  C    0.000000
     7  Cl   1.691861   0.000000
     8  Cl   2.697177   3.146901   0.000000
     9  Cl   4.004591   5.401695   3.108252   0.000000
    10  Cl   4.529204   6.220643   5.390268   3.108248   0.000000
    11  Cl   3.997762   5.341734   6.220641   5.401695   3.146907
    12  H    2.031801   2.770193   4.725814   5.430334   4.725819
                   11         12
    11  Cl   0.000000
    12  H    2.770194   0.000000
 Stoichiometry    C6HCl5
 Framework group  CS[SG(C6HCl5)]
 Deg. of freedom    21
 Full point group                 CS      NOp   2
 Largest Abelian subgroup         CS      NOp   2
 Largest concise Abelian subgroup C1      NOp   1
                         Standard orientation:                         
 ---------------------------------------------------------------------
 Center     Atomic      Atomic             Coordinates (Angstroms)
 Number     Number       Type             X           Y           Z
 ---------------------------------------------------------------------
      1          6           0       -1.233056   -0.306283   -0.000000
      2          6           0       -0.000001   -1.009351   -0.000000
      3          6           0        1.233056   -0.306286    0.000000
      4          6           0        1.228039    1.112566    0.000000
      5          6           0       -0.000001    1.798371    0.000000
      6          6           0       -1.228037    1.112568   -0.000000
      7         17           0       -2.670866    1.996106   -0.000000
      8         17           0       -2.695135   -1.150701   -0.000000
      9         17           0       -0.000001   -2.699081   -0.000000
     10         17           0        2.695133   -1.150709    0.000000
     11         17           0        2.670868    1.996105    0.000000
     12          1           0        0.000001    2.731253    0.000000
 ---------------------------------------------------------------------
 Rotational constants (GHZ):           0.7053685           0.4681183           0.2813802
 Standard basis: VSTO-6G (5D, 7F)
 There are    34 symmetry adapted cartesian basis functions of A'  symmetry.
 There are    11 symmetry adapted cartesian basis functions of A"  symmetry.
 There are    34 symmetry adapted basis functions of A'  symmetry.
 There are    11 symmetry adapted basis functions of A"  symmetry.
    45 basis functions,   270 primitive gaussians,    45 cartesian basis functions
    30 alpha electrons       30 beta electrons
       nuclear repulsion energy       363.2456400894 Hartrees.
 Integral buffers will be    131072 words long.
 Regular integral format.
 Two-electron integral symmetry is turned off.
 Do NDO integrals.
 One-electron integrals computed using PRISM.
 NBasis=    45 RedAO= T EigKep=  1.00D+00  NBF=    34    11
 NBsUse=    45 1.00D-06 EigRej= -1.00D+00 NBFU=    34    11
 Initial guess from the checkpoint file:  "geometry_chks/12345ClBz.chk"
 B after Tr=    -0.000000    0.000000   -0.000000
         Rot=    1.000000    0.000000    0.000000    0.000001 Ang=   0.00 deg.
 Initial guess orbital symmetries:
       Occupied  (A') (A') (A') (A') (A') (A') (A') (A') (A') (A')
                 (A') (A') (A') (A') (A") (A') (A') (A") (A") (A')
                 (A") (A") (A') (A') (A') (A') (A') (A") (A") (A")
       Virtual   (A") (A") (A') (A') (A') (A') (A') (A") (A') (A')
                 (A') (A') (A') (A') (A')
 Keep J ints in memory in canonical form, NReq=865560.
 Overlap will be assumed to be unity.
 Requested convergence on RMS density matrix=1.00D-08 within  32 cycles.
 Requested convergence on MAX density matrix=1.00D-06.
 Requested convergence on             energy=1.00D-06.
 No special actions if energy rises.
 Fock symm off for IB=2 I1=    1 I=   35 J=   14 Cut=1.00D-07 Err=1.26D-03
 Fock matrix is not symmetric: symmetry in diagonalization turned off.
 SCF Done:  E(RAM1) =  0.172608951926E-01 A.U. after   13 cycles
            NFock= 12  Conv=0.24D-08     -V/T= 1.0001
 QCSCF skips out because SCF is already converged.
 Calling FoFJK, ICntrl=      2127 FMM=F ISym2X=1 I1Cent= 0 IOpClX= 0 NMat=1 NMatS=1 NMatT=0.
 ***** Axes restored to original set *****
 -------------------------------------------------------------------
 Center     Atomic                   Forces (Hartrees/Bohr)
 Number     Number              X              Y              Z
 -------------------------------------------------------------------
      1        6           0.015040613   -0.009020326   -0.000000000
      2        6           0.000492640   -0.017946317   -0.000000000
      3        6          -0.014522111   -0.009833893   -0.000000000
      4        6          -0.012429152    0.021507272   -0.000000000
      5        6          -0.004301284    0.156679675   -0.000000000
      6        6           0.011227680    0.022157997    0.000000000
      7       17           0.001900899    0.001497855    0.000000000
      8       17           0.000433593   -0.000269966    0.000000000
      9       17           0.000000001   -0.000007469    0.000000000
     10       17          -0.000418543   -0.000294084    0.000000000
     11       17          -0.001980974    0.001391731    0.000000000
     12        1           0.004556639   -0.165862474    0.000000000
 -------------------------------------------------------------------
 Cartesian Forces:  Max     0.165862474 RMS     0.038830818

 GradGradGradGradGradGradGradGradGradGradGradGradGradGradGradGradGradGrad
 Berny optimization.
 Using GEDIIS/GDIIS optimizer.
 FormGI is forming the generalized inverse of G from B-inverse, IUseBI=4.
 Internal  Forces:  Max     0.165925053 RMS     0.023349037
 Search for a local minimum.
 Step number   4 out of a maximum of   64
 All quantities printed in internal units (Hartrees-Bohrs-Radians)
 Mixed Optimization -- RFO/linear search
 Update second derivatives using D2CorX and points    2    4    3
 DE=  6.00D-04 DEPred=-5.87D-02 R=-1.02D-02
 Trust test=-1.02D-02 RLast= 7.47D-01 DXMaxT set to 2.52D-01
 ITU= -1  0  1  0
 Use linear search instead of GDIIS.
     Eigenvalues ---    0.02011   0.02011   0.02011   0.02011   0.02011
     Eigenvalues ---    0.02011   0.02011   0.02011   0.02011   0.16000
     Eigenvalues ---    0.23167   0.24978   0.25000   0.25000   0.25000
     Eigenvalues ---    0.25000   0.25000   0.25014   0.27814   0.29029
     Eigenvalues ---    0.29033   0.29033   0.29048   0.33610   0.41303
     Eigenvalues ---    0.42210   0.44657   0.44657   0.44982   0.55930
 RFO step:  Lambda=-2.03514282D-03 EMin= 2.01065883D-02
 Quartic linear search produced a step of -0.44218.
 Iteration  1 RMS(Cart)=  0.03049229 RMS(Int)=  0.01861039
 Iteration  2 RMS(Cart)=  0.01779877 RMS(Int)=  0.00000264
 Iteration  3 RMS(Cart)=  0.00000004 RMS(Int)=  0.00000264
 ClnCor:  largest displacement from symmetrization is 7.22D-09 for atom    10.
 Variable       Old X    -DE/DX   Delta X   Delta X   Delta X     New X
                                 (Linear)    (Quad)   (Total)
    R1        2.68230  -0.01963  -0.02361   0.00446  -0.01915   2.66315
    R2        2.68126  -0.01868  -0.02390   0.00695  -0.01695   2.66431
    R3        3.19063  -0.00051   0.00964  -0.01557  -0.00593   3.18470
    R4        2.68230  -0.01963  -0.02361   0.00446  -0.01915   2.66315
    R5        3.19313  -0.00001   0.00809  -0.01238  -0.00429   3.18884
    R6        2.68126  -0.01869  -0.02390   0.00695  -0.01695   2.66431
    R7        3.19063  -0.00051   0.00964  -0.01557  -0.00593   3.18470
    R8        2.65801  -0.00781  -0.03628   0.03693   0.00065   2.65866
    R9        3.19716  -0.00241   0.00675  -0.01511  -0.00836   3.18879
   R10        2.65801  -0.00781  -0.03627   0.03693   0.00065   2.65866
   R11        1.76289   0.16593   0.32222   0.01454   0.33676   2.09965
   R12        3.19715  -0.00241   0.00675  -0.01511  -0.00836   3.18879
    A1        2.08547   0.00116  -0.00024   0.00139   0.00116   2.08663
    A2        2.09964  -0.00053  -0.00100   0.00109   0.00009   2.09973
    A3        2.09808  -0.00063   0.00124  -0.00248  -0.00125   2.09683
    A4        2.10518  -0.00041  -0.00482   0.00346  -0.00135   2.10383
    A5        2.08900   0.00020   0.00241  -0.00173   0.00067   2.08968
    A6        2.08900   0.00020   0.00241  -0.00173   0.00067   2.08968
    A7        2.08547   0.00116  -0.00024   0.00139   0.00116   2.08663
    A8        2.09964  -0.00053  -0.00100   0.00109   0.00009   2.09973
    A9        2.09808  -0.00063   0.00124  -0.00248  -0.00125   2.09683
   A10        2.08364   0.00512   0.00173   0.01056   0.01228   2.09592
   A11        2.11672  -0.00291  -0.00124  -0.00507  -0.00631   2.11041
   A12        2.08282  -0.00221  -0.00048  -0.00548  -0.00597   2.07685
   A13        2.12297  -0.01216   0.00183  -0.02736  -0.02553   2.09744
   A14        2.08011   0.00608  -0.00092   0.01368   0.01277   2.09287
   A15        2.08011   0.00608  -0.00091   0.01367   0.01276   2.09287
   A16        2.08364   0.00512   0.00173   0.01055   0.01228   2.09592
   A17        2.11672  -0.00291  -0.00124  -0.00507  -0.00631   2.11041
   A18        2.08282  -0.00221  -0.00048  -0.00548  -0.00597   2.07685
    D1       -0.00000   0.00000   0.00000   0.00000   0.00000   0.00000
    D2        3.14159   0.00000   0.00000   0.00000   0.00000   3.14159
    D3        3.14159  -0.00000   0.00000  -0.00000   0.00000   3.14159
    D4       -0.00000   0.00000   0.00000   0.00000   0.00000   0.00000
    D5        0.00000  -0.00000   0.00000  -0.00000  -0.00000   0.00000
    D6        3.14159  -0.00000   0.00000  -0.00000   0.00000   3.14159
    D7        3.14159   0.00000   0.00000   0.00000   0.00000   3.14159
    D8        0.00000   0.00000   0.00000   0.00000   0.00000   0.00000
    D9       -0.00000  -0.00000   0.00000  -0.00000   0.00000   0.00000
   D10        3.14159   0.00000   0.00000   0.00000   0.00000   3.14159
   D11        3.14159  -0.00000   0.00000  -0.00000   0.00000   3.14159
   D12       -0.00000   0.00000   0.00000   0.00000   0.00000   0.00000
   D13        0.00000  -0.00000   0.00000  -0.00000   0.00000   0.00000
   D14        3.14159   0.00000   0.00000   0.00000   0.00000   3.14159
   D15        3.14159  -0.00000   0.00000  -0.00000   0.00000   3.14159
   D16       -0.00000  -0.00000   0.00000  -0.00000   0.00000   0.00000
   D17       -0.00000   0.00000   0.00000   0.00000   0.00000   0.00000
   D18        3.14159   0.00000   0.00000   0.00000   0.00000   3.14159
   D19        3.14159  -0.00000   0.00000  -0.00000   0.00000   3.14159
   D20        0.00000  -0.00000   0.00000  -0.00000   0.00000   0.00000
   D21       -0.00000   0.00000   0.00000  -0.00000   0.00000   0.00000
   D22        3.14159   0.00000   0.00000   0.00000   0.00000   3.14159
   D23        3.14159  -0.00000   0.00000  -0.00000   0.00000   3.14159
   D24        0.00000  -0.00000   0.00000  -0.00000   0.00000   0.00000
         Item               Value     Threshold  Converged?
 Maximum Force            0.165925     0.000450     NO 
 RMS     Force            0.023349     0.000300     NO 
 Maximum Displacement     0.326260     0.001800     NO 
 RMS     Displacement     0.047587     0.001200     NO 
 Predicted change in Energy=-3.657944D-02
 GradGradGradGradGradGradGradGradGradGradGradGradGradGradGradGradGradGrad

                          Input orientation:                          
 ---------------------------------------------------------------------
 Center     Atomic      Atomic             Coordinates (Angstroms)
 Number     Number       Type             X           Y           Z
 ---------------------------------------------------------------------
      1          6           0       -3.214401    0.158636   -0.000000
      2          6           0       -2.010271    0.890851    0.000000
      3          6           0       -0.767757    0.225849    0.000000
      4          6           0       -0.733339   -1.183621    0.000000
      5          6           0       -1.933097   -1.918441   -0.000000
      6          6           0       -3.171386   -1.250598   -0.000000
      7         17           0       -4.591925   -2.161371   -0.000000
      8         17           0       -4.696965    0.959967   -0.000000
      9         17           0       -2.056609    2.577675    0.000000
     10         17           0        0.668578    1.107366    0.000000
     11         17           0        0.735059   -2.015034    0.000000
     12          1           0       -1.902587   -3.029108   -0.000000
 ---------------------------------------------------------------------
                    Distance matrix (angstroms):
                    1          2          3          4          5
     1  C    0.000000
     2  C    1.409279   0.000000
     3  C    2.447567   1.409279   0.000000
     4  C    2.820872   2.435978   1.409890   0.000000
     5  C    2.440489   2.810351   2.440491   1.406905   0.000000
     6  C    1.409890   2.435978   2.820874   2.438967   1.406902
     7  Cl   2.698149   3.997624   4.508113   3.980538   2.669903
     8  Cl   1.685268   2.687584   3.997200   4.506140   3.990513
     9  Cl   2.681833   1.687460   2.681833   3.987278   4.497812
    10  Cl   3.997201   2.687584   1.685269   2.685888   3.990517
    11  Cl   4.508112   3.997624   2.698150   1.687436   2.669905
    12  H    3.447110   3.921437   3.447112   2.184711   1.111085
                    6          7          8          9         10
     6  C    0.000000
     7  Cl   1.687436   0.000000
     8  Cl   2.685887   3.123105   0.000000
     9  Cl   3.987279   5.374605   3.096524   0.000000
    10  Cl   4.506143   6.193347   5.367568   3.096523   0.000000
    11  Cl   3.980538   5.328994   6.193345   5.374606   3.123108
    12  H    2.184708   2.825864   4.870448   5.608897   4.870452
                   11         12
    11  Cl   0.000000
    12  H    2.825867   0.000000
 Stoichiometry    C6HCl5
 Framework group  CS[SG(C6HCl5)]
 Deg. of freedom    21
 Full point group                 CS      NOp   2
 Largest Abelian subgroup         CS      NOp   2
 Largest concise Abelian subgroup C1      NOp   1
                         Standard orientation:                         
 ---------------------------------------------------------------------
 Center     Atomic      Atomic             Coordinates (Angstroms)
 Number     Number       Type             X           Y           Z
 ---------------------------------------------------------------------
      1          6           0       -0.303232    1.223783    0.000000
      2          6           0       -1.002104   -0.000000   -0.000000
      3          6           0       -0.303232   -1.223784   -0.000000
      4          6           0        1.106651   -1.219483   -0.000000
      5          6           0        1.808247    0.000002    0.000000
      6          6           0        1.106651    1.219484    0.000000
      7         17           0        1.978072    2.664498    0.000000
      8         17           0       -1.144974    2.683783    0.000000
      9         17           0       -2.689564   -0.000001   -0.000000
     10         17           0       -1.144974   -2.683785   -0.000000
     11         17           0        1.978074   -2.664496   -0.000000
     12          1           0        2.919333    0.000003    0.000000
 ---------------------------------------------------------------------
 Rotational constants (GHZ):           0.7120949           0.4714793           0.2836645
 Standard basis: VSTO-6G (5D, 7F)
 There are    34 symmetry adapted cartesian basis functions of A'  symmetry.
 There are    11 symmetry adapted cartesian basis functions of A"  symmetry.
 There are    34 symmetry adapted basis functions of A'  symmetry.
 There are    11 symmetry adapted basis functions of A"  symmetry.
    45 basis functions,   270 primitive gaussians,    45 cartesian basis functions
    30 alpha electrons       30 beta electrons
       nuclear repulsion energy       363.6866420631 Hartrees.
 Integral buffers will be    131072 words long.
 Regular integral format.
 Two-electron integral symmetry is turned off.
 Do NDO integrals.
 One-electron integrals computed using PRISM.
 NBasis=    45 RedAO= T EigKep=  1.00D+00  NBF=    34    11
 NBsUse=    45 1.00D-06 EigRej= -1.00D+00 NBFU=    34    11
 Lowest energy guess from the checkpoint file:  "geometry_chks/12345ClBz.chk"
 B after Tr=    -0.000000    0.000000    0.000000
         Rot=    0.707106   -0.000000    0.000000    0.707107 Ang=  90.00 deg.
 B after Tr=    -0.000000   -0.000000    0.000000
         Rot=    0.707107   -0.000000    0.000000    0.707106 Ang=  90.00 deg.
 Initial guess orbital symmetries:
       Occupied  (A') (A') (A") (A') (A') (A') (A') (A') (A") (A")
                 (A') (A') (A') (A') (A') (A") (A") (A") (A") (A")
                 (A") (A") (A") (A") (A") (A") (A") (A") (A") (A")
       Virtual   (A') (A') (A") (A') (A') (A') (A') (A') (A") (A")
                 (A') (A') (A') (A') (A')
 Keep J ints in memory in canonical form, NReq=865560.
 Overlap will be assumed to be unity.
 Requested convergence on RMS density matrix=1.00D-08 within  32 cycles.
 Requested convergence on MAX density matrix=1.00D-06.
 Requested convergence on             energy=1.00D-06.
 No special actions if energy rises.
 An orbital has undefined symmetry, so N**3 symmetry is turned off.
 SCF Done:  E(RAM1) = -0.746777575301E-02 A.U. after   11 cycles
            NFock= 10  Conv=0.99D-08     -V/T= 1.0000
 QCSCF skips out because SCF is already converged.
 Calling FoFJK, ICntrl=      2127 FMM=F ISym2X=1 I1Cent= 0 IOpClX= 0 NMat=1 NMatS=1 NMatT=0.
 ***** Axes restored to original set *****
 -------------------------------------------------------------------
 Center     Atomic                   Forces (Hartrees/Bohr)
 Number     Number              X              Y              Z
 -------------------------------------------------------------------
      1        6           0.007834389   -0.006390130   -0.000000000
      2        6           0.000207114   -0.007546071   -0.000000000
      3        6          -0.007471409   -0.006810913   -0.000000000
      4        6          -0.015395272    0.001937000   -0.000000000
      5        6          -0.000184264    0.006764325   -0.000000000
      6        6           0.015264773    0.002780249    0.000000000
      7       17          -0.001608412   -0.001791325    0.000000000
      8       17          -0.002854804    0.001554041    0.000000000
      9       17          -0.000088260    0.003210934    0.000000000
     10       17           0.002764712    0.001707935    0.000000000
     11       17           0.001703900   -0.001700083    0.000000000
     12        1          -0.000172466    0.006284040    0.000000000
 -------------------------------------------------------------------
 Cartesian Forces:  Max     0.015395272 RMS     0.004919517

 GradGradGradGradGradGradGradGradGradGradGradGradGradGradGradGradGradGrad
 Berny optimization.
 Using GEDIIS/GDIIS optimizer.
 FormGI is forming the generalized inverse of G from B-inverse, IUseBI=4.
 Internal  Forces:  Max     0.014376867 RMS     0.003578373
 Search for a local minimum.
 Step number   5 out of a maximum of   64
 All quantities printed in internal units (Hartrees-Bohrs-Radians)
 Mixed Optimization -- RFO/linear search
 Update second derivatives using D2CorX and points    4    3    5
 DE= -2.41D-02 DEPred=-3.66D-02 R= 6.60D-01
 TightC=F SS=  1.41D+00  RLast= 4.21D-01 DXNew= 4.2426D-01 1.2632D+00
 Trust test= 6.60D-01 RLast= 4.21D-01 DXMaxT set to 4.24D-01
 ITU=  1 -1  0  1  0
 Use linear search instead of GDIIS.
     Eigenvalues ---    0.02011   0.02011   0.02011   0.02011   0.02011
     Eigenvalues ---    0.02011   0.02011   0.02011   0.02011   0.16000
     Eigenvalues ---    0.19024   0.24896   0.24987   0.25000   0.25000
     Eigenvalues ---    0.25000   0.25000   0.25003   0.25078   0.29029
     Eigenvalues ---    0.29033   0.29033   0.29046   0.29661   0.41241
     Eigenvalues ---    0.41675   0.44657   0.44657   0.44746   0.67768
 RFO step:  Lambda=-1.37954958D-03 EMin= 2.01065887D-02
 Quartic linear search produced a step of -0.02051.
 Iteration  1 RMS(Cart)=  0.00985589 RMS(Int)=  0.00001479
 Iteration  2 RMS(Cart)=  0.00002119 RMS(Int)=  0.00000058
 Iteration  3 RMS(Cart)=  0.00000000 RMS(Int)=  0.00000058
 ClnCor:  largest displacement from symmetrization is 2.24D-10 for atom    10.
 Variable       Old X    -DE/DX   Delta X   Delta X   Delta X     New X
                                 (Linear)    (Quad)   (Total)
    R1        2.66315  -0.00602  -0.00070  -0.00850  -0.00920   2.65395
    R2        2.66431  -0.00714  -0.00076  -0.01117  -0.01194   2.65237
    R3        3.18470   0.00325   0.00057   0.01261   0.01318   3.19788
    R4        2.66315  -0.00602  -0.00070  -0.00850  -0.00920   2.65395
    R5        3.18884   0.00321   0.00046   0.01301   0.01347   3.20231
    R6        2.66431  -0.00714  -0.00076  -0.01118  -0.01194   2.65237
    R7        3.18470   0.00325   0.00057   0.01261   0.01318   3.19788
    R8        2.65866  -0.01438  -0.00170  -0.02066  -0.02235   2.63631
    R9        3.18879   0.00232   0.00048   0.00996   0.01044   3.19924
   R10        2.65866  -0.01437  -0.00170  -0.02065  -0.02235   2.63631
   R11        2.09965  -0.00629   0.00804  -0.04444  -0.03640   2.06325
   R12        3.18879   0.00232   0.00048   0.00996   0.01044   3.19924
    A1        2.08663  -0.00073  -0.00003  -0.00085  -0.00088   2.08574
    A2        2.09973   0.00035  -0.00005   0.00073   0.00069   2.10041
    A3        2.09683   0.00038   0.00008   0.00011   0.00020   2.09703
    A4        2.10383  -0.00239  -0.00020  -0.00553  -0.00572   2.09811
    A5        2.08968   0.00119   0.00010   0.00276   0.00286   2.09254
    A6        2.08968   0.00119   0.00010   0.00276   0.00286   2.09254
    A7        2.08663  -0.00073  -0.00003  -0.00084  -0.00088   2.08574
    A8        2.09973   0.00035  -0.00005   0.00073   0.00069   2.10041
    A9        2.09683   0.00038   0.00008   0.00011   0.00019   2.09703
   A10        2.09592   0.00149  -0.00017   0.00565   0.00548   2.10140
   A11        2.11041   0.00028   0.00007   0.00035   0.00042   2.11083
   A12        2.07685  -0.00177   0.00010  -0.00600  -0.00590   2.07095
   A13        2.09744   0.00086   0.00061  -0.00408  -0.00347   2.09397
   A14        2.09287  -0.00043  -0.00030   0.00204   0.00174   2.09461
   A15        2.09287  -0.00043  -0.00030   0.00204   0.00174   2.09461
   A16        2.09592   0.00149  -0.00017   0.00565   0.00548   2.10140
   A17        2.11041   0.00028   0.00007   0.00035   0.00042   2.11083
   A18        2.07685  -0.00177   0.00010  -0.00600  -0.00590   2.07095
    D1        0.00000   0.00000   0.00000   0.00000  -0.00000   0.00000
    D2        3.14159   0.00000   0.00000   0.00000   0.00000   3.14159
    D3        3.14159  -0.00000   0.00000  -0.00000   0.00000   3.14159
    D4       -0.00000   0.00000   0.00000   0.00000   0.00000   0.00000
    D5       -0.00000  -0.00000   0.00000  -0.00000   0.00000   0.00000
    D6        3.14159  -0.00000   0.00000  -0.00000   0.00000   3.14159
    D7        3.14159   0.00000   0.00000   0.00000   0.00000   3.14159
    D8        0.00000   0.00000   0.00000   0.00000   0.00000   0.00000
    D9        0.00000  -0.00000   0.00000  -0.00000   0.00000   0.00000
   D10        3.14159   0.00000   0.00000   0.00000   0.00000   3.14159
[...]
 TightC=F SS=  1.41D+00  RLast= 6.05D-03 DXNew= 7.1352D-01 1.8156D-02
 Trust test= 9.72D-01 RLast= 6.05D-03 DXMaxT set to 4.24D-01
 ITU=  1  1  1  1 -1  0  1  0
     Eigenvalues ---    0.02011   0.02011   0.02011   0.02011   0.02011
     Eigenvalues ---    0.02011   0.02011   0.02011   0.02011   0.16000
     Eigenvalues ---    0.21019   0.24870   0.25000   0.25000   0.25000
     Eigenvalues ---    0.25000   0.25018   0.25204   0.28450   0.29016
     Eigenvalues ---    0.29033   0.29033   0.30811   0.34718   0.41197
     Eigenvalues ---    0.41774   0.44657   0.44657   0.45883   0.70318
 En-DIIS/RFO-DIIS/Sim-DIIS IScMMF=       -3 using points:     8    7
 RFO step:  Lambda=-2.38399238D-07.
 DidBck=F Rises=F RFO-DIIS coefs:    0.97903    0.02097
 Iteration  1 RMS(Cart)=  0.00018246 RMS(Int)=  0.00000001
 Iteration  2 RMS(Cart)=  0.00000001 RMS(Int)=  0.00000000
 ClnCor:  largest displacement from symmetrization is 8.14D-12 for atom    12.
 Variable       Old X    -DE/DX   Delta X   Delta X   Delta X     New X
                                 (Linear)    (Quad)   (Total)
    R1        2.65545   0.00010  -0.00001   0.00027   0.00026   2.65572
    R2        2.65338   0.00006   0.00000   0.00012   0.00012   2.65351
    R3        3.19599   0.00007   0.00002   0.00016   0.00019   3.19618
    R4        2.65545   0.00010  -0.00001   0.00027   0.00026   2.65572
    R5        3.19850   0.00004   0.00003   0.00006   0.00009   3.19858
    R6        2.65338   0.00006   0.00000   0.00012   0.00012   2.65351
    R7        3.19599   0.00007   0.00002   0.00016   0.00019   3.19618
    R8        2.63867  -0.00012  -0.00003  -0.00020  -0.00023   2.63844
    R9        3.20078   0.00002   0.00001   0.00003   0.00005   3.20083
   R10        2.63867  -0.00012  -0.00003  -0.00020  -0.00023   2.63844
   R11        2.08430  -0.00000   0.00010  -0.00015  -0.00005   2.08425
   R12        3.20078   0.00002   0.00001   0.00003   0.00005   3.20083
    A1        2.08597  -0.00002  -0.00000  -0.00002  -0.00002   2.08595
    A2        2.09930  -0.00002   0.00000  -0.00009  -0.00009   2.09921
    A3        2.09791   0.00003   0.00000   0.00011   0.00011   2.09802
    A4        2.09834  -0.00008  -0.00000  -0.00022  -0.00022   2.09811
    A5        2.09242   0.00004   0.00000   0.00011   0.00011   2.09254
    A6        2.09242   0.00004   0.00000   0.00011   0.00011   2.09254
    A7        2.08597  -0.00002  -0.00000  -0.00002  -0.00002   2.08595
    A8        2.09930  -0.00002   0.00000  -0.00009  -0.00009   2.09921
    A9        2.09791   0.00003   0.00000   0.00011   0.00011   2.09802
   A10        2.10083   0.00005  -0.00001   0.00018   0.00018   2.10100
   A11        2.11080   0.00001   0.00001   0.00001   0.00002   2.11082
   A12        2.07156  -0.00006  -0.00000  -0.00020  -0.00020   2.07136
   A13        2.09444   0.00000   0.00002  -0.00011  -0.00009   2.09435
   A14        2.09437  -0.00000  -0.00001   0.00006   0.00005   2.09442
   A15        2.09437  -0.00000  -0.00001   0.00006   0.00005   2.09442
   A16        2.10083   0.00005  -0.00001   0.00018   0.00018   2.10100
   A17        2.11080   0.00001   0.00001   0.00001   0.00002   2.11082
   A18        2.07156  -0.00006  -0.00000  -0.00020  -0.00020   2.07136
    D1       -0.00000   0.00000   0.00000   0.00000   0.00000   0.00000
    D2        3.14159   0.00000   0.00000   0.00000   0.00000   3.14159
    D3        3.14159  -0.00000   0.00000  -0.00000   0.00000   3.14159
    D4        0.00000   0.00000   0.00000   0.00000  -0.00000   0.00000
    D5        0.00000   0.00000   0.00000   0.00000  -0.00000   0.00000
    D6        3.14159  -0.00000   0.00000  -0.00000   0.00000   3.14159
    D7        3.14159   0.00000   0.00000   0.00000   0.00000   3.14159
    D8       -0.00000   0.00000   0.00000   0.00000   0.00000   0.00000
    D9       -0.00000  -0.00000   0.00000  -0.00000   0.00000   0.00000
   D10        3.14159   0.00000   0.00000   0.00000   0.00000   3.14159
   D11        3.14159  -0.00000   0.00000  -0.00000   0.00000   3.14159
   D12        0.00000   0.00000   0.00000   0.00000  -0.00000   0.00000
   D13        0.00000  -0.00000   0.00000  -0.00000   0.00000   0.00000
   D14        3.14159   0.00000   0.00000   0.00000   0.00000   3.14159
   D15        3.14159  -0.00000   0.00000  -0.00000   0.00000   3.14159
   D16       -0.00000  -0.00000   0.00000  -0.00000   0.00000   0.00000
   D17       -0.00000   0.00000   0.00000   0.00000   0.00000   0.00000
   D18        3.14159   0.00000   0.00000   0.00000   0.00000   3.14159
   D19        3.14159  -0.00000   0.00000  -0.00000   0.00000   3.14159
   D20        0.00000   0.00000   0.00000   0.00000   0.00000   0.00000
   D21       -0.00000  -0.00000   0.00000  -0.00000   0.00000   0.00000
   D22        3.14159   0.00000   0.00000   0.00000   0.00000   3.14159
   D23        3.14159  -0.00000   0.00000  -0.00000   0.00000   3.14159
   D24        0.00000  -0.00000   0.00000  -0.00000   0.00000   0.00000
         Item               Value     Threshold  Converged?
 Maximum Force            0.000125     0.000450     YES
 RMS     Force            0.000042     0.000300     YES
 Maximum Displacement     0.000530     0.001800     YES
 RMS     Displacement     0.000182     0.001200     YES
 Predicted change in Energy=-1.191989D-07
 Optimization completed.
    -- Stationary point found.
                           ----------------------------
                           !   Optimized Parameters   !
                           ! (Angstroms and Degrees)  !
 --------------------------                            --------------------------
 ! Name  Definition              Value          Derivative Info.                !
 --------------------------------------------------------------------------------
 ! R1    R(1,2)                  1.4052         -DE/DX =    0.0001              !
 ! R2    R(1,6)                  1.4041         -DE/DX =    0.0001              !
 ! R3    R(1,8)                  1.6912         -DE/DX =    0.0001              !
 ! R4    R(2,3)                  1.4052         -DE/DX =    0.0001              !
 ! R5    R(2,9)                  1.6926         -DE/DX =    0.0                 !
 ! R6    R(3,4)                  1.4041         -DE/DX =    0.0001              !
 ! R7    R(3,10)                 1.6912         -DE/DX =    0.0001              !
 ! R8    R(4,5)                  1.3963         -DE/DX =   -0.0001              !
 ! R9    R(4,11)                 1.6938         -DE/DX =    0.0                 !
 ! R10   R(5,6)                  1.3963         -DE/DX =   -0.0001              !
 ! R11   R(5,12)                 1.103          -DE/DX =    0.0                 !
 ! R12   R(6,7)                  1.6938         -DE/DX =    0.0                 !
 ! A1    A(2,1,6)              119.5174         -DE/DX =    0.0                 !
 ! A2    A(2,1,8)              120.2813         -DE/DX =    0.0                 !
 ! A3    A(6,1,8)              120.2013         -DE/DX =    0.0                 !
 ! A4    A(1,2,3)              120.2258         -DE/DX =   -0.0001              !
 ! A5    A(1,2,9)              119.8871         -DE/DX =    0.0                 !
 ! A6    A(3,2,9)              119.8871         -DE/DX =    0.0                 !
 ! A7    A(2,3,4)              119.5174         -DE/DX =    0.0                 !
 ! A8    A(2,3,10)             120.2813         -DE/DX =    0.0                 !
 ! A9    A(4,3,10)             120.2013         -DE/DX =    0.0                 !
 ! A10   A(3,4,5)              120.3685         -DE/DX =    0.0001              !
 ! A11   A(3,4,11)             120.9397         -DE/DX =    0.0                 !
 ! A12   A(5,4,11)             118.6919         -DE/DX =   -0.0001              !
 ! A13   A(4,5,6)              120.0025         -DE/DX =    0.0                 !
 ! A14   A(4,5,12)             119.9988         -DE/DX =    0.0                 !
 ! A15   A(6,5,12)             119.9988         -DE/DX =    0.0                 !
 ! A16   A(1,6,5)              120.3684         -DE/DX =    0.0001              !
 ! A17   A(1,6,7)              120.9397         -DE/DX =    0.0                 !
 ! A18   A(5,6,7)              118.6919         -DE/DX =   -0.0001              !
 ! D1    D(6,1,2,3)              0.0            -DE/DX =    0.0                 !
 ! D2    D(6,1,2,9)            180.0            -DE/DX =    0.0                 !
 ! D3    D(8,1,2,3)            180.0            -DE/DX =    0.0                 !
 ! D4    D(8,1,2,9)              0.0            -DE/DX =    0.0                 !
 ! D5    D(2,1,6,5)              0.0            -DE/DX =    0.0                 !
 ! D6    D(2,1,6,7)            180.0            -DE/DX =    0.0                 !
 ! D7    D(8,1,6,5)            180.0            -DE/DX =    0.0                 !
 ! D8    D(8,1,6,7)              0.0            -DE/DX =    0.0                 !
 ! D9    D(1,2,3,4)              0.0            -DE/DX =    0.0                 !
 ! D10   D(1,2,3,10)           180.0            -DE/DX =    0.0                 !
 ! D11   D(9,2,3,4)            180.0            -DE/DX =    0.0                 !
 ! D12   D(9,2,3,10)             0.0            -DE/DX =    0.0                 !
 ! D13   D(2,3,4,5)              0.0            -DE/DX =    0.0                 !
 ! D14   D(2,3,4,11)           180.0            -DE/DX =    0.0                 !
 ! D15   D(10,3,4,5)           180.0            -DE/DX =    0.0                 !
 ! D16   D(10,3,4,11)            0.0            -DE/DX =    0.0                 !
 ! D17   D(3,4,5,6)              0.0            -DE/DX =    0.0                 !
 ! D18   D(3,4,5,12)           180.0            -DE/DX =    0.0                 !
 ! D19   D(11,4,5,6)           180.0            -DE/DX =    0.0                 !
 ! D20   D(11,4,5,12)            0.0            -DE/DX =    0.0                 !
 ! D21   D(4,5,6,1)              0.0            -DE/DX =    0.0                 !
 ! D22   D(4,5,6,7)            180.0            -DE/DX =    0.0                 !
 ! D23   D(12,5,6,1)           180.0            -DE/DX =    0.0                 !
 ! D24   D(12,5,6,7)             0.0            -DE/DX =    0.0                 !
 --------------------------------------------------------------------------------
 GradGradGradGradGradGradGradGradGradGradGradGradGradGradGradGradGradGrad

                          Input orientation:                          
 ---------------------------------------------------------------------
 Center     Atomic      Atomic             Coordinates (Angstroms)
 Number     Number       Type             X           Y           Z
 ---------------------------------------------------------------------
      1          6           0       -3.208856    0.155517   -0.000000
      2          6           0       -2.010218    0.888912    0.000000
      3          6           0       -0.773123    0.222429    0.000000
      4          6           0       -0.743622   -1.181371    0.000000
      5          6           0       -1.933261   -1.912451    0.000000
      6          6           0       -3.161243   -1.247786   -0.000000
      7         17           0       -4.583649   -2.167380   -0.000000
      8         17           0       -4.698546    0.956226   -0.000000
      9         17           0       -2.056697    2.580845    0.000000
     10         17           0        0.670361    1.103716    0.000000
     11         17           0        0.727125   -2.021487    0.000000
     12          1           0       -1.902973   -3.014999    0.000000
 ---------------------------------------------------------------------
                    Distance matrix (angstroms):
                    1          2          3          4          5
     1  C    0.000000
     2  C    1.405206   0.000000
     3  C    2.436652   1.405206   0.000000
     4  C    2.804398   2.427001   1.404110   0.000000
     5  C    2.429739   2.802419   2.429739   1.396323   0.000000
     6  C    1.404110   2.427001   2.804398   2.418533   1.396323
     7  Cl   2.699241   3.995431   4.497921   3.964596   2.662620
     8  Cl   1.691245   2.689171   3.993420   4.495636   3.984483
     9  Cl   2.685087   1.692572   2.685087   3.984775   4.494991
    10  Cl   3.993420   2.689171   1.691245   2.687186   3.984483
    11  Cl   4.497921   3.995431   2.699241   1.693780   2.662620
    12  H    3.428921   3.905384   3.428921   2.169398   1.102965
                    6          7          8          9         10
     6  C    0.000000
     7  Cl   1.693780   0.000000
     8  Cl   2.687186   3.125718   0.000000
     9  Cl   3.984776   5.378766   3.101412   0.000000
    10  Cl   4.495636   6.189078   5.370932   3.101412   0.000000
    11  Cl   3.964596   5.312777   6.189077   5.378766   3.125718
    12  H    2.169398   2.811491   4.856527   5.597956   4.856527
                   11         12
    11  Cl   0.000000
    12  H    2.811491   0.000000
 Stoichiometry    C6HCl5
 Framework group  CS[SG(C6HCl5)]
 Deg. of freedom    21
 Full point group                 CS      NOp   2
 Largest Abelian subgroup         CS      NOp   2
 Largest concise Abelian subgroup C1      NOp   1
                         Standard orientation:                         
 ---------------------------------------------------------------------
 Center     Atomic      Atomic             Coordinates (Angstroms)
 Number     Number       Type             X           Y           Z
 ---------------------------------------------------------------------
      1          6           0       -1.218326   -0.302045   -0.000000
      2          6           0       -0.000000   -1.002248    0.000000
      3          6           0        1.218326   -0.302045    0.000000
      4          6           0        1.209267    1.102036    0.000000
      5          6           0       -0.000000    1.800171   -0.000000
      6          6           0       -1.209267    1.102036   -0.000000
      7         17           0       -2.656389    1.982223   -0.000000
      8         17           0       -2.685466   -1.143360   -0.000000
      9         17           0        0.000000   -2.694819    0.000000
     10         17           0        2.685466   -1.143360    0.000000
     11         17           0        2.656389    1.982223    0.000000
     12          1           0        0.000000    2.903136   -0.000000
 ---------------------------------------------------------------------
 Rotational constants (GHZ):           0.7109148           0.4729358           0.2840029

 **********************************************************************

            Population analysis using the SCF Density.

 **********************************************************************

 Orbital symmetries:
       Occupied  (A') (A') (A') (A') (A') (A') (A') (A') (A') (A')
                 (A') (A') (A') (A') (A") (A') (A') (A") (A') (A")
                 (A") (A") (A') (A') (A') (A') (A') (A") (A") (A")
       Virtual   (A") (A") (A') (A') (A') (A') (A') (A") (A') (A')
                 (A') (A') (A') (A') (A')
 The electronic state is 1-A'.
 Alpha  occ. eigenvalues --   -1.49805  -1.42332  -1.41608  -1.40165  -1.39621
 Alpha  occ. eigenvalues --   -1.36987  -1.17568  -1.16306  -0.90980  -0.90564
 Alpha  occ. eigenvalues --   -0.72056  -0.67522  -0.66788  -0.60587  -0.59826
 Alpha  occ. eigenvalues --   -0.59285  -0.53456  -0.52969  -0.52640  -0.51445
 Alpha  occ. eigenvalues --   -0.48325  -0.47617  -0.46191  -0.46003  -0.45460
 Alpha  occ. eigenvalues --   -0.45340  -0.44131  -0.43033  -0.36843  -0.35961
 Alpha virt. eigenvalues --   -0.03269  -0.02904   0.01076   0.02108   0.02600
 Alpha virt. eigenvalues --    0.03631   0.04438   0.05479   0.11137   0.12034
 Alpha virt. eigenvalues --    0.12564   0.13421   0.14354   0.15146   0.16305
          Condensed to atoms (all electrons):
               1          2          3          4          5          6
     1  C    4.058295   0.000000   0.000000   0.000000   0.000000   0.000000
     2  C    0.000000   4.049700   0.000000   0.000000   0.000000   0.000000
     3  C    0.000000   0.000000   4.058295   0.000000   0.000000   0.000000
     4  C    0.000000   0.000000   0.000000   4.050058   0.000000   0.000000
     5  C    0.000000   0.000000   0.000000   0.000000   4.109493   0.000000
     6  C    0.000000   0.000000   0.000000   0.000000   0.000000   4.050058
     7  Cl   0.000000   0.000000   0.000000   0.000000   0.000000   0.000000
     8  Cl   0.000000   0.000000   0.000000   0.000000   0.000000   0.000000
     9  Cl   0.000000   0.000000   0.000000   0.000000   0.000000   0.000000
    10  Cl   0.000000   0.000000   0.000000   0.000000   0.000000   0.000000
    11  Cl   0.000000   0.000000   0.000000   0.000000   0.000000   0.000000
    12  H    0.000000   0.000000   0.000000   0.000000   0.000000   0.000000
               7          8          9         10         11         12
     1  C    0.000000   0.000000   0.000000   0.000000   0.000000   0.000000
     2  C    0.000000   0.000000   0.000000   0.000000   0.000000   0.000000
     3  C    0.000000   0.000000   0.000000   0.000000   0.000000   0.000000
     4  C    0.000000   0.000000   0.000000   0.000000   0.000000   0.000000
     5  C    0.000000   0.000000   0.000000   0.000000   0.000000   0.000000
     6  C    0.000000   0.000000   0.000000   0.000000   0.000000   0.000000
     7  Cl   6.968589   0.000000   0.000000   0.000000   0.000000   0.000000
     8  Cl   0.000000   6.953282   0.000000   0.000000   0.000000   0.000000
     9  Cl   0.000000   0.000000   6.952803   0.000000   0.000000   0.000000
    10  Cl   0.000000   0.000000   0.000000   6.953282   0.000000   0.000000
    11  Cl   0.000000   0.000000   0.000000   0.000000   6.968589   0.000000
    12  H    0.000000   0.000000   0.000000   0.000000   0.000000   0.827555
 Mulliken charges:
               1
     1  C   -0.058295
     2  C   -0.049700
     3  C   -0.058295
     4  C   -0.050058
     5  C   -0.109493
     6  C   -0.050058
     7  Cl   0.031411
     8  Cl   0.046718
     9  Cl   0.047197
    10  Cl   0.046718
    11  Cl   0.031411
    12  H    0.172445
 Sum of Mulliken charges =  -0.00000
 Mulliken charges with hydrogens summed into heavy atoms:
               1
     1  C   -0.058295
     2  C   -0.049700
     3  C   -0.058295
     4  C   -0.050058
     5  C    0.062953
     6  C   -0.050058
     7  Cl   0.031411
     8  Cl   0.046718
     9  Cl   0.047197
    10  Cl   0.046718
    11  Cl   0.031411
 Charge=             -0.0000 electrons
 Dipole moment (field-independent basis, Debye):
    X=             -0.0000    Y=              0.7883    Z=              0.0000  Tot=              0.7883
 N-N= 3.638914971116D+02 E-N=-5.253580260740D+02  KE=-1.564127385507D+02
 Symmetry A'   KE=-1.192351389019D+02
 Symmetry A"   KE=-3.717759964887D+01
 1\1\GINC-SH02-01N30\FOpt\RAM1\ZDO\C6H1Cl5\JLAPIER\09-Dec-2025\0\\# opt
  am1 SCF=XQC\\5-Chloro-Benzene (12345)\\0,1\C,-3.2088560312,0.15551656
 17,0.\C,-2.0102175055,0.888911878,0.\C,-0.773122673,0.2224287395,0.\C,
 -0.7436217803,-1.1813708387,0.\C,-1.9332610828,-1.9124505538,0.\C,-3.1
 612428593,-1.2477856073,0.\Cl,-4.583648586,-2.1673800133,0.\Cl,-4.6985
 458154,0.9562258005,0.\Cl,-2.0566966617,2.5808451967,0.\Cl,0.670360792
 8,1.1037155672,0.\Cl,0.7271249785,-2.0214874395,0.\H,-1.902972776,-3.0
 149992911,0.\\Version=ES64L-G16RevB.01\State=1-A'\HF=-0.0080398\RMSD=4
 .518e-09\RMSF=5.744e-05\Dipole=0.0085167,-0.3100242,0.\PG=CS [SG(C6H1C
 l5)]\\@


 EVERYBODY NEEDS BEAUTY AS WELL AS BREAD, PLACES TO PLAY IN AND PRAY IN,
 WHERE NATURE MAY HEAL AND CHEER AND GIVE STRENGTH TO BODY AND SOUL ALIKE.

                                    -- JOHN MUIR
 Job cpu time:       0 days  0 hours  0 minutes  6.8 seconds.
 Elapsed time:       0 days  0 hours  0 minutes 16.8 seconds.
 File lengths (MBytes):  RWF=     10 Int=      0 D2E=      0 Chk=      2 Scr=      1
 Normal termination of Gaussian 16 at Tue Dec  9 09:58:57 2025.
