 Entering Gaussian System, Link 0=g16
 Initial command:
 /share/software/user/restricted/gaussian/g16.B01/l1.exe "/home/users/jlapier/Chloroaromatics/Gau-16606.inp" -scrdir="/home/users/jlapier/Chloroaromatics/"
 Entering Link 1 = /share/software/user/restricted/gaussian/g16.B01/l1.exe PID=     16607.
  
 Copyright (c) 1988-2017, Gaussian, Inc.  All Rights Reserved.
  
 This is part of the Gaussian(R) 16 program.  It is based on
 the Gaussian(R) 09 system (copyright 2009, Gaussian, Inc.),
 the Gaussian(R) 03 system (copyright 2003, Gaussian, Inc.),
 the Gaussian(R) 98 system (copyright 1998, Gaussian, Inc.),
 the Gaussian(R) 94 system (copyright 1995, Gaussian, Inc.),
 the Gaussian 92(TM) system (copyright 1992, Gaussian, Inc.),
 the Gaussian 90(TM) system (copyright 1990, Gaussian, Inc.),
 the Gaussian 88(TM) system (copyright 1988, Gaussian, Inc.),
 the Gaussian 86(TM) system (copyright 1986, Carnegie Mellon
 University), and the Gaussian 82(TM) system (copyright 1983,
 Carnegie Mellon University). Gaussian is a federally registered
 trademark of Gaussian, Inc.
  
 This software contains proprietary and confidential information,
 including trade secrets, belonging to Gaussian, Inc.
  
 This software is provided under written license and may be
 used, copied, transmitted, or stored only in accord with that
 written license.
  
 The following legend is applicable only to US Government
 contracts under FAR:
  
                    RESTRICTED RIGHTS LEGEND
  
 Use, reproduction and disclosure by the US Government is
 subject to restrictions as set forth in subparagraphs (a)
 and (c) of the Commercial Computer Software - Restricted
 Rights clause in FAR 52.227-19.
  
 Gaussian, Inc.
 340 Quinnipiac St., Bldg. 40, Wallingford CT 06492
  
  
 ---------------------------------------------------------------
 Warning -- This program may not be used in any manner that
 competes with the business of Gaussian, Inc. or will provide
 assistance to any competitor of Gaussian, Inc.  The licensee
 of this program is prohibited from giving any competitor of
 Gaussian, Inc. access to this program.  By using this program,
 the user acknowledges that Gaussian, Inc. is engaged in the
 business of creating and licensing software in the field of
 computational chemistry and represents and warrants to the
 licensee that it is not a competitor of Gaussian, Inc. and that
 it will not use this program in any manner prohibited above.
 ---------------------------------------------------------------
  

 Cite this work as:
 Gaussian 16, Revision B.01,
 M. J. Frisch, G. W. Trucks, H. B. Schlegel, G. E. Scuseria, 
 M. A. Robb, J. R. Cheeseman, G. Scalmani, V. Barone, 
 G. A. Petersson, H. Nakatsuji, X. Li, M. Caricato, A. V. Marenich, 
 J. Bloino, B. G. Janesko, R. Gomperts, B. Mennucci, H. P. Hratchian, 
 J. V. Ortiz, A. F. Izmaylov, J. L. Sonnenberg, D. Williams-Young, 
 F. Ding, F. Lipparini, F. Egidi, J. Goings, B. Peng, A. Petrone, 
 T. Henderson, D. Ranasinghe, V. G. Zakrzewski, J. Gao, N. Rega, 
 G. Zheng, W. Liang, M. Hada, M. Ehara, K. Toyota, R. Fukuda, 
 J. Hasegawa, M. Ishida, T. Nakajima, Y. Honda, O. Kitao, H. Nakai, 
 T. Vreven, K. Throssell, J. A. Montgomery, Jr., J. E. Peralta, 
 F. Ogliaro, M. J. Bearpark, J. J. Heyd, E. N. Brothers, K. N. Kudin, 
 V. N. Staroverov, T. A. Keith, R. Kobayashi, J. Normand, 
 K. Raghavachari, A. P. Rendell, J. C. Burant, S. S. Iyengar, 
 J. Tomasi, M. Cossi, J. M. Millam, M. Klene, C. Adamo, R. Cammi, 
 J. W. Ochterski, R. L. Martin, K. Morokuma, O. Farkas, 
 J. B. Foresman, and D. J. Fox, Gaussian, Inc., Wallingford CT, 2016.
 
 ******************************************
 Gaussian 16:  ES64L-G16RevB.01 20-Dec-2017
                 8-Dec-2025 
 ******************************************
 %mem=2GB
 %nprocshare=1
 Will use up to    1 processors via shared memory.
 %chk=geometry_chks/1234_ClBzAnionIntermediate.chk
 ---------------------------
 # opt am1 SCF(maxcyc=10000)
 ---------------------------
 1/18=20,19=15,26=1,38=1/1,3;
 2/9=110,12=2,17=6,18=5,40=1/2;
 3/5=2,25=1,41=700000,71=1/1,2,3;
 4/35=1/1;
 5/5=2,7=10000,35=1,38=5/2;
 6/7=2,8=2,9=2,10=2,28=1/1;
 7//1,2,3,16;
 1/18=20,19=15,26=1/3(2);
 2/9=110/2;
 99//99;
 2/9=110/2;
 3/5=2,25=1,41=700000,71=1,135=20/1,2,3;
 4/5=5,16=3,35=1/1;
 5/5=2,7=10000,35=1,38=5/2;
 7//1,2,3,16;
 1/18=20,19=15,26=1/3(-5);
 2/9=110/2;
 6/7=2,8=2,9=2,10=2,19=2,28=1/1;
 99/9=1/99;
 ------------------------------------
 Anion Intermediate (removed 5) 1234_
 ------------------------------------
 Symbolic Z-matrix:
 Charge = -1 Multiplicity = 1
 C                    -3.20928   0.19943   0. 
 C                    -2.0115    0.93555   0. 
 C                    -0.77511   0.2663    0. 
 C                    -0.7365   -1.13907   0. 
 C                    -1.93429  -1.87519   0. 
 C                    -3.17067  -1.20594   0. 
 Cl                   -4.67483  -2.13035   0. 
 Cl                   -4.76193   1.03987   0. 
 Cl                    0.81614  -1.97951   0. 
 Cl                   -1.8858   -3.64003   0. 
 H                     0.72905   1.19071   0. 
 
 Add virtual bond connecting atoms H11        and C3         Dist= 3.34D+00.

 GradGradGradGradGradGradGradGradGradGradGradGradGradGradGradGradGradGrad
 Berny optimization.
 Initialization pass.
                           ----------------------------
                           !    Initial Parameters    !
                           ! (Angstroms and Degrees)  !
 --------------------------                            --------------------------
 ! Name  Definition              Value          Derivative Info.                !
 --------------------------------------------------------------------------------
 ! R1    R(1,2)                  1.4059         estimate D2E/DX2                !
 ! R2    R(1,6)                  1.4059         estimate D2E/DX2                !
 ! R3    R(1,8)                  1.7655         estimate D2E/DX2                !
 ! R4    R(2,3)                  1.4059         estimate D2E/DX2                !
 ! R5    R(3,4)                  1.4059         estimate D2E/DX2                !
 ! R6    R(3,11)                 1.7655         estimate D2E/DX2                !
 ! R7    R(4,5)                  1.4059         estimate D2E/DX2                !
 ! R8    R(4,9)                  1.7655         estimate D2E/DX2                !
 ! R9    R(5,6)                  1.4059         estimate D2E/DX2                !
 ! R10   R(5,10)                 1.7655         estimate D2E/DX2                !
 ! R11   R(6,7)                  1.7655         estimate D2E/DX2                !
 ! A1    A(2,1,6)              119.9999         estimate D2E/DX2                !
 ! A2    A(2,1,8)              119.9999         estimate D2E/DX2                !
 ! A3    A(6,1,8)              120.0001         estimate D2E/DX2                !
 ! A4    A(1,2,3)              120.0            estimate D2E/DX2                !
 ! A5    A(2,3,4)              120.0001         estimate D2E/DX2                !
 ! A6    A(2,3,11)             120.0            estimate D2E/DX2                !
 ! A7    A(4,3,11)             119.9999         estimate D2E/DX2                !
 ! A8    A(3,4,5)              119.9997         estimate D2E/DX2                !
 ! A9    A(3,4,9)              120.0003         estimate D2E/DX2                !
 ! A10   A(5,4,9)              120.0            estimate D2E/DX2                !
 ! A11   A(4,5,6)              120.0            estimate D2E/DX2                !
 ! A12   A(4,5,10)             119.9996         estimate D2E/DX2                !
 ! A13   A(6,5,10)             120.0004         estimate D2E/DX2                !
 ! A14   A(1,6,5)              120.0003         estimate D2E/DX2                !
 ! A15   A(1,6,7)              119.9999         estimate D2E/DX2                !
 ! A16   A(5,6,7)              119.9998         estimate D2E/DX2                !
 ! D1    D(6,1,2,3)              0.0            estimate D2E/DX2                !
 ! D2    D(8,1,2,3)            180.0            estimate D2E/DX2                !
 ! D3    D(2,1,6,5)              0.0            estimate D2E/DX2                !
 ! D4    D(2,1,6,7)            180.0            estimate D2E/DX2                !
 ! D5    D(8,1,6,5)            180.0            estimate D2E/DX2                !
 ! D6    D(8,1,6,7)              0.0            estimate D2E/DX2                !
 ! D7    D(1,2,3,4)              0.0            estimate D2E/DX2                !
 ! D8    D(1,2,3,11)           180.0            estimate D2E/DX2                !
 ! D9    D(2,3,4,5)              0.0            estimate D2E/DX2                !
 ! D10   D(2,3,4,9)            180.0            estimate D2E/DX2                !
 ! D11   D(11,3,4,5)           180.0            estimate D2E/DX2                !
 ! D12   D(11,3,4,9)             0.0            estimate D2E/DX2                !
 ! D13   D(3,4,5,6)              0.0            estimate D2E/DX2                !
 ! D14   D(3,4,5,10)           180.0            estimate D2E/DX2                !
 ! D15   D(9,4,5,6)            180.0            estimate D2E/DX2                !
 ! D16   D(9,4,5,10)             0.0            estimate D2E/DX2                !
 ! D17   D(4,5,6,1)              0.0            estimate D2E/DX2                !
 ! D18   D(4,5,6,7)            180.0            estimate D2E/DX2                !
 ! D19   D(10,5,6,1)           180.0            estimate D2E/DX2                !
 ! D20   D(10,5,6,7)             0.0            estimate D2E/DX2                !
 --------------------------------------------------------------------------------
 Trust Radius=3.00D-01 FncErr=1.00D-07 GrdErr=1.00D-07 EigMax=2.50D+02 EigMin=1.00D-04
 Number of steps in this run=     57 maximum allowed number of steps=    100.
 GradGradGradGradGradGradGradGradGradGradGradGradGradGradGradGradGradGrad

                          Input orientation:                          
 ---------------------------------------------------------------------
 Center     Atomic      Atomic             Coordinates (Angstroms)
 Number     Number       Type             X           Y           Z
 ---------------------------------------------------------------------
      1          6           0       -3.209280    0.199430    0.000000
      2          6           0       -2.011500    0.935550    0.000000
      3          6           0       -0.775110    0.266300    0.000000
      4          6           0       -0.736500   -1.139070    0.000000
      5          6           0       -1.934290   -1.875190    0.000000
      6          6           0       -3.170670   -1.205940    0.000000
      7         17           0       -4.674830   -2.130350    0.000000
      8         17           0       -4.761930    1.039870    0.000000
      9         17           0        0.816140   -1.979510    0.000000
     10         17           0       -1.885800   -3.640030    0.000000
     11          1           0        0.729050    1.190710    0.000000
 ---------------------------------------------------------------------
                    Distance matrix (angstroms):
                    1          2          3          4          5
     1  C    0.000000
     2  C    1.405898   0.000000
     3  C    2.435088   1.405900   0.000000
     4  C    2.811801   2.435092   1.405900   0.000000
     5  C    2.435087   2.811800   2.435093   1.405907   0.000000
     6  C    1.405900   2.435088   2.811796   2.435088   1.405892
     7  Cl   2.752401   4.061166   4.577308   4.061167   2.752393
     8  Cl   1.765520   2.752408   4.061175   4.577321   4.061173
     9  Cl   4.577312   4.061173   2.752406   1.765511   2.752408
    10  Cl   4.061164   4.577306   4.061163   2.752397   1.765506
    11  H    4.061167   2.752403   1.765512   2.752401   4.061173
                    6          7          8          9         10
     6  C    0.000000
     7  Cl   1.765512   0.000000
     8  Cl   2.752412   3.171416   0.000000
     9  Cl   4.061165   5.493041   6.342832   0.000000
    10  Cl   2.752396   3.171407   5.493049   3.171404   0.000000
    11  H    4.577308   6.342819   5.493051   3.171416   5.493040
                   11
    11  H    0.000000
 Stoichiometry    C6HCl4(1-)
 Framework group  CS[SG(C6HCl4)]
 Deg. of freedom    19
 Full point group                 CS      NOp   2
 Largest Abelian subgroup         CS      NOp   2
 Largest concise Abelian subgroup C1      NOp   1
                         Standard orientation:                         
 ---------------------------------------------------------------------
 Center     Atomic      Atomic             Coordinates (Angstroms)
 Number     Number       Type             X           Y           Z
 ---------------------------------------------------------------------
      1          6           0        0.863193    1.421000    0.000000
      2          6           0        2.080737    0.718052    0.000000
      3          6           0        2.080737   -0.687848    0.000000
      4          6           0        0.863193   -1.390801    0.000000
      5          6           0       -0.354356   -0.687844    0.000000
      6          6           0       -0.354351    0.718048    0.000000
      7         17           0       -1.883329    1.600804    0.000000
      8         17           0        0.863193    3.186520    0.000000
      9         17           0        0.863188   -3.156312    0.000000
     10         17           0       -1.883325   -1.570603    0.000000
     11          1           0        3.609715   -1.570604    0.000000
 ---------------------------------------------------------------------
 Rotational constants (GHZ):           1.1541007           0.5302900           0.3633409
 Standard basis: VSTO-6G (5D, 7F)
 There are    31 symmetry adapted cartesian basis functions of A'  symmetry.
 There are    10 symmetry adapted cartesian basis functions of A"  symmetry.
 There are    31 symmetry adapted basis functions of A'  symmetry.
 There are    10 symmetry adapted basis functions of A"  symmetry.
    41 basis functions,   246 primitive gaussians,    41 cartesian basis functions
    27 alpha electrons       27 beta electrons
       nuclear repulsion energy       294.1730335011 Hartrees.
 Integral buffers will be    131072 words long.
 Regular integral format.
 Two-electron integral symmetry is turned off.
 Do NDO integrals.
 One-electron integrals computed using PRISM.
 NBasis=    41 RedAO= T EigKep=  1.00D+00  NBF=    31    10
 NBsUse=    41 1.00D-06 EigRej= -1.00D+00 NBFU=    31    10
 Simple Huckel Guess.
 Initial guess orbital symmetries:
       Occupied  (A') (A') (A') (A') (A') (A') (A') (A') (A') (A')
                 (A") (A') (A') (A') (A") (A') (A") (A') (A") (A")
                 (A') (A') (A') (A') (A") (A") (A')
       Virtual   (A") (A") (A') (A") (A') (A') (A') (A') (A') (A')
                 (A') (A') (A') (A')
 The electronic state of the initial guess is 1-A'.
 Keep J ints in memory in canonical form, NReq=864464.
 Overlap will be assumed to be unity.
 Requested convergence on RMS density matrix=1.00D-08 within**** cycles.
 Requested convergence on MAX density matrix=1.00D-06.
 Requested convergence on             energy=1.00D-06.
 No special actions if energy rises.
 Fock symm off for IB=2 I1=    1 I=   32 J=   27 Cut=1.00D-07 Err=3.58D-03
 Fock matrix is not symmetric: symmetry in diagonalization turned off.
 SCF Done:  E(RAM1) =  0.142297678198     A.U. after   17 cycles
            NFock= 16  Conv=0.74D-08     -V/T= 1.0010

 **********************************************************************

            Population analysis using the SCF Density.

 **********************************************************************

 Orbital symmetries:
       Occupied  (A') (A') (A') (A') (A') (A') (A') (A') (A') (A')
                 (A') (A') (A") (A') (A') (A") (A") (A") (A') (A')
                 (A') (A') (A") (A') (A") (A") (A')
       Virtual   (A') (A") (A") (A') (A') (A') (A') (A") (A') (A')
                 (A') (A') (A') (A')
 The electronic state is 1-A'.
 Alpha  occ. eigenvalues --   -1.28513  -1.23861  -1.23206  -1.21866  -1.19373
 Alpha  occ. eigenvalues --   -0.96762  -0.94357  -0.68901  -0.67576  -0.50688
 Alpha  occ. eigenvalues --   -0.46150  -0.45037  -0.40864  -0.40670  -0.36163
 Alpha  occ. eigenvalues --   -0.35288  -0.33458  -0.32092  -0.31940  -0.31502
 Alpha  occ. eigenvalues --   -0.30032  -0.28728  -0.27658  -0.25019  -0.19907
 Alpha  occ. eigenvalues --   -0.18190  -0.13326
 Alpha virt. eigenvalues --    0.15276   0.15346   0.16303   0.16452   0.17743
 Alpha virt. eigenvalues --    0.19110   0.20785   0.26529   0.30169   0.30291
 Alpha virt. eigenvalues --    0.31802   0.33057   0.36020   0.38811
          Condensed to atoms (all electrons):
               1          2          3          4          5          6
     1  C    4.039569   0.000000   0.000000   0.000000   0.000000   0.000000
     2  C    0.000000   4.344031   0.000000   0.000000   0.000000   0.000000
     3  C    0.000000   0.000000   4.108525   0.000000   0.000000   0.000000
     4  C    0.000000   0.000000   0.000000   4.041405   0.000000   0.000000
     5  C    0.000000   0.000000   0.000000   0.000000   4.110046   0.000000
     6  C    0.000000   0.000000   0.000000   0.000000   0.000000   4.040951
     7  Cl   0.000000   0.000000   0.000000   0.000000   0.000000   0.000000
     8  Cl   0.000000   0.000000   0.000000   0.000000   0.000000   0.000000
     9  Cl   0.000000   0.000000   0.000000   0.000000   0.000000   0.000000
    10  Cl   0.000000   0.000000   0.000000   0.000000   0.000000   0.000000
    11  H    0.000000   0.000000   0.000000   0.000000   0.000000   0.000000
               7          8          9         10         11
     1  C    0.000000   0.000000   0.000000   0.000000   0.000000
     2  C    0.000000   0.000000   0.000000   0.000000   0.000000
     3  C    0.000000   0.000000   0.000000   0.000000   0.000000
     4  C    0.000000   0.000000   0.000000   0.000000   0.000000
     5  C    0.000000   0.000000   0.000000   0.000000   0.000000
     6  C    0.000000   0.000000   0.000000   0.000000   0.000000
     7  Cl   7.096384   0.000000   0.000000   0.000000   0.000000
     8  Cl   0.000000   7.103254   0.000000   0.000000   0.000000
     9  Cl   0.000000   0.000000   7.114303   0.000000   0.000000
    10  Cl   0.000000   0.000000   0.000000   7.082278   0.000000
    11  H    0.000000   0.000000   0.000000   0.000000   0.919253
 Mulliken charges:
               1
     1  C   -0.039569
     2  C   -0.344031
     3  C   -0.108525
     4  C   -0.041405
     5  C   -0.110046
     6  C   -0.040951
     7  Cl  -0.096384
     8  Cl  -0.103254
     9  Cl  -0.114303
    10  Cl  -0.082278
    11  H    0.080747
 Sum of Mulliken charges =  -1.00000
 Mulliken charges with hydrogens summed into heavy atoms:
               1
     1  C   -0.039569
     2  C   -0.344031
     3  C   -0.027778
     4  C   -0.041405
     5  C   -0.110046
     6  C   -0.040951
     7  Cl  -0.096384
     8  Cl  -0.103254
     9  Cl  -0.114303
    10  Cl  -0.082278
 Charge=             -1.0000 electrons
 Dipole moment (field-independent basis, Debye):
    X=             -4.4396    Y=             -2.0859    Z=              0.0000  Tot=              4.9052
 N-N= 2.941730335011D+02 E-N=-4.218424516230D+02  KE=-1.355964489406D+02
 Symmetry A'   KE=-1.039330895420D+02
 Symmetry A"   KE=-3.166335939856D+01
 Calling FoFJK, ICntrl=      2127 FMM=F ISym2X=1 I1Cent= 0 IOpClX= 0 NMat=1 NMatS=1 NMatT=0.
 ***** Axes restored to original set *****
 -------------------------------------------------------------------
 Center     Atomic                   Forces (Hartrees/Bohr)
 Number     Number              X              Y              Z
 -------------------------------------------------------------------
      1        6           0.015666747    0.011229086    0.000000000
      2        6           0.016566935   -0.013763179   -0.000000000
      3        6           0.035393311    0.033917886    0.000000000
      4        6           0.025991384    0.016384694    0.000000000
      5        6          -0.002709529   -0.017894232    0.000000000
      6        6          -0.018123899   -0.008031476    0.000000000
      7       17           0.023501827    0.011492438   -0.000000000
      8       17           0.026055350   -0.013171391   -0.000000000
      9       17          -0.022197631    0.012231793   -0.000000000
     10       17          -0.001033200    0.029306833   -0.000000000
     11        1          -0.099111296   -0.061702452   -0.000000000
 -------------------------------------------------------------------
 Cartesian Forces:  Max     0.099111296 RMS     0.025567737

 GradGradGradGradGradGradGradGradGradGradGradGradGradGradGradGradGradGrad
 Berny optimization.
 FormGI is forming the generalized inverse of G from B-inverse, IUseBI=4.
 Internal  Forces:  Max     0.116746676 RMS     0.021957557
 Search for a local minimum.
 Step number   1 out of a maximum of   57
 All quantities printed in internal units (Hartrees-Bohrs-Radians)
 Mixed Optimization -- RFO/linear search
 Second derivative matrix not updated -- first step.
 ITU=  0
     Eigenvalues ---    0.02011   0.02011   0.02011   0.02011   0.02011
     Eigenvalues ---    0.02011   0.02011   0.02011   0.06524   0.16000
     Eigenvalues ---    0.23352   0.25000   0.25000   0.25000   0.25000
     Eigenvalues ---    0.25000   0.25000   0.29033   0.29033   0.29033
     Eigenvalues ---    0.29034   0.41087   0.41583   0.44656   0.44657
     Eigenvalues ---    0.44657   0.44657
 RFO step:  Lambda=-1.01721825D-01 EMin= 2.01065740D-02
 Linear search not attempted -- first point.
 Maximum step size (   0.300) exceeded in Quadratic search.
    -- Step size scaled by   0.410
 Iteration  1 RMS(Cart)=  0.03916349 RMS(Int)=  0.01265387
 Iteration  2 RMS(Cart)=  0.01203631 RMS(Int)=  0.00002281
 Iteration  3 RMS(Cart)=  0.00000015 RMS(Int)=  0.00002281
 ClnCor:  largest displacement from symmetrization is 1.55D-09 for atom    11.
 Variable       Old X    -DE/DX   Delta X   Delta X   Delta X     New X
                                 (Linear)    (Quad)   (Total)
    R1        2.65676  -0.03092   0.00000  -0.02338  -0.02338   2.63338
    R2        2.65677  -0.00928   0.00000  -0.00623  -0.00626   2.65050
    R3        3.33635  -0.02918   0.00000  -0.03052  -0.03052   3.30583
    R4        2.65677  -0.04585   0.00000  -0.03525  -0.03522   2.62155
    R5        2.65677  -0.03404   0.00000  -0.02617  -0.02614   2.63063
    R6        3.33633  -0.11675   0.00000  -0.28673  -0.28673   3.04961
    R7        2.65678  -0.01279   0.00000  -0.00931  -0.00931   2.64747
    R8        3.33633  -0.02534   0.00000  -0.02651  -0.02651   3.30983
    R9        2.65675  -0.01597   0.00000  -0.01098  -0.01101   2.64574
   R10        3.33632  -0.02932   0.00000  -0.03067  -0.03067   3.30565
   R11        3.33633  -0.02604   0.00000  -0.02724  -0.02724   3.30910
    A1        2.09439   0.00927   0.00000   0.01136   0.01132   2.10572
    A2        2.09439  -0.00600   0.00000  -0.00728  -0.00726   2.08714
    A3        2.09440  -0.00327   0.00000  -0.00409  -0.00407   2.09033
    A4        2.09439  -0.01315   0.00000  -0.01851  -0.01847   2.07593
    A5        2.09440   0.02247   0.00000   0.02551   0.02558   2.11998
    A6        2.09440  -0.01011   0.00000  -0.01099  -0.01103   2.08337
    A7        2.09439  -0.01236   0.00000  -0.01452  -0.01455   2.07984
    A8        2.09439  -0.00559   0.00000  -0.00744  -0.00740   2.08699
    A9        2.09440   0.00248   0.00000   0.00335   0.00333   2.09773
   A10        2.09440   0.00311   0.00000   0.00409   0.00407   2.09847
   A11        2.09439  -0.00729   0.00000  -0.00676  -0.00678   2.08761
   A12        2.09439   0.00402   0.00000   0.00382   0.00384   2.09822
   A13        2.09440   0.00326   0.00000   0.00293   0.00295   2.09735
   A14        2.09440  -0.00571   0.00000  -0.00417  -0.00424   2.09016
   A15        2.09439   0.00705   0.00000   0.00698   0.00701   2.10140
   A16        2.09439  -0.00134   0.00000  -0.00280  -0.00277   2.09162
    D1        0.00000  -0.00000   0.00000  -0.00000   0.00000   0.00000
    D2        3.14159   0.00000   0.00000   0.00000   0.00000   3.14159
    D3        0.00000   0.00000   0.00000   0.00000   0.00000   0.00000
    D4        3.14159   0.00000   0.00000   0.00000   0.00000   3.14159
    D5        3.14159  -0.00000   0.00000  -0.00000   0.00000   3.14159
    D6        0.00000   0.00000   0.00000   0.00000   0.00000   0.00000
    D7        0.00000   0.00000   0.00000   0.00000   0.00000   0.00000
    D8        3.14159  -0.00000   0.00000  -0.00000   0.00000   3.14159
    D9        0.00000  -0.00000   0.00000  -0.00000   0.00000   0.00000
   D10        3.14159  -0.00000   0.00000  -0.00000   0.00000   3.14159
   D11        3.14159   0.00000   0.00000   0.00000   0.00000   3.14159
   D12        0.00000   0.00000   0.00000   0.00000   0.00000   0.00000
   D13        0.00000  -0.00000   0.00000  -0.00000   0.00000   0.00000
   D14        3.14159  -0.00000   0.00000  -0.00000   0.00000   3.14159
   D15        3.14159   0.00000   0.00000   0.00000   0.00000   3.14159
   D16        0.00000  -0.00000   0.00000  -0.00000   0.00000   0.00000
   D17        0.00000   0.00000   0.00000   0.00000   0.00000   0.00000
   D18        3.14159  -0.00000   0.00000  -0.00000   0.00000   3.14159
   D19        3.14159   0.00000   0.00000   0.00000   0.00000   3.14159
   D20        0.00000   0.00000   0.00000   0.00000   0.00000   0.00000
         Item               Value     Threshold  Converged?
 Maximum Force            0.116747     0.000450     NO 
 RMS     Force            0.021958     0.000300     NO 
 Maximum Displacement     0.261134     0.001800     NO 
 RMS     Displacement     0.050396     0.001200     NO 
 Predicted change in Energy=-3.773719D-02
 GradGradGradGradGradGradGradGradGradGradGradGradGradGradGradGradGradGrad

                          Input orientation:                          
 ---------------------------------------------------------------------
 Center     Atomic      Atomic             Coordinates (Angstroms)
 Number     Number       Type             X           Y           Z
 ---------------------------------------------------------------------
      1          6           0       -3.181717    0.204061    0.000000
      2          6           0       -1.997274    0.938235    0.000000
      3          6           0       -0.787078    0.260059    0.000000
      4          6           0       -0.733641   -1.130984    0.000000
      5          6           0       -1.924639   -1.868729    0.000000
      6          6           0       -3.153716   -1.198245    0.000000
      7         17           0       -4.646046   -2.114378    0.000000
      8         17           0       -4.717293    1.042091    0.000000
      9         17           0        0.812954   -1.953019    0.000000
     10         17           0       -1.877135   -3.617360    0.000000
     11          1           0        0.590864    1.100039    0.000000
 ---------------------------------------------------------------------
                    Distance matrix (angstroms):
                    1          2          3          4          5
     1  C    0.000000
     2  C    1.393526   0.000000
     3  C    2.395293   1.387263   0.000000
     4  C    2.788445   2.424549   1.392069   0.000000
     5  C    2.424191   2.807904   2.413665   1.400980   0.000000
     6  C    1.402586   2.429384   2.779860   2.421010   1.400064
     7  Cl   2.742156   4.041589   4.530958   4.034102   2.732472
     8  Cl   1.749368   2.722001   4.007263   4.537812   4.033830
     9  Cl   4.539867   4.031964   2.730900   1.751484   2.738890
    10  Cl   4.037969   4.557179   4.027729   2.736721   1.749276
    11  H    3.877517   2.593191   1.613782   2.594567   3.891187
                    6          7          8          9         10
     6  C    0.000000
     7  Cl   1.751099   0.000000
     8  Cl   2.732010   3.157272   0.000000
     9  Cl   4.037840   5.461384   6.289222   0.000000
    10  Cl   2.735284   3.150528   5.456828   3.163323   0.000000
    11  H    4.393630   6.144729   5.308473   3.061125   5.323990
                   11
    11  H    0.000000
 Stoichiometry    C6HCl4(1-)
 Framework group  CS[SG(C6HCl4)]
 Deg. of freedom    19
 Full point group                 CS      NOp   2
 Largest Abelian subgroup         CS      NOp   2
 Largest concise Abelian subgroup C1      NOp   1
                         Standard orientation:                         
 ---------------------------------------------------------------------
 Center     Atomic      Atomic             Coordinates (Angstroms)
 Number     Number       Type             X           Y           Z
 ---------------------------------------------------------------------
      1          6           0        0.108279    1.646856   -0.000000
      2          6           0        1.500955    1.598153   -0.000000
      3          6           0        2.129440    0.361423   -0.000000
      4          6           0        1.400109   -0.824297   -0.000000
      5          6           0       -0.000000   -0.774916    0.000000
      6          6           0       -0.648455    0.465924    0.000000
      7         17           0       -2.398205    0.534670    0.000000
      8         17           0       -0.701692    3.197415    0.000000
      9         17           0        2.228134   -2.367694   -0.000000
     10         17           0       -0.933163   -2.254502    0.000000
     11          1           0        3.741771    0.293018   -0.000000
 ---------------------------------------------------------------------
 Rotational constants (GHZ):           1.1665740           0.5391365           0.3687277
 Standard basis: VSTO-6G (5D, 7F)
 There are    31 symmetry adapted cartesian basis functions of A'  symmetry.
 There are    10 symmetry adapted cartesian basis functions of A"  symmetry.
 There are    31 symmetry adapted basis functions of A'  symmetry.
 There are    10 symmetry adapted basis functions of A"  symmetry.
    41 basis functions,   246 primitive gaussians,    41 cartesian basis functions
    27 alpha electrons       27 beta electrons
       nuclear repulsion energy       295.7199495014 Hartrees.
 Integral buffers will be    131072 words long.
 Regular integral format.
 Two-electron integral symmetry is turned off.
 Do NDO integrals.
 One-electron integrals computed using PRISM.
 NBasis=    41 RedAO= T EigKep=  1.00D+00  NBF=    31    10
 NBsUse=    41 1.00D-06 EigRej= -1.00D+00 NBFU=    31    10
 Initial guess from the checkpoint file:  "geometry_chks/1234_ClBzAnionIntermediate.chk"
 B after Tr=     0.000000   -0.000000    0.000000
         Rot=    0.970818    0.000000   -0.000000   -0.239818 Ang= -27.75 deg.
 Initial guess orbital symmetries:
       Occupied  (A') (A') (A') (A') (A') (A') (A') (A') (A') (A')
                 (A') (A') (A") (A') (A') (A") (A") (A") (A') (A')
                 (A') (A') (A") (A') (A") (A") (A')
       Virtual   (A') (A") (A") (A') (A') (A') (A') (A") (A') (A')
                 (A') (A') (A') (A')
 Keep J ints in memory in canonical form, NReq=864464.
 Overlap will be assumed to be unity.
 Requested convergence on RMS density matrix=1.00D-08 within**** cycles.
 Requested convergence on MAX density matrix=1.00D-06.
 Requested convergence on             energy=1.00D-06.
 No special actions if energy rises.
 Fock symm off for IB=2 I1=    1 I=   32 J=    6 Cut=1.00D-07 Err=8.72D-04
 Fock matrix is not symmetric: symmetry in diagonalization turned off.
 SCF Done:  E(RAM1) =  0.101464391631     A.U. after   13 cycles
            NFock= 12  Conv=0.94D-08     -V/T= 1.0007
 Calling FoFJK, ICntrl=      2127 FMM=F ISym2X=1 I1Cent= 0 IOpClX= 0 NMat=1 NMatS=1 NMatT=0.
 ***** Axes restored to original set *****
 -------------------------------------------------------------------
 Center     Atomic                   Forces (Hartrees/Bohr)
 Number     Number              X              Y              Z
 -------------------------------------------------------------------
      1        6           0.003480195    0.009326664    0.000000000
      2        6           0.008425134   -0.001574529   -0.000000000
      3        6           0.071048803    0.050228720    0.000000000
      4        6           0.024819616    0.005322169    0.000000000
      5        6          -0.001786651   -0.020683909    0.000000000
      6        6          -0.019910849   -0.007829253   -0.000000000
      7       17           0.017017201    0.008327888   -0.000000000
      8       17           0.017155481   -0.008968400   -0.000000000
      9       17          -0.016164051    0.008730509    0.000000000
     10       17          -0.000611144    0.021004404   -0.000000000
     11        1          -0.103473735   -0.063884263   -0.000000000
 -------------------------------------------------------------------
 Cartesian Forces:  Max     0.103473735 RMS     0.027840053

 GradGradGradGradGradGradGradGradGradGradGradGradGradGradGradGradGradGrad
 Berny optimization.
 Using GEDIIS/GDIIS optimizer.
 FormGI is forming the generalized inverse of G from B-inverse, IUseBI=4.
 Internal  Forces:  Max     0.121604019 RMS     0.019328186
 Search for a local minimum.
 Step number   2 out of a maximum of   57
 All quantities printed in internal units (Hartrees-Bohrs-Radians)
 Mixed Optimization -- RFO/linear search
 Update second derivatives using D2CorX and points    1    2
 DE= -4.08D-02 DEPred=-3.77D-02 R= 1.08D+00
 TightC=F SS=  1.41D+00  RLast= 3.00D-01 DXNew= 5.0454D-01 9.0000D-01
 Trust test= 1.08D+00 RLast= 3.00D-01 DXMaxT set to 5.05D-01
 ITU=  1  0
 Use linear search instead of GDIIS.
 Linear search step of   0.600 exceeds DXMaxT=   0.505 but not scaled.
 Quartic linear search produced a step of  2.00000.
 Iteration  1 RMS(Cart)=  0.05413690 RMS(Int)=  0.05448533
 Iteration  2 RMS(Cart)=  0.02770876 RMS(Int)=  0.02531150
 Iteration  3 RMS(Cart)=  0.02411629 RMS(Int)=  0.00013804
 Iteration  4 RMS(Cart)=  0.00000947 RMS(Int)=  0.00013790
 Iteration  5 RMS(Cart)=  0.00000000 RMS(Int)=  0.00013790
 ClnCor:  largest displacement from symmetrization is 1.66D-08 for atom     7.
 Variable       Old X    -DE/DX   Delta X   Delta X   Delta X     New X
                                 (Linear)    (Quad)   (Total)
    R1        2.63338  -0.01265  -0.04676   0.00000  -0.04679   2.58660
    R2        2.65050  -0.00066  -0.01253   0.00000  -0.01274   2.63777
    R3        3.30583  -0.01936  -0.06105   0.00000  -0.06105   3.24478
    R4        2.62155  -0.02019  -0.07044   0.00000  -0.07025   2.55130
    R5        2.63063  -0.01396  -0.05228   0.00000  -0.05206   2.57857
    R6        3.04961  -0.12160  -0.57346   0.00000  -0.57346   2.47615
    R7        2.64747  -0.00101  -0.01862   0.00000  -0.01859   2.62888
    R8        3.30983  -0.01837  -0.05301   0.00000  -0.05301   3.25681
    R9        2.64574  -0.00301  -0.02203   0.00000  -0.02221   2.62353
   R10        3.30565  -0.02101  -0.06134   0.00000  -0.06134   3.24431
   R11        3.30910  -0.01886  -0.05447   0.00000  -0.05447   3.25463
    A1        2.10572   0.00607   0.02265   0.00000   0.02240   2.12812
    A2        2.08714  -0.00361  -0.01451   0.00000  -0.01439   2.07275
    A3        2.09033  -0.00246  -0.00813   0.00000  -0.00801   2.08232
    A4        2.07593  -0.00823  -0.03694   0.00000  -0.03671   2.03921
    A5        2.11998   0.01362   0.05116   0.00000   0.05153   2.17150
    A6        2.08337  -0.00576  -0.02205   0.00000  -0.02224   2.06113
    A7        2.07984  -0.00786  -0.02910   0.00000  -0.02929   2.05055
    A8        2.08699  -0.00372  -0.01481   0.00000  -0.01458   2.07241
    A9        2.09773   0.00166   0.00666   0.00000   0.00655   2.10428
   A10        2.09847   0.00206   0.00814   0.00000   0.00803   2.10650
   A11        2.08761  -0.00431  -0.01357   0.00000  -0.01374   2.07387
   A12        2.09822   0.00222   0.00767   0.00000   0.00776   2.10598
   A13        2.09735   0.00209   0.00590   0.00000   0.00598   2.10334
   A14        2.09016  -0.00343  -0.00849   0.00000  -0.00890   2.08126
   A15        2.10140   0.00470   0.01402   0.00000   0.01423   2.11563
   A16        2.09162  -0.00127  -0.00554   0.00000  -0.00533   2.08629
    D1       -0.00000  -0.00000   0.00000   0.00000   0.00000   0.00000
    D2        3.14159  -0.00000   0.00000   0.00000   0.00000   3.14159
    D3        0.00000   0.00000   0.00000   0.00000  -0.00000   0.00000
    D4        3.14159   0.00000   0.00000   0.00000   0.00000   3.14159
    D5        3.14159   0.00000   0.00000   0.00000   0.00000   3.14159
    D6        0.00000   0.00000   0.00000   0.00000   0.00000   0.00000
    D7       -0.00000  -0.00000   0.00000   0.00000   0.00000   0.00000
    D8        3.14159  -0.00000   0.00000   0.00000   0.00000   3.14159
    D9        0.00000   0.00000   0.00000   0.00000   0.00000   0.00000
   D10        3.14159  -0.00000   0.00000   0.00000   0.00000   3.14159
   D11        3.14159   0.00000   0.00000   0.00000   0.00000   3.14159
   D12       -0.00000   0.00000   0.00000   0.00000   0.00000   0.00000
   D13       -0.00000  -0.00000   0.00000   0.00000   0.00000   0.00000
   D14        3.14159  -0.00000   0.00000   0.00000   0.00000   3.14159
   D15        3.14159   0.00000   0.00000   0.00000   0.00000   3.14159
   D16       -0.00000  -0.00000   0.00000   0.00000   0.00000   0.00000
   D17        0.00000  -0.00000   0.00000   0.00000  -0.00000   0.00000
   D18        3.14159  -0.00000   0.00000   0.00000   0.00000   3.14159
   D19        3.14159   0.00000   0.00000   0.00000   0.00000   3.14159
   D20       -0.00000   0.00000   0.00000   0.00000   0.00000   0.00000
         Item               Value     Threshold  Converged?
 Maximum Force            0.121604     0.000450     NO 
 RMS     Force            0.019328     0.000300     NO 
 Maximum Displacement     0.523877     0.001800     NO 
 RMS     Displacement     0.100706     0.001200     NO 
 Predicted change in Energy=-7.434234D-02
 GradGradGradGradGradGradGradGradGradGradGradGradGradGradGradGradGradGrad

                          Input orientation:                          
 ---------------------------------------------------------------------
 Center     Atomic      Atomic             Coordinates (Angstroms)
 Number     Number       Type             X           Y           Z
 ---------------------------------------------------------------------
      1          6           0       -3.126246    0.212864   -0.000000
      2          6           0       -1.967894    0.942073   -0.000000
      3          6           0       -0.810282    0.247328   -0.000000
      4          6           0       -0.728220   -1.114721   -0.000000
      5          6           0       -1.905549   -1.855782   -0.000000
      6          6           0       -3.119932   -1.182968    0.000000
      7         17           0       -4.588788   -2.082239    0.000000
      8         17           0       -4.627312    1.046593    0.000000
      9         17           0        0.805745   -1.900320   -0.000000
     10         17           0       -1.859883   -3.571991    0.000000
     11          1           0        0.313640    0.920933   -0.000000
 ---------------------------------------------------------------------
                    Distance matrix (angstroms):
                    1          2          3          4          5
     1  C    0.000000
     2  C    1.368767   0.000000
     3  C    2.316220   1.350088   0.000000
     4  C    2.740987   2.401499   1.364519   0.000000
     5  C    2.401957   2.798550   2.371220   1.391141   0.000000
     6  C    1.395846   2.417228   2.716658   2.392685   1.388310
     7  Cl   2.721494   4.001943   4.438918   3.979960   2.692778
     8  Cl   1.717062   2.661470   3.899813   4.458049   3.978916
     9  Cl   4.463865   3.971432   2.687737   1.723430   2.711659
    10  Cl   3.991090   4.515357   3.960917   2.705335   1.716817
    11  H    3.512004   2.281632   1.310322   2.286780   3.554567
                    6          7          8          9         10
     6  C    0.000000
     7  Cl   1.722274   0.000000
     8  Cl   2.691307   3.129069   0.000000
     9  Cl   3.990680   5.397599   6.180809   0.000000
    10  Cl   2.700955   3.109064   5.384234   3.146436   0.000000
    11  H    4.026886   5.749160   4.942549   2.863850   4.991049
                   11
    11  H    0.000000
 Stoichiometry    C6HCl4(1-)
 Framework group  CS[SG(C6HCl4)]
 Deg. of freedom    19
 Full point group                 CS      NOp   2
 Largest Abelian subgroup         CS      NOp   2
 Largest concise Abelian subgroup C1      NOp   1
                         Standard orientation:                         
 ---------------------------------------------------------------------
 Center     Atomic      Atomic             Coordinates (Angstroms)
 Number     Number       Type             X           Y           Z
 ---------------------------------------------------------------------
      1          6           0        0.092398    1.622967    0.000000
      2          6           0        1.461100    1.609641    0.000000
      3          6           0        2.058875    0.399102    0.000000
      4          6           0        1.391075   -0.790837   -0.000000
      5          6           0        0.000000   -0.777212   -0.000000
      6          6           0       -0.657385    0.445592    0.000000
      7         17           0       -2.379234    0.483859    0.000000
      8         17           0       -0.719052    3.136192    0.000000
      9         17           0        2.256231   -2.281380   -0.000000
     10         17           0       -0.889998   -2.245327   -0.000000
     11          1           0        3.368541    0.357636   -0.000000
 ---------------------------------------------------------------------
 Rotational constants (GHZ):           1.1917600           0.5576360           0.3798844
 Standard basis: VSTO-6G (5D, 7F)
 There are    31 symmetry adapted cartesian basis functions of A'  symmetry.
 There are    10 symmetry adapted cartesian basis functions of A"  symmetry.
 There are    31 symmetry adapted basis functions of A'  symmetry.
 There are    10 symmetry adapted basis functions of A"  symmetry.
    41 basis functions,   246 primitive gaussians,    41 cartesian basis functions
    27 alpha electrons       27 beta electrons
       nuclear repulsion energy       298.9648016691 Hartrees.
 Integral buffers will be    131072 words long.
 Regular integral format.
 Two-electron integral symmetry is turned off.
 Do NDO integrals.
 One-electron integrals computed using PRISM.
 NBasis=    41 RedAO= T EigKep=  1.00D+00  NBF=    31    10
 NBsUse=    41 1.00D-06 EigRej= -1.00D+00 NBFU=    31    10
 Initial guess from the checkpoint file:  "geometry_chks/1234_ClBzAnionIntermediate.chk"
 B after Tr=    -0.000000    0.000000   -0.000000
         Rot=    0.999963    0.000000    0.000000   -0.008591 Ang=  -0.98 deg.
 Initial guess orbital symmetries:
       Occupied  (A') (A') (A') (A') (A') (A') (A') (A') (A') (A')
                 (A') (A') (A") (A') (A') (A") (A") (A") (A') (A')
                 (A') (A') (A") (A') (A") (A") (A')
       Virtual   (A") (A') (A") (A') (A') (A') (A') (A") (A') (A')
                 (A') (A') (A') (A')
 Keep J ints in memory in canonical form, NReq=864464.
 Overlap will be assumed to be unity.
 Requested convergence on RMS density matrix=1.00D-08 within**** cycles.
 Requested convergence on MAX density matrix=1.00D-06.
 Requested convergence on             energy=1.00D-06.
 No special actions if energy rises.
 Fock symm off for IB=2 I1=    1 I=   32 J=    6 Cut=1.00D-07 Err=1.77D-03
 Fock matrix is not symmetric: symmetry in diagonalization turned off.
 SCF Done:  E(RAM1) =  0.370734403991E-01 A.U. after   14 cycles
            NFock= 13  Conv=0.41D-08     -V/T= 1.0003
 Calling FoFJK, ICntrl=      2127 FMM=F ISym2X=1 I1Cent= 0 IOpClX= 0 NMat=1 NMatS=1 NMatT=0.
 ***** Axes restored to original set *****
 -------------------------------------------------------------------
 Center     Atomic                   Forces (Hartrees/Bohr)
 Number     Number              X              Y              Z
 -------------------------------------------------------------------
      1        6          -0.023841852    0.004584856    0.000000000
      2        6          -0.014299219    0.027614715   -0.000000000
      3        6           0.117388547    0.065194645    0.000000000
      4        6           0.020854653   -0.024490604    0.000000000
      5        6           0.000216823   -0.026254074    0.000000000
      6        6          -0.023472176   -0.007091339    0.000000000
      7       17           0.002583734    0.001393522   -0.000000000
      8       17          -0.002852784    0.000715206   -0.000000000
      9       17          -0.002474889    0.000834623   -0.000000000
     10       17           0.000362966    0.002326066   -0.000000000
     11        1          -0.074465803   -0.044827616   -0.000000000
 -------------------------------------------------------------------
 Cartesian Forces:  Max     0.117388547 RMS     0.029897030

 GradGradGradGradGradGradGradGradGradGradGradGradGradGradGradGradGradGrad
 Berny optimization.
 Using GEDIIS/GDIIS optimizer.
 FormGI is forming the generalized inverse of G from B-inverse, IUseBI=4.
 Internal  Forces:  Max     0.086917445 RMS     0.016697274
 Search for a local minimum.
 Step number   3 out of a maximum of   57
 All quantities printed in internal units (Hartrees-Bohrs-Radians)
 Mixed Optimization -- RFO/linear search
 Update second derivatives using D2CorX and points    2    3
 ITU=  0  1  0
 Use linear search instead of GDIIS.
     Eigenvalues ---    0.02011   0.02011   0.02011   0.02011   0.02011
     Eigenvalues ---    0.02011   0.02011   0.02011   0.05057   0.16001
     Eigenvalues ---    0.23883   0.24984   0.25000   0.25000   0.25000
     Eigenvalues ---    0.25000   0.25202   0.28426   0.29033   0.29034
     Eigenvalues ---    0.29114   0.41025   0.41639   0.44645   0.44656
     Eigenvalues ---    0.44657   0.66137
 RFO step:  Lambda=-4.39246766D-02 EMin= 2.01065753D-02
 Quartic linear search produced a step of  0.50600.
 Iteration  1 RMS(Cart)=  0.02985814 RMS(Int)=  0.07492482
 Iteration  2 RMS(Cart)=  0.02772506 RMS(Int)=  0.04575168
 Iteration  3 RMS(Cart)=  0.02779597 RMS(Int)=  0.01657901
 Iteration  4 RMS(Cart)=  0.01579588 RMS(Int)=  0.00012371
 Iteration  5 RMS(Cart)=  0.00000359 RMS(Int)=  0.00012366
 Iteration  6 RMS(Cart)=  0.00000000 RMS(Int)=  0.00012366
 ClnCor:  largest displacement from symmetrization is 1.17D-08 for atom     2.
 Variable       Old X    -DE/DX   Delta X   Delta X   Delta X     New X
                                 (Linear)    (Quad)   (Total)
    R1        2.58660   0.02797  -0.02367   0.07900   0.05529   2.64188
    R2        2.63777   0.01802  -0.00645   0.04427   0.03764   2.67540
    R3        3.24478   0.00284  -0.03089   0.03036  -0.00053   3.24425
    R4        2.55130   0.04141  -0.03555   0.12012   0.08474   2.63603
    R5        2.57857   0.03499  -0.02634   0.09999   0.07384   2.65241
    R6        2.47615  -0.08692  -0.29017  -0.42348  -0.71365   1.76250
    R7        2.62888   0.02476  -0.00941   0.06398   0.05461   2.68349
    R8        3.25681  -0.00258  -0.02683   0.00860  -0.01823   3.23858
    R9        2.62353   0.02567  -0.01124   0.06497   0.05357   2.67710
   R10        3.24431  -0.00232  -0.03104   0.01229  -0.01875   3.22556
   R11        3.25463  -0.00293  -0.02756   0.00778  -0.01978   3.23484
    A1        2.12812  -0.00097   0.01134  -0.01518  -0.00408   2.12404
    A2        2.07275   0.00172  -0.00728   0.01370   0.00653   2.07928
    A3        2.08232  -0.00075  -0.00405   0.00148  -0.00245   2.07986
    A4        2.03921   0.00401  -0.01858   0.03682   0.01842   2.05763
    A5        2.17150  -0.00989   0.02607  -0.05665  -0.03024   2.14126
    A6        2.06113   0.00516  -0.01125   0.02755   0.01613   2.07726
    A7        2.05055   0.00474  -0.01482   0.02910   0.01411   2.06466
    A8        2.07241   0.00044  -0.00738   0.01138   0.00423   2.07664
    A9        2.10428   0.00041   0.00331  -0.00275   0.00045   2.10473
   A10        2.10650  -0.00085   0.00406  -0.00863  -0.00468   2.10182
   A11        2.07387   0.00366  -0.00695   0.01640   0.00931   2.08318
   A12        2.10598  -0.00252   0.00393  -0.01130  -0.00730   2.09868
   A13        2.10334  -0.00114   0.00303  -0.00510  -0.00201   2.10133
   A14        2.08126   0.00276  -0.00450   0.00723   0.00236   2.08362
   A15        2.11563  -0.00112   0.00720  -0.00616   0.00122   2.11686
   A16        2.08629  -0.00164  -0.00270  -0.00107  -0.00359   2.08271
    D1       -0.00000  -0.00000   0.00000  -0.00000   0.00000   0.00000
    D2        3.14159  -0.00000   0.00000  -0.00000   0.00000   3.14159
    D3       -0.00000   0.00000   0.00000   0.00000   0.00000   0.00000
    D4        3.14159   0.00000   0.00000   0.00000   0.00000   3.14159
    D5        3.14159  -0.00000   0.00000  -0.00000   0.00000   3.14159
    D6        0.00000   0.00000   0.00000   0.00000  -0.00000   0.00000
    D7        0.00000   0.00000   0.00000   0.00000   0.00000   0.00000
    D8        3.14159  -0.00000   0.00000  -0.00000   0.00000   3.14159
    D9       -0.00000  -0.00000   0.00000  -0.00000   0.00000   0.00000
   D10        3.14159  -0.00000   0.00000  -0.00000   0.00000   3.14159
   D11        3.14159   0.00000   0.00000   0.00000   0.00000   3.14159
   D12       -0.00000   0.00000   0.00000   0.00000   0.00000   0.00000
   D13        0.00000  -0.00000   0.00000  -0.00000   0.00000   0.00000
   D14        3.14159  -0.00000   0.00000  -0.00000   0.00000   3.14159
   D15        3.14159   0.00000   0.00000   0.00000   0.00000   3.14159
   D16        0.00000  -0.00000   0.00000  -0.00000   0.00000   0.00000
   D17        0.00000   0.00000   0.00000   0.00000  -0.00000   0.00000
   D18        3.14159  -0.00000   0.00000  -0.00000   0.00000   3.14159
   D19        3.14159   0.00000   0.00000   0.00000   0.00000   3.14159
   D20       -0.00000   0.00000   0.00000   0.00000   0.00000   0.00000
         Item               Value     Threshold  Converged?
 Maximum Force            0.086917     0.000450     NO 
 RMS     Force            0.016697     0.000300     NO 
 Maximum Displacement     0.471705     0.001800     NO 
 RMS     Displacement     0.088746     0.001200     NO 
 Predicted change in Energy=-5.684490D-02
 GradGradGradGradGradGradGradGradGradGradGradGradGradGradGradGradGradGrad

                          Input orientation:                          
 ---------------------------------------------------------------------
 Center     Atomic      Atomic             Coordinates (Angstroms)
 Number     Number       Type             X           Y           Z
 ---------------------------------------------------------------------
      1          6           0       -3.128069    0.243924    0.000000
      2          6           0       -1.943536    0.986458    0.000000
      3          6           0       -0.735789    0.288479   -0.000000
      4          6           0       -0.670625   -1.113602   -0.000000
      5          6           0       -1.879546   -1.858600   -0.000000
      6          6           0       -3.118593   -1.171806    0.000000
      7         17           0       -4.575480   -2.070559    0.000000
      8         17           0       -4.632727    1.070569    0.000000
      9         17           0        0.843522   -1.916355   -0.000000
     10         17           0       -1.837901   -3.564986   -0.000000
     11          1           0        0.064024    0.768248   -0.000000
 ---------------------------------------------------------------------
                    Distance matrix (angstroms):
                    1          2          3          4          5
     1  C    0.000000
     2  C    1.398025   0.000000
     3  C    2.392694   1.394929   0.000000
     4  C    2.807473   2.455718   1.403594   0.000000
     5  C    2.445284   2.845777   2.432720   1.420040   0.000000
     6  C    1.415763   2.457410   2.794671   2.448660   1.416659
     7  Cl   2.729805   4.033917   4.506472   4.020406   2.704253
     8  Cl   1.716781   2.690506   3.974643   4.524252   4.019954
     9  Cl   4.521099   4.024178   2.712105   1.713783   2.723681
    10  Cl   4.021484   4.552670   4.007972   2.715110   1.706894
    11  H    3.234868   2.019384   0.932674   2.020165   3.267690
                    6          7          8          9         10
     6  C    0.000000
     7  Cl   1.711805   0.000000
     8  Cl   2.705707   3.141650   0.000000
     9  Cl   4.031464   5.421196   6.237869   0.000000
    10  Cl   2.714310   3.118918   5.412894   3.147700   0.000000
    11  H    3.727313   5.439102   4.706471   2.795480   4.732255
                   11
    11  H    0.000000
 Stoichiometry    C6HCl4(1-)
 Framework group  CS[SG(C6HCl4)]
 Deg. of freedom    19
 Full point group                 CS      NOp   2
 Largest Abelian subgroup         CS      NOp   2
 Largest concise Abelian subgroup C1      NOp   1
                         Standard orientation:                         
 ---------------------------------------------------------------------
 Center     Atomic      Atomic             Coordinates (Angstroms)
 Number     Number       Type             X           Y           Z
 ---------------------------------------------------------------------
      1          6           0        0.084066    1.651993   -0.000000
      2          6           0        1.482017    1.637572   -0.000000
      3          6           0        2.121859    0.398045   -0.000000
      4          6           0        1.419811   -0.817358   -0.000000
      5          6           0       -0.000000   -0.791846    0.000000
      6          6           0       -0.672228    0.455162    0.000000
      7         17           0       -2.383772    0.485111    0.000000
      8         17           0       -0.736248    3.160112    0.000000
      9         17           0        2.261009   -2.310488   -0.000000
     10         17           0       -0.886123   -2.250707    0.000000
     11          1           0        3.054115    0.370126   -0.000000
 ---------------------------------------------------------------------
 Rotational constants (GHZ):           1.1842955           0.5476740           0.3744915
 Standard basis: VSTO-6G (5D, 7F)
 There are    31 symmetry adapted cartesian basis functions of A'  symmetry.
 There are    10 symmetry adapted cartesian basis functions of A"  symmetry.
 There are    31 symmetry adapted basis functions of A'  symmetry.
 There are    10 symmetry adapted basis functions of A"  symmetry.
    41 basis functions,   246 primitive gaussians,    41 cartesian basis functions
    27 alpha electrons       27 beta electrons
       nuclear repulsion energy       298.0517152983 Hartrees.
 Integral buffers will be    131072 words long.
 Regular integral format.
 Two-electron integral symmetry is turned off.
 Do NDO integrals.
 One-electron integrals computed using PRISM.
 NBasis=    41 RedAO= T EigKep=  1.00D+00  NBF=    31    10
 NBsUse=    41 1.00D-06 EigRej= -1.00D+00 NBFU=    31    10
 Initial guess from the checkpoint file:  "geometry_chks/1234_ClBzAnionIntermediate.chk"
 B after Tr=     0.000000    0.000000    0.000000
         Rot=    1.000000   -0.000000    0.000000    0.000033 Ang=   0.00 deg.
 Initial guess orbital symmetries:
       Occupied  (A') (A') (A') (A') (A') (A') (A') (A') (A') (A')
                 (A') (A') (A") (A') (A') (A") (A") (A') (A") (A')
                 (A') (A') (A") (A') (A") (A") (A')
       Virtual   (A") (A") (A') (A') (A') (A') (A') (A") (A') (A')
                 (A') (A') (A') (A')
 Keep J ints in memory in canonical form, NReq=864464.
 Overlap will be assumed to be unity.
 Requested convergence on RMS density matrix=1.00D-08 within**** cycles.
 Requested convergence on MAX density matrix=1.00D-06.
 Requested convergence on             energy=1.00D-06.
 No special actions if energy rises.
 Fock symm off for IB=2 I1=    1 I=   32 J=    6 Cut=1.00D-07 Err=1.44D-03
 Fock matrix is not symmetric: symmetry in diagonalization turned off.
 SCF Done:  E(RAM1) =  0.365403184784E-01 A.U. after   15 cycles
            NFock= 14  Conv=0.22D-08     -V/T= 1.0003
 Calling FoFJK, ICntrl=      2127 FMM=F ISym2X=1 I1Cent= 0 IOpClX= 0 NMat=1 NMatS=1 NMatT=0.
 ***** Axes restored to original set *****
 -------------------------------------------------------------------
 Center     Atomic                   Forces (Hartrees/Bohr)
 Number     Number              X              Y              Z
 -------------------------------------------------------------------
      1        6           0.011516222   -0.010424241    0.000000000
      2        6          -0.013388971   -0.012155131   -0.000000000
      3        6          -0.126377401   -0.079928839    0.000000000
      4        6          -0.027839624   -0.006054680   -0.000000000
      5        6           0.002650053    0.015678465    0.000000000
      6        6           0.012655867    0.007845800    0.000000000
      7       17           0.000477663   -0.000059983   -0.000000000
      8       17           0.001691778   -0.000830772   -0.000000000
      9       17          -0.001151770    0.000352834   -0.000000000
     10       17          -0.000119120   -0.000128840   -0.000000000
     11        1           0.139885303    0.085705387   -0.000000000
 -------------------------------------------------------------------
 Cartesian Forces:  Max     0.139885303 RMS     0.039363501

 GradGradGradGradGradGradGradGradGradGradGradGradGradGradGradGradGradGrad
 Berny optimization.
 Using GEDIIS/GDIIS optimizer.
 FormGI is forming the generalized inverse of G from B-inverse, IUseBI=4.
 Internal  Forces:  Max     0.164045548 RMS     0.024548747
 Search for a local minimum.
 Step number   4 out of a maximum of   57
 All quantities printed in internal units (Hartrees-Bohrs-Radians)
 Mixed Optimization -- RFO/linear search
 Update second derivatives using D2CorX and points    3    4
 DE= -5.33D-04 DEPred=-5.68D-02 R= 9.38D-03
 Trust test= 9.38D-03 RLast= 7.32D-01 DXMaxT set to 2.52D-01
 ITU= -1  0  1  0
 Use linear search instead of GDIIS.
 Linear search step of   0.319 exceeds DXMaxT=   0.252 but not scaled.
 Quartic linear search produced a step of -0.43644.
 Iteration  1 RMS(Cart)=  0.02436379 RMS(Int)=  0.01625907
 Iteration  2 RMS(Cart)=  0.01550481 RMS(Int)=  0.00001894
 Iteration  3 RMS(Cart)=  0.00000335 RMS(Int)=  0.00001876
 Iteration  4 RMS(Cart)=  0.00000000 RMS(Int)=  0.00001876
 ClnCor:  largest displacement from symmetrization is 9.87D-09 for atom     9.
 Variable       Old X    -DE/DX   Delta X   Delta X   Delta X     New X
                                 (Linear)    (Quad)   (Total)
    R1        2.64188  -0.01225  -0.02413   0.00000  -0.02412   2.61776
    R2        2.67540  -0.01658  -0.01643   0.00000  -0.01640   2.65901
    R3        3.24425  -0.00188   0.00023   0.00000   0.00023   3.24448
    R4        2.63603  -0.00147  -0.03698   0.00000  -0.03701   2.59903
    R5        2.65241  -0.00159  -0.03223   0.00000  -0.03226   2.62015
    R6        1.76250   0.16405   0.31146   0.00000   0.31146   2.07396
    R7        2.68349  -0.01866  -0.02383   0.00000  -0.02384   2.65965
    R8        3.23858  -0.00118   0.00796   0.00000   0.00796   3.24654
    R9        2.67710  -0.01756  -0.02338   0.00000  -0.02336   2.65374
   R10        3.22556   0.00013   0.00818   0.00000   0.00818   3.23375
   R11        3.23484  -0.00038   0.00863   0.00000   0.00863   3.24348
    A1        2.12404   0.00334   0.00178   0.00000   0.00182   2.12586
    A2        2.07928  -0.00181  -0.00285   0.00000  -0.00287   2.07641
    A3        2.07986  -0.00153   0.00107   0.00000   0.00105   2.08092
    A4        2.05763   0.00142  -0.00804   0.00000  -0.00806   2.04957
    A5        2.14126  -0.01236   0.01320   0.00000   0.01315   2.15441
    A6        2.07726   0.00482  -0.00704   0.00000  -0.00701   2.07024
    A7        2.06466   0.00754  -0.00616   0.00000  -0.00613   2.05853
    A8        2.07664   0.00675  -0.00185   0.00000  -0.00188   2.07475
    A9        2.10473  -0.00301  -0.00020   0.00000  -0.00018   2.10455
   A10        2.10182  -0.00375   0.00204   0.00000   0.00206   2.10388
   A11        2.08318   0.00079  -0.00406   0.00000  -0.00404   2.07913
   A12        2.09868  -0.00020   0.00319   0.00000   0.00318   2.10186
   A13        2.10133  -0.00059   0.00088   0.00000   0.00087   2.10220
   A14        2.08362   0.00006  -0.00103   0.00000  -0.00098   2.08265
   A15        2.11686   0.00046  -0.00053   0.00000  -0.00056   2.11629
   A16        2.08271  -0.00052   0.00157   0.00000   0.00154   2.08425
    D1        0.00000  -0.00000   0.00000   0.00000   0.00000   0.00000
    D2        3.14159   0.00000   0.00000   0.00000   0.00000   3.14159
    D3       -0.00000   0.00000   0.00000   0.00000   0.00000   0.00000
    D4        3.14159   0.00000   0.00000   0.00000   0.00000   3.14159
    D5        3.14159  -0.00000   0.00000   0.00000   0.00000   3.14159
    D6        0.00000   0.00000   0.00000   0.00000   0.00000   0.00000
    D7       -0.00000   0.00000   0.00000   0.00000   0.00000   0.00000
    D8        3.14159  -0.00000   0.00000   0.00000   0.00000   3.14159
    D9        0.00000  -0.00000   0.00000   0.00000   0.00000   0.00000
   D10        3.14159  -0.00000   0.00000   0.00000   0.00000   3.14159
   D11        3.14159   0.00000   0.00000   0.00000   0.00000   3.14159
   D12       -0.00000   0.00000   0.00000   0.00000   0.00000   0.00000
   D13       -0.00000   0.00000   0.00000   0.00000   0.00000   0.00000
   D14        3.14159  -0.00000   0.00000   0.00000   0.00000   3.14159
   D15        3.14159   0.00000   0.00000   0.00000   0.00000   3.14159
   D16        0.00000  -0.00000   0.00000   0.00000  -0.00000   0.00000
   D17        0.00000   0.00000   0.00000   0.00000  -0.00000   0.00000
   D18        3.14159  -0.00000   0.00000   0.00000   0.00000   3.14159
   D19        3.14159   0.00000   0.00000   0.00000   0.00000   3.14159
   D20       -0.00000  -0.00000   0.00000   0.00000   0.00000   0.00000
         Item               Value     Threshold  Converged?
 Maximum Force            0.164046     0.000450     NO 
 RMS     Force            0.024549     0.000300     NO 
 Maximum Displacement     0.205693     0.001800     NO 
 RMS     Displacement     0.038711     0.001200     NO 
 Predicted change in Energy=-3.388701D-02
 GradGradGradGradGradGradGradGradGradGradGradGradGradGradGradGradGradGrad

                          Input orientation:                          
 ---------------------------------------------------------------------
 Center     Atomic      Atomic             Coordinates (Angstroms)
 Number     Number       Type             X           Y           Z
 ---------------------------------------------------------------------
      1          6           0       -3.127253    0.230401   -0.000000
      2          6           0       -1.954198    0.967208   -0.000000
      3          6           0       -0.768368    0.270513   -0.000000
      4          6           0       -0.695713   -1.114107   -0.000000
      5          6           0       -1.890857   -1.857394   -0.000000
      6          6           0       -3.119131   -1.176661    0.000000
      7         17           0       -4.581241   -2.075647    0.000000
      8         17           0       -4.630385    1.060072    0.000000
      9         17           0        0.827081   -1.909468   -0.000000
     10         17           0       -1.847528   -3.568070    0.000000
     11          1           0        0.172872    0.834922   -0.000000
 ---------------------------------------------------------------------
                    Distance matrix (angstroms):
                    1          2          3          4          5
     1  C    0.000000
     2  C    1.385260   0.000000
     3  C    2.359226   1.375346   0.000000
     4  C    2.778505   2.432212   1.386525   0.000000
     5  C    2.426430   2.825312   2.405819   1.407424   0.000000
     6  C    1.407086   2.439927   2.760507   2.424225   1.404299
     7  Cl   2.726158   4.019990   4.476881   4.002734   2.699222
     8  Cl   1.716904   2.677798   3.941901   4.495409   4.002077
     9  Cl   4.496199   4.001347   2.701439   1.717993   2.718436
    10  Cl   4.008252   4.536532   3.987393   2.710832   1.711225
    11  H    3.355037   2.131180   1.097493   2.133812   3.392276
                    6          7          8          9         10
     6  C    0.000000
     7  Cl   1.716374   0.000000
     8  Cl   2.699419   3.136105   0.000000
     9  Cl   4.013676   5.410874   6.213059   0.000000
    10  Cl   2.708470   3.114564   5.400370   3.147140   0.000000
    11  H    3.857946   5.574316   4.808532   2.821288   4.844414
                   11
    11  H    0.000000
 Stoichiometry    C6HCl4(1-)
 Framework group  CS[SG(C6HCl4)]
 Deg. of freedom    19
 Full point group                 CS      NOp   2
 Largest Abelian subgroup         CS      NOp   2
 Largest concise Abelian subgroup C1      NOp   1
                         Standard orientation:                         
 ---------------------------------------------------------------------
 Center     Atomic      Atomic             Coordinates (Angstroms)
 Number     Number       Type             X           Y           Z
 ---------------------------------------------------------------------
      1          6           0        0.087785    1.639363    0.000000
      2          6           0        1.472975    1.625481    0.000000
      3          6           0        2.094321    0.398490    0.000000
      4          6           0        1.407277   -0.805844    0.000000
      5          6           0        0.000000   -0.785479    0.000000
      6          6           0       -0.665686    0.451014    0.000000
      7         17           0       -2.381731    0.484622    0.000000
      8         17           0       -0.728698    3.149698    0.000000
      9         17           0        2.258844   -2.297934    0.000000
     10         17           0       -0.887905   -2.248324    0.000000
     11          1           0        3.191297    0.364808    0.000000
 ---------------------------------------------------------------------
 Rotational constants (GHZ):           1.1876367           0.5519873           0.3768403
 Standard basis: VSTO-6G (5D, 7F)
 There are    31 symmetry adapted cartesian basis functions of A'  symmetry.
 There are    10 symmetry adapted cartesian basis functions of A"  symmetry.
 There are    31 symmetry adapted basis functions of A'  symmetry.
 There are    10 symmetry adapted basis functions of A"  symmetry.
    41 basis functions,   246 primitive gaussians,    41 cartesian basis functions
    27 alpha electrons       27 beta electrons
       nuclear repulsion energy       298.4142628328 Hartrees.
 Integral buffers will be    131072 words long.
 Regular integral format.
 Two-electron integral symmetry is turned off.
 Do NDO integrals.
 One-electron integrals computed using PRISM.
 NBasis=    41 RedAO= T EigKep=  1.00D+00  NBF=    31    10
 NBsUse=    41 1.00D-06 EigRej= -1.00D+00 NBFU=    31    10
 Lowest energy guess from the checkpoint file:  "geometry_chks/1234_ClBzAnionIntermediate.chk"
 B after Tr=    -0.000000    0.000000    0.000000
         Rot=    1.000000   -0.000000    0.000000    0.000033 Ang=   0.00 deg.
 B after Tr=    -0.000000    0.000000   -0.000000
         Rot=    1.000000   -0.000000    0.000000    0.000001 Ang=   0.00 deg.
 Initial guess orbital symmetries:
       Occupied  (A') (A') (A') (A") (A') (A') (A") (A') (A') (A')
                 (A') (A") (A') (A') (A") (A") (A") (A") (A") (A")
                 (A") (A") (A") (A") (A") (A") (A")
       Virtual   (A') (A') (A') (A") (A') (A') (A") (A') (A') (A')
                 (A') (A") (A') (A')
 Keep J ints in memory in canonical form, NReq=864464.
 Overlap will be assumed to be unity.
 Requested convergence on RMS density matrix=1.00D-08 within**** cycles.
 Requested convergence on MAX density matrix=1.00D-06.
 Requested convergence on             energy=1.00D-06.
 No special actions if energy rises.
 An orbital has undefined symmetry, so N**3 symmetry is turned off.
 SCF Done:  E(RAM1) =  0.131352070672E-01 A.U. after   11 cycles
            NFock= 10  Conv=0.79D-08     -V/T= 1.0001
 Calling FoFJK, ICntrl=      2127 FMM=F ISym2X=1 I1Cent= 0 IOpClX= 0 NMat=1 NMatS=1 NMatT=0.
 ***** Axes restored to original set *****
 -------------------------------------------------------------------
 Center     Atomic                   Forces (Hartrees/Bohr)
 Number     Number              X              Y              Z
 -------------------------------------------------------------------
      1        6          -0.003102660   -0.004187332    0.000000000
      2        6          -0.013063853    0.004022544   -0.000000000
      3        6           0.022298603    0.008539840    0.000000000
      4        6          -0.007832700   -0.012733599   -0.000000000
      5        6           0.001557570   -0.001766753    0.000000000
      6        6          -0.002366469    0.001477777    0.000000000
      7       17           0.001386039    0.000559328   -0.000000000
      8       17          -0.000230747   -0.000168928   -0.000000000
      9       17          -0.001730380    0.000578409   -0.000000000
     10       17           0.000091442    0.000960979   -0.000000000
     11        1           0.002993155    0.002717735   -0.000000000
 -------------------------------------------------------------------
 Cartesian Forces:  Max     0.022298603 RMS     0.005624380

 GradGradGradGradGradGradGradGradGradGradGradGradGradGradGradGradGradGrad
 Berny optimization.
 Using GEDIIS/GDIIS optimizer.
 FormGI is forming the generalized inverse of G from B-inverse, IUseBI=4.
 Internal  Forces:  Max     0.015602799 RMS     0.003808746
 Search for a local minimum.
 Step number   5 out of a maximum of   57
 All quantities printed in internal units (Hartrees-Bohrs-Radians)
 Mixed Optimization -- RFO/linear search
 Update second derivatives using D2CorX and points    3    4    5
 ITU=  0 -1  0  1  0
 Use linear search instead of GDIIS.
     Eigenvalues ---    0.02011   0.02011   0.02011   0.02011   0.02011
     Eigenvalues ---    0.02011   0.02011   0.02011   0.16000   0.23653
     Eigenvalues ---    0.24979   0.24999   0.25000   0.25000   0.25000
     Eigenvalues ---    0.25185   0.28306   0.29033   0.29034   0.29113
     Eigenvalues ---    0.40558   0.41463   0.44483   0.44645   0.44657
     Eigenvalues ---    0.52046   0.54116
 RFO step:  Lambda=-1.74050179D-03 EMin= 2.01065758D-02
 Quartic linear search produced a step of -0.00304.
 Iteration  1 RMS(Cart)=  0.01402727 RMS(Int)=  0.00013977
 Iteration  2 RMS(Cart)=  0.00018871 RMS(Int)=  0.00004903
 Iteration  3 RMS(Cart)=  0.00000002 RMS(Int)=  0.00004903
 ClnCor:  largest displacement from symmetrization is 8.97D-11 for atom     8.
 Variable       Old X    -DE/DX   Delta X   Delta X   Delta X     New X
                                 (Linear)    (Quad)   (Total)
    R1        2.61776   0.00451   0.00007   0.00706   0.00713   2.62489
    R2        2.65901  -0.00217   0.00005  -0.00757  -0.00759   2.65142
    R3        3.24448   0.00012  -0.00000  -0.00314  -0.00314   3.24134
    R4        2.59903   0.01560   0.00011   0.03152   0.03170   2.63072
    R5        2.62015   0.01264   0.00010   0.02585   0.02602   2.64617
    R6        2.07396   0.00396  -0.00095   0.00422   0.00327   2.07723
    R7        2.65965  -0.00060   0.00007  -0.00316  -0.00308   2.65657
    R8        3.24654  -0.00180  -0.00002  -0.00892  -0.00895   3.23759
    R9        2.65374   0.00025   0.00007  -0.00305  -0.00304   2.65070
   R10        3.23375  -0.00096  -0.00002  -0.00649  -0.00652   3.22723
   R11        3.24348  -0.00147  -0.00003  -0.00781  -0.00784   3.23564
    A1        2.12586   0.00149  -0.00001   0.00527   0.00518   2.13104
    A2        2.07641  -0.00033   0.00001  -0.00126  -0.00120   2.07521
    A3        2.08092  -0.00117  -0.00000  -0.00402  -0.00398   2.07694
    A4        2.04957   0.00247   0.00002   0.01293   0.01304   2.06261
    A5        2.15441  -0.01110  -0.00004  -0.03819  -0.03809   2.11632
    A6        2.07024   0.00473   0.00002   0.01441   0.01436   2.08460
    A7        2.05853   0.00637   0.00002   0.02379   0.02374   2.08227
    A8        2.07475   0.00430   0.00001   0.01929   0.01938   2.09413
    A9        2.10455  -0.00168   0.00000  -0.00796  -0.00800   2.09655
   A10        2.10388  -0.00262  -0.00001  -0.01133  -0.01137   2.09250
   A11        2.07913   0.00187   0.00001   0.00324   0.00319   2.08232
   A12        2.10186  -0.00112  -0.00001  -0.00225  -0.00222   2.09963
   A13        2.10220  -0.00075  -0.00000  -0.00099  -0.00096   2.10123
   A14        2.08265   0.00096   0.00000  -0.00255  -0.00269   2.07995
   A15        2.11629  -0.00008   0.00000   0.00344   0.00351   2.11981
   A16        2.08425  -0.00089  -0.00000  -0.00089  -0.00082   2.08342
    D1       -0.00000  -0.00000   0.00000  -0.00000   0.00000   0.00000
    D2        3.14159   0.00000   0.00000   0.00000   0.00000   3.14159
    D3        0.00000   0.00000   0.00000   0.00000  -0.00000   0.00000
    D4        3.14159   0.00000   0.00000   0.00000   0.00000   3.14159
    D5        3.14159  -0.00000   0.00000  -0.00000   0.00000   3.14159
    D6       -0.00000  -0.00000   0.00000  -0.00000   0.00000   0.00000
    D7       -0.00000   0.00000   0.00000  -0.00000   0.00000   0.00000
    D8        3.14159  -0.00000   0.00000  -0.00000   0.00000   3.14159
    D9        0.00000   0.00000   0.00000   0.00000   0.00000   0.00000
   D10        3.14159  -0.00000   0.00000  -0.00000   0.00000   3.14159
   D11        3.14159   0.00000   0.00000   0.00000   0.00000   3.14159
   D12       -0.00000   0.00000   0.00000   0.00000   0.00000   0.00000
   D13        0.00000  -0.00000   0.00000  -0.00000  -0.00000   0.00000
   D14        3.14159  -0.00000   0.00000  -0.00000   0.00000   3.14159
   D15        3.14159   0.00000   0.00000   0.00000   0.00000   3.14159
   D16        0.00000  -0.00000   0.00000  -0.00000   0.00000   0.00000
   D17       -0.00000  -0.00000   0.00000  -0.00000   0.00000   0.00000
   D18        3.14159  -0.00000   0.00000  -0.00000   0.00000   3.14159
   D19        3.14159   0.00000   0.00000   0.00000   0.00000   3.14159
   D20        0.00000  -0.00000   0.00000  -0.00000   0.00000   0.00000
         Item               Value     Threshold  Converged?
 Maximum Force            0.015603     0.000450     NO 
 RMS     Force            0.003809     0.000300     NO 
 Maximum Displacement     0.042797     0.001800     NO 
 RMS     Displacement     0.014005     0.001200     NO 
 Predicted change in Energy=-8.730450D-04
 GradGradGradGradGradGradGradGradGradGradGradGradGradGradGradGradGradGrad

                          Input orientation:                          
 ---------------------------------------------------------------------
 Center     Atomic      Atomic             Coordinates (Angstroms)
 Number     Number       Type             X           Y           Z
 ---------------------------------------------------------------------
      1          6           0       -3.131083    0.224235   -0.000000
      2          6           0       -1.958475    0.968813   -0.000000
      3          6           0       -0.745721    0.285276   -0.000000
      4          6           0       -0.700529   -1.114288   -0.000000
      5          6           0       -1.894858   -1.855796   -0.000000
      6          6           0       -3.123367   -1.178813    0.000000
      7         17           0       -4.579028   -2.080350    0.000000
      8         17           0       -4.635823    1.047534    0.000000
      9         17           0        0.808325   -1.925837   -0.000000
     10         17           0       -1.849132   -3.562960    0.000000
     11          1           0        0.194970    0.853956   -0.000000
 ---------------------------------------------------------------------
                    Distance matrix (angstroms):
                    1          2          3          4          5
     1  C    0.000000
     2  C    1.389030   0.000000
     3  C    2.386143   1.392119   0.000000
     4  C    2.774749   2.433461   1.400293   0.000000
     5  C    2.419665   2.825325   2.429960   1.405794   0.000000
     6  C    1.403069   2.443209   2.792267   2.423696   1.402690
     7  Cl   2.721701   4.020533   4.504490   3.997002   2.693546
     8  Cl   1.715244   2.678505   3.964080   4.489990   3.992770
     9  Cl   4.487956   4.004270   2.702606   1.713259   2.704091
    10  Cl   3.998280   4.533092   4.003303   2.704678   1.707777
    11  H    3.385140   2.156505   1.099225   2.162384   3.422008
                    6          7          8          9         10
     6  C    0.000000
     7  Cl   1.712226   0.000000
     8  Cl   2.691495   3.128399   0.000000
     9  Cl   4.002030   5.389569   6.203200   0.000000
    10  Cl   2.703300   3.106520   5.387235   3.121258   0.000000
    11  H    3.891466   5.603678   4.834669   2.846657   4.866981
                   11
    11  H    0.000000
 Stoichiometry    C6HCl4(1-)
 Framework group  CS[SG(C6HCl4)]
 Deg. of freedom    19
 Full point group                 CS      NOp   2
 Largest Abelian subgroup         CS      NOp   2
 Largest concise Abelian subgroup C1      NOp   1
                         Standard orientation:                         
 ---------------------------------------------------------------------
 Center     Atomic      Atomic             Coordinates (Angstroms)
 Number     Number       Type             X           Y           Z
 ---------------------------------------------------------------------
      1          6           0        0.091676    1.637322   -0.000000
      2          6           0        1.480657    1.625660   -0.000000
      3          6           0        2.127725    0.393061   -0.000000
      4          6           0        1.405553   -0.806642   -0.000000
      5          6           0        0.000000   -0.780605    0.000000
      6          6           0       -0.663855    0.455046    0.000000
      7         17           0       -2.375751    0.488645    0.000000
      8         17           0       -0.724654    3.145854    0.000000
      9         17           0        2.231719   -2.307544   -0.000000
     10         17           0       -0.888784   -2.238880    0.000000
     11          1           0        3.226442    0.359661   -0.000000
 ---------------------------------------------------------------------
 Rotational constants (GHZ):           1.1911053           0.5537170           0.3779957
 Standard basis: VSTO-6G (5D, 7F)
 There are    31 symmetry adapted cartesian basis functions of A'  symmetry.
 There are    10 symmetry adapted cartesian basis functions of A"  symmetry.
 There are    31 symmetry adapted basis functions of A'  symmetry.
 There are    10 symmetry adapted basis functions of A"  symmetry.
    41 basis functions,   246 primitive gaussians,    41 cartesian basis functions
    27 alpha electrons       27 beta electrons
       nuclear repulsion energy       298.4515296094 Hartrees.
 Integral buffers will be    131072 words long.
 Regular integral format.
 Two-electron integral symmetry is turned off.
 Do NDO integrals.
 One-electron integrals computed using PRISM.
 NBasis=    41 RedAO= T EigKep=  1.00D+00  NBF=    31    10
 NBsUse=    41 1.00D-06 EigRej= -1.00D+00 NBFU=    31    10
 Initial guess from the checkpoint file:  "geometry_chks/1234_ClBzAnionIntermediate.chk"
 B after Tr=    -0.000000   -0.000000   -0.000000
[...]
 ***** Axes restored to original set *****
 -------------------------------------------------------------------
 Center     Atomic                   Forces (Hartrees/Bohr)
 Number     Number              X              Y              Z
 -------------------------------------------------------------------
      1        6           0.000018974   -0.000057284    0.000000000
      2        6           0.000005902    0.000007273    0.000000000
      3        6          -0.000002826    0.000078145    0.000000000
      4        6           0.000062063   -0.000040216   -0.000000000
      5        6          -0.000061617    0.000053190    0.000000000
      6        6           0.000031658    0.000008221   -0.000000000
      7       17           0.000043884   -0.000000373   -0.000000000
      8       17           0.000019117   -0.000025155   -0.000000000
      9       17          -0.000054823    0.000020914   -0.000000000
     10       17          -0.000028820    0.000004844   -0.000000000
     11        1          -0.000033512   -0.000049559   -0.000000000
 -------------------------------------------------------------------
 Cartesian Forces:  Max     0.000078145 RMS     0.000032008

 GradGradGradGradGradGradGradGradGradGradGradGradGradGradGradGradGradGrad
 Berny optimization.
 Using GEDIIS/GDIIS optimizer.
 FormGI is forming the generalized inverse of G from B-inverse, IUseBI=4.
 Internal  Forces:  Max     0.000118826 RMS     0.000029362
 Search for a local minimum.
 Step number   9 out of a maximum of   57
 All quantities printed in internal units (Hartrees-Bohrs-Radians)
 Mixed Optimization -- En-DIIS/RFO-DIIS
 Swapping is turned off.
 Update second derivatives using D2CorX and points    3    4    5    6    7
                                                      8    9
 DE= -4.24D-07 DEPred=-4.88D-07 R= 8.68D-01
 Trust test= 8.68D-01 RLast= 1.66D-03 DXMaxT set to 2.52D-01
 ITU=  0  1  1  1  0 -1  0  1  0
     Eigenvalues ---    0.02011   0.02011   0.02011   0.02011   0.02011
     Eigenvalues ---    0.02011   0.02011   0.02011   0.14303   0.16622
     Eigenvalues ---    0.23903   0.24988   0.24995   0.25076   0.25345
     Eigenvalues ---    0.26014   0.28722   0.29085   0.29142   0.30763
     Eigenvalues ---    0.41338   0.42514   0.44242   0.44723   0.50794
     Eigenvalues ---    0.59766   0.71134
 En-DIIS/RFO-DIIS/Sim-DIIS IScMMF=       -3 using points:     9    8    7
 RFO step:  Lambda=-8.33282293D-08.
 DidBck=F Rises=F RFO-DIIS coefs:    1.00404   -0.01156    0.00751
 Iteration  1 RMS(Cart)=  0.00013573 RMS(Int)=  0.00000001
 Iteration  2 RMS(Cart)=  0.00000001 RMS(Int)=  0.00000000
 ClnCor:  largest displacement from symmetrization is 4.58D-13 for atom    11.
 Variable       Old X    -DE/DX   Delta X   Delta X   Delta X     New X
                                 (Linear)    (Quad)   (Total)
    R1        2.61970  -0.00000   0.00001   0.00003   0.00004   2.61974
    R2        2.65158  -0.00007   0.00001  -0.00010  -0.00009   2.65149
    R3        3.24740  -0.00003  -0.00001  -0.00007  -0.00008   3.24733
    R4        2.62366  -0.00002   0.00001  -0.00003  -0.00002   2.62363
    R5        2.64135   0.00002  -0.00000   0.00004   0.00004   2.64139
    R6        2.07652  -0.00005   0.00000  -0.00013  -0.00012   2.07640
    R7        2.65271  -0.00001   0.00001  -0.00001  -0.00000   2.65271
    R8        3.24789  -0.00006  -0.00003  -0.00018  -0.00021   3.24768
    R9        2.65531  -0.00012   0.00000  -0.00015  -0.00015   2.65516
   R10        3.23112  -0.00001   0.00001  -0.00000   0.00001   3.23112
   R11        3.23709  -0.00004   0.00001  -0.00010  -0.00009   3.23700
    A1        2.13314   0.00002  -0.00000   0.00008   0.00007   2.13321
    A2        2.07180   0.00001   0.00000   0.00005   0.00005   2.07186
    A3        2.07824  -0.00003   0.00000  -0.00013  -0.00013   2.07812
    A4        2.06766  -0.00003  -0.00001  -0.00008  -0.00008   2.06758
    A5        2.10965  -0.00000   0.00001  -0.00000   0.00001   2.10966
    A6        2.08672   0.00003  -0.00000   0.00017   0.00016   2.08689
    A7        2.08681  -0.00002  -0.00001  -0.00017  -0.00018   2.08664
    A8        2.10158  -0.00001  -0.00001  -0.00001  -0.00002   2.10156
    A9        2.08721   0.00002   0.00001   0.00004   0.00005   2.08726
   A10        2.09440  -0.00000  -0.00000  -0.00003  -0.00004   2.09436
   A11        2.08003   0.00001   0.00000   0.00002   0.00002   2.08005
   A12        2.10221   0.00004  -0.00001   0.00014   0.00013   2.10234
   A13        2.10094  -0.00005   0.00001  -0.00016  -0.00015   2.10079
   A14        2.07430   0.00001   0.00000  -0.00001  -0.00000   2.07430
   A15        2.12335   0.00003  -0.00001   0.00012   0.00012   2.12347
   A16        2.08553  -0.00005   0.00000  -0.00012  -0.00011   2.08542
    D1        0.00000  -0.00000   0.00000  -0.00000   0.00000   0.00000
    D2        3.14159   0.00000   0.00000   0.00000   0.00000   3.14159
    D3       -0.00000   0.00000   0.00000   0.00000   0.00000   0.00000
    D4        3.14159   0.00000   0.00000   0.00000   0.00000   3.14159
    D5        3.14159  -0.00000   0.00000  -0.00000   0.00000   3.14159
    D6       -0.00000  -0.00000   0.00000  -0.00000   0.00000   0.00000
    D7       -0.00000  -0.00000   0.00000  -0.00000   0.00000   0.00000
    D8        3.14159  -0.00000   0.00000  -0.00000   0.00000   3.14159
    D9        0.00000   0.00000   0.00000   0.00000   0.00000   0.00000
   D10        3.14159   0.00000   0.00000   0.00000   0.00000   3.14159
   D11        3.14159   0.00000   0.00000   0.00000   0.00000   3.14159
   D12        0.00000   0.00000   0.00000   0.00000  -0.00000   0.00000
   D13        0.00000   0.00000   0.00000   0.00000   0.00000   0.00000
   D14        3.14159  -0.00000   0.00000  -0.00000   0.00000   3.14159
   D15        3.14159   0.00000   0.00000   0.00000   0.00000   3.14159
   D16        0.00000  -0.00000   0.00000  -0.00000  -0.00000   0.00000
   D17       -0.00000  -0.00000   0.00000  -0.00000   0.00000   0.00000
   D18        3.14159  -0.00000   0.00000  -0.00000   0.00000   3.14159
   D19        3.14159   0.00000   0.00000   0.00000   0.00000   3.14159
   D20        0.00000   0.00000   0.00000   0.00000  -0.00000   0.00000
         Item               Value     Threshold  Converged?
 Maximum Force            0.000119     0.000450     YES
 RMS     Force            0.000029     0.000300     YES
 Maximum Displacement     0.000499     0.001800     YES
 RMS     Displacement     0.000136     0.001200     YES
 Predicted change in Energy=-4.522027D-08
 Optimization completed.
    -- Stationary point found.
                           ----------------------------
                           !   Optimized Parameters   !
                           ! (Angstroms and Degrees)  !
 --------------------------                            --------------------------
 ! Name  Definition              Value          Derivative Info.                !
 --------------------------------------------------------------------------------
 ! R1    R(1,2)                  1.3863         -DE/DX =    0.0                 !
 ! R2    R(1,6)                  1.4032         -DE/DX =   -0.0001              !
 ! R3    R(1,8)                  1.7185         -DE/DX =    0.0                 !
 ! R4    R(2,3)                  1.3884         -DE/DX =    0.0                 !
 ! R5    R(3,4)                  1.3977         -DE/DX =    0.0                 !
 ! R6    R(3,11)                 1.0988         -DE/DX =   -0.0001              !
 ! R7    R(4,5)                  1.4038         -DE/DX =    0.0                 !
 ! R8    R(4,9)                  1.7187         -DE/DX =   -0.0001              !
 ! R9    R(5,6)                  1.4051         -DE/DX =   -0.0001              !
 ! R10   R(5,10)                 1.7098         -DE/DX =    0.0                 !
 ! R11   R(6,7)                  1.713          -DE/DX =    0.0                 !
 ! A1    A(2,1,6)              122.2199         -DE/DX =    0.0                 !
 ! A2    A(2,1,8)              118.7057         -DE/DX =    0.0                 !
 ! A3    A(6,1,8)              119.0744         -DE/DX =    0.0                 !
 ! A4    A(1,2,3)              118.4683         -DE/DX =    0.0                 !
 ! A5    A(2,3,4)              120.874          -DE/DX =    0.0                 !
 ! A6    A(2,3,11)             119.5604         -DE/DX =    0.0                 !
 ! A7    A(4,3,11)             119.5656         -DE/DX =    0.0                 !
 ! A8    A(3,4,5)              120.4117         -DE/DX =    0.0                 !
 ! A9    A(3,4,9)              119.5881         -DE/DX =    0.0                 !
 ! A10   A(5,4,9)              120.0002         -DE/DX =    0.0                 !
 ! A11   A(4,5,6)              119.1772         -DE/DX =    0.0                 !
 ! A12   A(4,5,10)             120.4476         -DE/DX =    0.0                 !
 ! A13   A(6,5,10)             120.3751         -DE/DX =   -0.0001              !
 ! A14   A(1,6,5)              118.8489         -DE/DX =    0.0                 !
 ! A15   A(1,6,7)              121.6592         -DE/DX =    0.0                 !
 ! A16   A(5,6,7)              119.492          -DE/DX =    0.0                 !
 ! D1    D(6,1,2,3)              0.0            -DE/DX =    0.0                 !
 ! D2    D(8,1,2,3)            180.0            -DE/DX =    0.0                 !
 ! D3    D(2,1,6,5)              0.0            -DE/DX =    0.0                 !
 ! D4    D(2,1,6,7)            180.0            -DE/DX =    0.0                 !
 ! D5    D(8,1,6,5)            180.0            -DE/DX =    0.0                 !
 ! D6    D(8,1,6,7)              0.0            -DE/DX =    0.0                 !
 ! D7    D(1,2,3,4)              0.0            -DE/DX =    0.0                 !
 ! D8    D(1,2,3,11)           180.0            -DE/DX =    0.0                 !
 ! D9    D(2,3,4,5)              0.0            -DE/DX =    0.0                 !
 ! D10   D(2,3,4,9)            180.0            -DE/DX =    0.0                 !
 ! D11   D(11,3,4,5)           180.0            -DE/DX =    0.0                 !
 ! D12   D(11,3,4,9)             0.0            -DE/DX =    0.0                 !
 ! D13   D(3,4,5,6)              0.0            -DE/DX =    0.0                 !
 ! D14   D(3,4,5,10)           180.0            -DE/DX =    0.0                 !
 ! D15   D(9,4,5,6)            180.0            -DE/DX =    0.0                 !
 ! D16   D(9,4,5,10)             0.0            -DE/DX =    0.0                 !
 ! D17   D(4,5,6,1)              0.0            -DE/DX =    0.0                 !
 ! D18   D(4,5,6,7)            180.0            -DE/DX =    0.0                 !
 ! D19   D(10,5,6,1)           180.0            -DE/DX =    0.0                 !
 ! D20   D(10,5,6,7)             0.0            -DE/DX =    0.0                 !
 --------------------------------------------------------------------------------
 GradGradGradGradGradGradGradGradGradGradGradGradGradGradGradGradGradGrad

                          Input orientation:                          
 ---------------------------------------------------------------------
 Center     Atomic      Atomic             Coordinates (Angstroms)
 Number     Number       Type             X           Y           Z
 ---------------------------------------------------------------------
      1          6           0       -3.128783    0.222160   -0.000000
      2          6           0       -1.956956    0.962838   -0.000000
      3          6           0       -0.745433    0.284745   -0.000000
      4          6           0       -0.705475   -1.112425   -0.000000
      5          6           0       -1.895279   -1.857338   -0.000000
      6          6           0       -3.126924   -1.180993    0.000000
      7         17           0       -4.583806   -2.082015    0.000000
      8         17           0       -4.631796    1.055243    0.000000
      9         17           0        0.812758   -1.917983   -0.000000
     10         17           0       -1.847472   -3.566502    0.000000
     11          1           0        0.194445    0.854039   -0.000000
 ---------------------------------------------------------------------
                    Distance matrix (angstroms):
                    1          2          3          4          5
     1  C    0.000000
     2  C    1.386284   0.000000
     3  C    2.384171   1.388379   0.000000
     4  C    2.766503   2.423411   1.397742   0.000000
     5  C    2.417818   2.820850   2.431186   1.403756   0.000000
     6  C    1.403154   2.442302   2.796406   2.422420   1.405130
     7  Cl   2.725127   4.021377   4.509398   3.997694   2.697899
     8  Cl   1.718452   2.676436   3.962005   4.484951   3.996455
     9  Cl   4.485082   3.996304   2.698143   1.718708   2.708717
    10  Cl   3.999465   4.530664   4.005821   2.706779   1.709833
    11  H    3.382767   2.154150   1.098847   2.162600   3.423231
                    6          7          8          9         10
     6  C    0.000000
     7  Cl   1.712994   0.000000
     8  Cl   2.695439   3.137626   0.000000
     9  Cl   4.008023   5.399057   6.203487   0.000000
    10  Cl   2.706964   3.113074   5.395646   3.129607   0.000000
    11  H    3.895233   5.608217   4.830433   2.840145   4.869355
                   11
    11  H    0.000000
 Stoichiometry    C6HCl4(1-)
 Framework group  CS[SG(C6HCl4)]
 Deg. of freedom    19
 Full point group                 CS      NOp   2
 Largest Abelian subgroup         CS      NOp   2
 Largest concise Abelian subgroup C1      NOp   1
                         Standard orientation:                         
 ---------------------------------------------------------------------
 Center     Atomic      Atomic             Coordinates (Angstroms)
 Number     Number       Type             X           Y           Z
 ---------------------------------------------------------------------
      1          6           0        0.086664    1.633999   -0.000000
      2          6           0        1.472908    1.623507   -0.000000
      3          6           0        2.125455    0.398035   -0.000000
      4          6           0        1.403657   -0.798915   -0.000000
      5          6           0       -0.000000   -0.782265    0.000000
      6          6           0       -0.670419    0.452615    0.000000
      7         17           0       -2.383155    0.482342    0.000000
      8         17           0       -0.727295    3.147454    0.000000
      9         17           0        2.245301   -2.297444   -0.000000
     10         17           0       -0.883882   -2.245919    0.000000
     11          1           0        3.223913    0.368778   -0.000000
 ---------------------------------------------------------------------
 Rotational constants (GHZ):           1.1865110           0.5534256           0.3773963

 **********************************************************************

            Population analysis using the SCF Density.

 **********************************************************************

 Orbital symmetries:
       Occupied  (A') (A') (A') (A') (A') (A') (A') (A') (A') (A')
                 (A') (A') (A') (A") (A') (A") (A") (A') (A") (A')
                 (A') (A') (A') (A") (A") (A") (A')
       Virtual   (A") (A") (A') (A') (A') (A') (A") (A') (A') (A')
                 (A') (A') (A') (A')
 The electronic state is 1-A'.
 Alpha  occ. eigenvalues --   -1.30271  -1.24962  -1.24103  -1.22570  -1.19790
 Alpha  occ. eigenvalues --   -0.98271  -0.95700  -0.70995  -0.68831  -0.52615
 Alpha  occ. eigenvalues --   -0.46975  -0.46533  -0.41766  -0.41583  -0.38127
 Alpha  occ. eigenvalues --   -0.35854  -0.33807  -0.33138  -0.32254  -0.31648
 Alpha  occ. eigenvalues --   -0.30095  -0.29607  -0.27382  -0.27159  -0.19381
 Alpha  occ. eigenvalues --   -0.17679  -0.12971
 Alpha virt. eigenvalues --    0.15747   0.16857   0.17270   0.18875   0.19420
 Alpha virt. eigenvalues --    0.21990   0.27240   0.29723   0.30902   0.32002
 Alpha virt. eigenvalues --    0.32942   0.33660   0.37549   0.39438
          Condensed to atoms (all electrons):
               1          2          3          4          5          6
     1  C    4.054078   0.000000   0.000000   0.000000   0.000000   0.000000
     2  C    0.000000   4.348996   0.000000   0.000000   0.000000   0.000000
     3  C    0.000000   0.000000   4.134709   0.000000   0.000000   0.000000
     4  C    0.000000   0.000000   0.000000   4.060507   0.000000   0.000000
     5  C    0.000000   0.000000   0.000000   0.000000   4.130405   0.000000
     6  C    0.000000   0.000000   0.000000   0.000000   0.000000   4.058597
     7  Cl   0.000000   0.000000   0.000000   0.000000   0.000000   0.000000
     8  Cl   0.000000   0.000000   0.000000   0.000000   0.000000   0.000000
     9  Cl   0.000000   0.000000   0.000000   0.000000   0.000000   0.000000
    10  Cl   0.000000   0.000000   0.000000   0.000000   0.000000   0.000000
    11  H    0.000000   0.000000   0.000000   0.000000   0.000000   0.000000
               7          8          9         10         11
     1  C    0.000000   0.000000   0.000000   0.000000   0.000000
     2  C    0.000000   0.000000   0.000000   0.000000   0.000000
     3  C    0.000000   0.000000   0.000000   0.000000   0.000000
     4  C    0.000000   0.000000   0.000000   0.000000   0.000000
     5  C    0.000000   0.000000   0.000000   0.000000   0.000000
     6  C    0.000000   0.000000   0.000000   0.000000   0.000000
     7  Cl   7.072579   0.000000   0.000000   0.000000   0.000000
     8  Cl   0.000000   7.094602   0.000000   0.000000   0.000000
     9  Cl   0.000000   0.000000   7.097172   0.000000   0.000000
    10  Cl   0.000000   0.000000   0.000000   7.063261   0.000000
    11  H    0.000000   0.000000   0.000000   0.000000   0.885094
 Mulliken charges:
               1
     1  C   -0.054078
     2  C   -0.348996
     3  C   -0.134709
     4  C   -0.060507
     5  C   -0.130405
     6  C   -0.058597
     7  Cl  -0.072579
     8  Cl  -0.094602
     9  Cl  -0.097172
    10  Cl  -0.063261
    11  H    0.114906
 Sum of Mulliken charges =  -1.00000
 Mulliken charges with hydrogens summed into heavy atoms:
               1
     1  C   -0.054078
     2  C   -0.348996
     3  C   -0.019804
     4  C   -0.060507
     5  C   -0.130405
     6  C   -0.058597
     7  Cl  -0.072579
     8  Cl  -0.094602
     9  Cl  -0.097172
    10  Cl  -0.063261
 Charge=             -1.0000 electrons
 Dipole moment (field-independent basis, Debye):
    X=             -3.1174    Y=             -4.2364    Z=              0.0000  Tot=              5.2597
 N-N= 2.983614892621D+02 E-N=-4.297682777817D+02  KE=-1.358487601427D+02
 Symmetry A'   KE=-1.041954728247D+02
 Symmetry A"   KE=-3.165328731794D+01
 1\1\GINC-SH02-02N45\FOpt\RAM1\ZDO\C6H1Cl4(1-)\JLAPIER\08-Dec-2025\0\\#
  opt am1 SCF(maxcyc=10000)\\Anion Intermediate (removed 5) 1234_\\-1,1
 \C,-3.1287826831,0.2221601846,0.\C,-1.9569556562,0.9628382473,0.\C,-0.
 7454329051,0.284745444,0.\C,-0.7054747531,-1.1124251182,0.\C,-1.895279
 2842,-1.8573377835,0.\C,-3.1269236534,-1.1809928547,0.\Cl,-4.583806327
 4,-2.0820151768,0.\Cl,-4.6317958786,1.0552434115,0.\Cl,0.8127584784,-1
 .9179832265,0.\Cl,-1.8474720282,-3.5665024768,0.\H,0.1944446907,0.8540
 39349,0.\\Version=ES64L-G16RevB.01\State=1-A'\HF=0.0122999\RMSD=3.264e
 -09\RMSF=3.201e-05\Dipole=-0.1306113,-2.0652163,0.\PG=CS [SG(C6H1Cl4)]
 \\@


 GARLIC THEN HAVE POWER TO SAVE FROM DEATH
 BEAR WITH IT THOUGH IT MAKETH UNSAVORY BREATH,
 AND SCORN NOT GARLIC LIKE SOME THAT THINK
 IT ONLY MAKETH MEN WINK AND DRINK AND STINK.
   --  SIR JOHN HARRINGTON,
       "THE ENGLISHMAN'S DOCTOR", 1609
 Job cpu time:       0 days  0 hours  0 minutes  9.6 seconds.
 Elapsed time:       0 days  0 hours  0 minutes 31.7 seconds.
 File lengths (MBytes):  RWF=     10 Int=      0 D2E=      0 Chk=      2 Scr=      1
 Normal termination of Gaussian 16 at Mon Dec  8 17:09:05 2025.
