 Entering Gaussian System, Link 0=g16
 Initial command:
 /share/software/user/restricted/gaussian/g16.B01/l1.exe "/home/users/jlapier/Chloroaromatics/Gau-28289.inp" -scrdir="/home/users/jlapier/Chloroaromatics/"
 Entering Link 1 = /share/software/user/restricted/gaussian/g16.B01/l1.exe PID=     28290.
  
 Copyright (c) 1988-2017, Gaussian, Inc.  All Rights Reserved.
  
 This is part of the Gaussian(R) 16 program.  It is based on
 the Gaussian(R) 09 system (copyright 2009, Gaussian, Inc.),
 the Gaussian(R) 03 system (copyright 2003, Gaussian, Inc.),
 the Gaussian(R) 98 system (copyright 1998, Gaussian, Inc.),
 the Gaussian(R) 94 system (copyright 1995, Gaussian, Inc.),
 the Gaussian 92(TM) system (copyright 1992, Gaussian, Inc.),
 the Gaussian 90(TM) system (copyright 1990, Gaussian, Inc.),
 the Gaussian 88(TM) system (copyright 1988, Gaussian, Inc.),
 the Gaussian 86(TM) system (copyright 1986, Carnegie Mellon
 University), and the Gaussian 82(TM) system (copyright 1983,
 Carnegie Mellon University). Gaussian is a federally registered
 trademark of Gaussian, Inc.
  
 This software contains proprietary and confidential information,
 including trade secrets, belonging to Gaussian, Inc.
  
 This software is provided under written license and may be
 used, copied, transmitted, or stored only in accord with that
 written license.
  
 The following legend is applicable only to US Government
 contracts under FAR:
  
                    RESTRICTED RIGHTS LEGEND
  
 Use, reproduction and disclosure by the US Government is
 subject to restrictions as set forth in subparagraphs (a)
 and (c) of the Commercial Computer Software - Restricted
 Rights clause in FAR 52.227-19.
  
 Gaussian, Inc.
 340 Quinnipiac St., Bldg. 40, Wallingford CT 06492
  
  
 ---------------------------------------------------------------
 Warning -- This program may not be used in any manner that
 competes with the business of Gaussian, Inc. or will provide
 assistance to any competitor of Gaussian, Inc.  The licensee
 of this program is prohibited from giving any competitor of
 Gaussian, Inc. access to this program.  By using this program,
 the user acknowledges that Gaussian, Inc. is engaged in the
 business of creating and licensing software in the field of
 computational chemistry and represents and warrants to the
 licensee that it is not a competitor of Gaussian, Inc. and that
 it will not use this program in any manner prohibited above.
 ---------------------------------------------------------------
  

 Cite this work as:
 Gaussian 16, Revision B.01,
 M. J. Frisch, G. W. Trucks, H. B. Schlegel, G. E. Scuseria, 
 M. A. Robb, J. R. Cheeseman, G. Scalmani, V. Barone, 
 G. A. Petersson, H. Nakatsuji, X. Li, M. Caricato, A. V. Marenich, 
 J. Bloino, B. G. Janesko, R. Gomperts, B. Mennucci, H. P. Hratchian, 
 J. V. Ortiz, A. F. Izmaylov, J. L. Sonnenberg, D. Williams-Young, 
 F. Ding, F. Lipparini, F. Egidi, J. Goings, B. Peng, A. Petrone, 
 T. Henderson, D. Ranasinghe, V. G. Zakrzewski, J. Gao, N. Rega, 
 G. Zheng, W. Liang, M. Hada, M. Ehara, K. Toyota, R. Fukuda, 
 J. Hasegawa, M. Ishida, T. Nakajima, Y. Honda, O. Kitao, H. Nakai, 
 T. Vreven, K. Throssell, J. A. Montgomery, Jr., J. E. Peralta, 
 F. Ogliaro, M. J. Bearpark, J. J. Heyd, E. N. Brothers, K. N. Kudin, 
 V. N. Staroverov, T. A. Keith, R. Kobayashi, J. Normand, 
 K. Raghavachari, A. P. Rendell, J. C. Burant, S. S. Iyengar, 
 J. Tomasi, M. Cossi, J. M. Millam, M. Klene, C. Adamo, R. Cammi, 
 J. W. Ochterski, R. L. Martin, K. Morokuma, O. Farkas, 
 J. B. Foresman, and D. J. Fox, Gaussian, Inc., Wallingford CT, 2016.
 
 ******************************************
 Gaussian 16:  ES64L-G16RevB.01 20-Dec-2017
                10-Dec-2025 
 ******************************************
 %mem=2GB
 %nprocshare=1
 Will use up to    1 processors via shared memory.
 %chk=geometry_chks/12345-1_345-ClBzNeutralRadical.chk
 -----------------
 # opt am1 SCF=XQC
 -----------------
 1/18=20,19=15,26=1,38=1/1,3;
 2/9=110,12=2,17=6,18=5,40=1/2;
 3/5=2,25=1,41=700000,71=1/1,2,3;
 4/35=1/1;
 5/5=2,8=3,13=1,35=1,38=5/2,8;
 6/7=2,8=2,9=2,10=2,28=1/1;
 7//1,2,3,16;
 1/18=20,19=15,26=1/3(2);
 2/9=110/2;
 99//99;
 2/9=110/2;
 3/5=2,25=1,41=700000,71=1,135=20/1,2,3;
 4/5=5,16=3,35=1/1;
 5/5=2,8=3,13=1,35=1,38=5/2,8;
 7//1,2,3,16;
 1/18=20,19=15,26=1/3(-5);
 2/9=110/2;
 6/7=2,8=2,9=2,10=2,19=2,28=1/1;
 99/9=1/99;
 ---------------------------------
 Neutral Radical (removed 2) 1_345
 ---------------------------------
 Symbolic Z-matrix:
 Charge =  0 Multiplicity = 2
 C                    -3.20928   0.19943   0. 
 C                    -2.0115    0.93555   0. 
 C                    -0.77511   0.2663    0. 
 C                    -0.7365   -1.13907   0. 
 C                    -1.93429  -1.87519   0. 
 C                    -3.17067  -1.20594   0. 
 Cl                   -4.67483  -2.13035   0. 
 Cl                   -2.05998   2.7004    0. 
 Cl                    0.72905   1.19071   0. 
 Cl                    0.81614  -1.97951   0. 
 H                    -1.8858   -3.64003   0. 
 
 Add virtual bond connecting atoms H11        and C5         Dist= 3.34D+00.

 GradGradGradGradGradGradGradGradGradGradGradGradGradGradGradGradGradGrad
 Berny optimization.
 Initialization pass.
                           ----------------------------
                           !    Initial Parameters    !
                           ! (Angstroms and Degrees)  !
 --------------------------                            --------------------------
 ! Name  Definition              Value          Derivative Info.                !
 --------------------------------------------------------------------------------
 ! R1    R(1,2)                  1.4059         estimate D2E/DX2                !
 ! R2    R(1,6)                  1.4059         estimate D2E/DX2                !
 ! R3    R(2,3)                  1.4059         estimate D2E/DX2                !
 ! R4    R(2,8)                  1.7655         estimate D2E/DX2                !
 ! R5    R(3,4)                  1.4059         estimate D2E/DX2                !
 ! R6    R(3,9)                  1.7655         estimate D2E/DX2                !
 ! R7    R(4,5)                  1.4059         estimate D2E/DX2                !
 ! R8    R(4,10)                 1.7655         estimate D2E/DX2                !
 ! R9    R(5,6)                  1.4059         estimate D2E/DX2                !
 ! R10   R(5,11)                 1.7655         estimate D2E/DX2                !
 ! R11   R(6,7)                  1.7655         estimate D2E/DX2                !
 ! A1    A(2,1,6)              119.9999         estimate D2E/DX2                !
 ! A2    A(1,2,3)              120.0            estimate D2E/DX2                !
 ! A3    A(1,2,8)              120.0001         estimate D2E/DX2                !
 ! A4    A(3,2,8)              119.9999         estimate D2E/DX2                !
 ! A5    A(2,3,4)              120.0001         estimate D2E/DX2                !
 ! A6    A(2,3,9)              120.0            estimate D2E/DX2                !
 ! A7    A(4,3,9)              119.9999         estimate D2E/DX2                !
 ! A8    A(3,4,5)              119.9997         estimate D2E/DX2                !
 ! A9    A(3,4,10)             120.0003         estimate D2E/DX2                !
 ! A10   A(5,4,10)             120.0            estimate D2E/DX2                !
 ! A11   A(4,5,6)              120.0            estimate D2E/DX2                !
 ! A12   A(4,5,11)             119.9996         estimate D2E/DX2                !
 ! A13   A(6,5,11)             120.0004         estimate D2E/DX2                !
 ! A14   A(1,6,5)              120.0003         estimate D2E/DX2                !
 ! A15   A(1,6,7)              119.9999         estimate D2E/DX2                !
 ! A16   A(5,6,7)              119.9998         estimate D2E/DX2                !
 ! D1    D(6,1,2,3)              0.0            estimate D2E/DX2                !
 ! D2    D(6,1,2,8)            180.0            estimate D2E/DX2                !
 ! D3    D(2,1,6,5)              0.0            estimate D2E/DX2                !
 ! D4    D(2,1,6,7)            180.0            estimate D2E/DX2                !
 ! D5    D(1,2,3,4)              0.0            estimate D2E/DX2                !
 ! D6    D(1,2,3,9)            180.0            estimate D2E/DX2                !
 ! D7    D(8,2,3,4)            180.0            estimate D2E/DX2                !
 ! D8    D(8,2,3,9)              0.0            estimate D2E/DX2                !
 ! D9    D(2,3,4,5)              0.0            estimate D2E/DX2                !
 ! D10   D(2,3,4,10)           180.0            estimate D2E/DX2                !
 ! D11   D(9,3,4,5)            180.0            estimate D2E/DX2                !
 ! D12   D(9,3,4,10)             0.0            estimate D2E/DX2                !
 ! D13   D(3,4,5,6)              0.0            estimate D2E/DX2                !
 ! D14   D(3,4,5,11)           180.0            estimate D2E/DX2                !
 ! D15   D(10,4,5,6)           180.0            estimate D2E/DX2                !
 ! D16   D(10,4,5,11)            0.0            estimate D2E/DX2                !
 ! D17   D(4,5,6,1)              0.0            estimate D2E/DX2                !
 ! D18   D(4,5,6,7)            180.0            estimate D2E/DX2                !
 ! D19   D(11,5,6,1)           180.0            estimate D2E/DX2                !
 ! D20   D(11,5,6,7)             0.0            estimate D2E/DX2                !
 --------------------------------------------------------------------------------
 Trust Radius=3.00D-01 FncErr=1.00D-07 GrdErr=1.00D-07 EigMax=2.50D+02 EigMin=1.00D-04
 Number of steps in this run=     57 maximum allowed number of steps=    100.
 GradGradGradGradGradGradGradGradGradGradGradGradGradGradGradGradGradGrad

                          Input orientation:                          
 ---------------------------------------------------------------------
 Center     Atomic      Atomic             Coordinates (Angstroms)
 Number     Number       Type             X           Y           Z
 ---------------------------------------------------------------------
      1          6           0       -3.209280    0.199430    0.000000
      2          6           0       -2.011500    0.935550    0.000000
      3          6           0       -0.775110    0.266300    0.000000
      4          6           0       -0.736500   -1.139070    0.000000
      5          6           0       -1.934290   -1.875190    0.000000
      6          6           0       -3.170670   -1.205940    0.000000
      7         17           0       -4.674830   -2.130350    0.000000
      8         17           0       -2.059980    2.700400    0.000000
      9         17           0        0.729050    1.190710    0.000000
     10         17           0        0.816140   -1.979510    0.000000
     11          1           0       -1.885800   -3.640030    0.000000
 ---------------------------------------------------------------------
                    Distance matrix (angstroms):
                    1          2          3          4          5
     1  C    0.000000
     2  C    1.405898   0.000000
     3  C    2.435088   1.405900   0.000000
     4  C    2.811801   2.435092   1.405900   0.000000
     5  C    2.435087   2.811800   2.435093   1.405907   0.000000
     6  C    1.405900   2.435088   2.811796   2.435088   1.405892
     7  Cl   2.752401   4.061166   4.577308   4.061167   2.752393
     8  Cl   2.752406   1.765516   2.752405   4.061173   4.577316
     9  Cl   4.061167   2.752403   1.765512   2.752401   4.061173
    10  Cl   4.577312   4.061173   2.752406   1.765511   2.752408
    11  H    4.061164   4.577306   4.061163   2.752397   1.765506
                    6          7          8          9         10
     6  C    0.000000
     7  Cl   1.765512   0.000000
     8  Cl   4.061173   5.493049   0.000000
     9  Cl   4.577308   6.342819   3.171412   0.000000
    10  Cl   4.061165   5.493041   5.493052   3.171416   0.000000
    11  H    2.752396   3.171407   6.342822   5.493040   3.171404
                   11
    11  H    0.000000
 Stoichiometry    C6HCl4(2)
 Framework group  CS[SG(C6HCl4)]
 Deg. of freedom    19
 Full point group                 CS      NOp   2
 Largest Abelian subgroup         CS      NOp   2
 Largest concise Abelian subgroup C1      NOp   1
                         Standard orientation:                         
 ---------------------------------------------------------------------
 Center     Atomic      Atomic             Coordinates (Angstroms)
 Number     Number       Type             X           Y           Z
 ---------------------------------------------------------------------
      1          6           0       -1.243703   -1.201313    0.000000
      2          6           0       -1.243703    0.204585    0.000000
      3          6           0       -0.026157    0.907534    0.000000
      4          6           0        1.191389    0.204585    0.000000
      5          6           0        1.191383   -1.201321    0.000000
      6          6           0       -0.026157   -1.904262    0.000000
      7         17           0       -0.026159   -3.669774    0.000000
      8         17           0       -2.772683    1.087347    0.000000
      9         17           0       -0.026156    2.673046    0.000000
     10         17           0        2.720370    1.087335    0.000000
     11          1           0        2.720359   -2.084069    0.000000
 ---------------------------------------------------------------------
 Rotational constants (GHZ):           0.8337185           0.5634328           0.3362158
 Standard basis: VSTO-6G (5D, 7F)
 There are    31 symmetry adapted cartesian basis functions of A'  symmetry.
 There are    10 symmetry adapted cartesian basis functions of A"  symmetry.
 There are    31 symmetry adapted basis functions of A'  symmetry.
 There are    10 symmetry adapted basis functions of A"  symmetry.
    41 basis functions,   246 primitive gaussians,    41 cartesian basis functions
    27 alpha electrons       26 beta electrons
       nuclear repulsion energy       291.4421278291 Hartrees.
 Integral buffers will be    131072 words long.
 Regular integral format.
 Two-electron integral symmetry is turned off.
 Do NDO integrals.
 One-electron integrals computed using PRISM.
 NBasis=    41 RedAO= T EigKep=  1.00D+00  NBF=    31    10
 NBsUse=    41 1.00D-06 EigRej= -1.00D+00 NBFU=    31    10
 Simple Huckel Guess.
 Initial guess orbital symmetries:
 Alpha Orbitals:
       Occupied  (A') (A') (A') (A') (A') (A') (A') (A') (A') (A')
                 (A") (A') (A') (A') (A") (A') (A") (A') (A") (A')
                 (A") (A') (A') (A') (A") (A") (A')
       Virtual   (A") (A') (A") (A") (A') (A') (A') (A') (A') (A')
                 (A') (A') (A') (A')
 Beta  Orbitals:
       Occupied  (A') (A') (A') (A') (A') (A') (A') (A') (A') (A')
                 (A") (A') (A') (A') (A") (A') (A") (A') (A") (A')
                 (A") (A') (A') (A') (A") (A")
       Virtual   (A') (A") (A') (A") (A") (A') (A') (A') (A') (A')
                 (A') (A') (A') (A') (A')
 The electronic state of the initial guess is 2-A'.
 Initial guess <Sx>= 0.0000 <Sy>= 0.0000 <Sz>= 0.5000 <S**2>= 0.7500 S= 0.5000
 Keep J ints in memory in canonical form, NReq=864464.
 Overlap will be assumed to be unity.
 Requested convergence on RMS density matrix=1.00D-08 within  32 cycles.
 Requested convergence on MAX density matrix=1.00D-06.
 Requested convergence on             energy=1.00D-06.
 No special actions if energy rises.
 Fock symm off for IB=2 I1=    1 I=   32 J=   12 Cut=1.00D-07 Err=2.02D-03
 Fock matrix is not symmetric: symmetry in diagonalization turned off.
 Rare condition: small coef for last iteration:  0.000D+00
 Rare condition: small coef for last iteration:  0.000D+00
 Rare condition: small coef for last iteration:  0.000D+00
 Rare condition: small coef for last iteration:  0.000D+00
 Rare condition: small coef for last iteration:  0.000D+00
 Rare condition: small coef for last iteration:  0.000D+00
 Rare condition: small coef for last iteration:  0.000D+00
 Rare condition: small coef for last iteration:  0.000D+00
 Rare condition: small coef for last iteration:  0.000D+00
 Rare condition: small coef for last iteration:  0.000D+00
 Rare condition: small coef for last iteration:  0.000D+00
 >>>>>>>>>> Convergence criterion not met.
 SCF Done:  E(UAM1) =  0.228962304529     A.U. after   33 cycles
            NFock= 32  Conv=0.72D-04     -V/T= 1.0017
 <Sx>= 0.0000 <Sy>= 0.0000 <Sz>= 0.5000 <S**2>= 1.1421 S= 0.6799
 <L.S>=  0.00000000000    
 Annihilation of the first spin contaminant:
 S**2 before annihilation     1.1421,   after     0.8866
 Keep J ints in memory in canonical form, NReq=864864.
 LinEq1:  Iter=  0 NonCon=     1 RMS=3.31D-04 Max=4.64D-03 NDo=     1
 AX will form     1 AO Fock derivatives at one time.
 LinEq1:  Iter=  1 NonCon=     1 RMS=3.63D-05 Max=4.26D-04 NDo=     1
 LinEq1:  Iter=  2 NonCon=     1 RMS=1.00D-05 Max=1.47D-04 NDo=     1
 LinEq1:  Iter=  3 NonCon=     1 RMS=2.41D-06 Max=2.41D-05 NDo=     1
 LinEq1:  Iter=  4 NonCon=     1 RMS=4.16D-07 Max=3.90D-06 NDo=     1
 LinEq1:  Iter=  5 NonCon=     1 RMS=1.19D-07 Max=7.49D-07 NDo=     1
 LinEq1:  Iter=  6 NonCon=     1 RMS=3.09D-08 Max=2.01D-07 NDo=     1
 LinEq1:  Iter=  7 NonCon=     1 RMS=6.92D-09 Max=7.38D-08 NDo=     1
 LinEq1:  Iter=  8 NonCon=     0 RMS=1.22D-09 Max=8.01D-09 NDo=     1
 Linear equations converged to 2.771D-09 2.771D-08 after     8 iterations.
     Minimum is close to point  4 DX=  1.67D-01 DF= -1.40D-04 DXR=  7.06D-02 DFR=  1.99D-02 which will be used.
 LinEq1:  Iter=  0 NonCon=     1 RMS=7.37D-04 Max=1.14D-02 NDo=     1
 LinEq1:  Iter=  1 NonCon=     1 RMS=1.71D-04 Max=1.92D-03 NDo=     1
 LinEq1:  Iter=  2 NonCon=     1 RMS=6.29D-05 Max=5.60D-04 NDo=     1
 LinEq1:  Iter=  3 NonCon=     1 RMS=1.40D-05 Max=1.36D-04 NDo=     1
 LinEq1:  Iter=  4 NonCon=     1 RMS=2.61D-06 Max=2.56D-05 NDo=     1
 LinEq1:  Iter=  5 NonCon=     1 RMS=7.25D-07 Max=1.16D-05 NDo=     1
 LinEq1:  Iter=  6 NonCon=     1 RMS=2.02D-07 Max=1.97D-06 NDo=     1
 LinEq1:  Iter=  7 NonCon=     1 RMS=5.17D-08 Max=7.76D-07 NDo=     1
 LinEq1:  Iter=  8 NonCon=     1 RMS=7.26D-09 Max=4.86D-08 NDo=     1
 LinEq1:  Iter=  9 NonCon=     0 RMS=1.10D-09 Max=7.99D-09 NDo=     1
 Linear equations converged to 2.771D-09 2.771D-08 after     9 iterations.
     Accept linear search using points  1 and  2.
 LinEq1:  Iter=  0 NonCon=     1 RMS=4.08D-04 Max=4.53D-03 NDo=     1
 LinEq1:  Iter=  1 NonCon=     1 RMS=7.20D-05 Max=9.03D-04 NDo=     1
 LinEq1:  Iter=  2 NonCon=     1 RMS=1.42D-05 Max=9.63D-05 NDo=     1
 LinEq1:  Iter=  3 NonCon=     1 RMS=3.23D-06 Max=2.70D-05 NDo=     1
 LinEq1:  Iter=  4 NonCon=     1 RMS=9.97D-07 Max=8.77D-06 NDo=     1
 LinEq1:  Iter=  5 NonCon=     1 RMS=2.63D-07 Max=3.80D-06 NDo=     1
 LinEq1:  Iter=  6 NonCon=     1 RMS=5.01D-08 Max=3.44D-07 NDo=     1
 LinEq1:  Iter=  7 NonCon=     1 RMS=8.40D-09 Max=8.05D-08 NDo=     1
 LinEq1:  Iter=  8 NonCon=     0 RMS=1.57D-09 Max=1.68D-08 NDo=     1
 Linear equations converged to 2.771D-09 2.771D-08 after     8 iterations.
     Accept linear search using points  1 and  2.
     Minimum is close to point  2 DX= -1.52D-02 DF= -4.00D-08 DXR=  1.54D-02 DFR=  2.41D-04 which will be used.
 LinEq1:  Iter=  0 NonCon=     1 RMS=1.10D-05 Max=1.62D-04 NDo=     1
 LinEq1:  Iter=  1 NonCon=     1 RMS=2.92D-06 Max=3.76D-05 NDo=     1
 LinEq1:  Iter=  2 NonCon=     1 RMS=6.66D-07 Max=5.73D-06 NDo=     1
 LinEq1:  Iter=  3 NonCon=     1 RMS=1.08D-07 Max=9.42D-07 NDo=     1
 LinEq1:  Iter=  4 NonCon=     1 RMS=2.33D-08 Max=1.62D-07 NDo=     1
 LinEq1:  Iter=  5 NonCon=     1 RMS=3.42D-09 Max=2.11D-08 NDo=     1
 LinEq1:  Iter=  6 NonCon=     0 RMS=1.00D-09 Max=9.33D-09 NDo=     1
 Linear equations converged to 1.466D-09 1.466D-08 after     6 iterations.
     Minimum is close to point  2 DX=  1.53D-02 DF= -1.03D-10 DXR=  1.51D-02 DFR=  2.28D-04 which will be used.
 LinEq1:  Iter=  0 NonCon=     1 RMS=2.03D-07 Max=2.30D-06 NDo=     1
 LinEq1:  Iter=  1 NonCon=     1 RMS=6.91D-08 Max=6.04D-07 NDo=     1
 LinEq1:  Iter=  2 NonCon=     1 RMS=1.10D-08 Max=1.03D-07 NDo=     1
 LinEq1:  Iter=  3 NonCon=     1 RMS=3.16D-09 Max=2.42D-08 NDo=     1
 LinEq1:  Iter=  4 NonCon=     1 RMS=7.39D-10 Max=7.24D-09 NDo=     1
 LinEq1:  Iter=  5 NonCon=     1 RMS=1.88D-10 Max=2.23D-09 NDo=     1
 LinEq1:  Iter=  6 NonCon=     1 RMS=3.65D-11 Max=3.04D-10 NDo=     1
 LinEq1:  Iter=  7 NonCon=     0 RMS=5.02D-12 Max=3.45D-11 NDo=     1
 Linear equations converged to 2.921D-11 2.921D-10 after     7 iterations.
 SCF Done:  E(UAM1) =  0.219400999625     a.u. after    6 cycles
            Convg  =    0.9225D-07                    49 Fock formations.
              S**2 =  1.5433                  -V/T =  1.0016
 <Sx>= 0.0000 <Sy>= 0.0000 <Sz>= 0.5000 <S**2>= 1.5433 S= 0.8392
 <L.S>=  0.00000000000    
 Annihilation of the first spin contaminant:
 S**2 before annihilation     1.5433,   after     1.4704

 **********************************************************************

            Population analysis using the SCF Density.

 **********************************************************************

 Orbital symmetries:
 Alpha Orbitals:
       Occupied  (A') (A') (A') (A') (A') (A') (A') (A') (A') (A')
                 (A') (A') (A") (A') (A') (A") (A") (A') (A') (A")
                 (A') (A') (A') (A") (A') (A") (A")
       Virtual   (A") (A") (A') (A') (A') (A') (A') (A") (A') (A')
                 (A') (A') (A') (A')
 Beta  Orbitals:
       Occupied  (A') (A') (A') (A') (A') (A') (A') (A') (A') (A')
                 (A') (A') (A") (A') (A') (A") (A") (A") (A') (A')
                 (A') (A') (A") (A') (A") (A")
       Virtual   (A') (A") (A') (A') (A") (A') (A') (A') (A") (A')
                 (A') (A') (A') (A') (A')
 The electronic state is 2-A'.
 Alpha  occ. eigenvalues --   -1.46525  -1.39581  -1.39210  -1.38307  -1.36545
 Alpha  occ. eigenvalues --   -1.15384  -1.14671  -0.87818  -0.87075  -0.68486
 Alpha  occ. eigenvalues --   -0.64854  -0.62016  -0.57556  -0.56443  -0.55759
 Alpha  occ. eigenvalues --   -0.50493  -0.49282  -0.47673  -0.47217  -0.47166
 Alpha  occ. eigenvalues --   -0.45418  -0.45231  -0.44355  -0.43991  -0.41660
 Alpha  occ. eigenvalues --   -0.39368  -0.37940
 Alpha virt. eigenvalues --   -0.02069  -0.01755  -0.00293   0.00684   0.01074
 Alpha virt. eigenvalues --    0.03338   0.03652   0.05689   0.11511   0.11735
 Alpha virt. eigenvalues --    0.13332   0.13676   0.14954   0.15625
  Beta  occ. eigenvalues --   -1.45875  -1.39528  -1.39236  -1.38219  -1.36116
  Beta  occ. eigenvalues --   -1.14604  -1.13092  -0.87034  -0.84156  -0.68707
  Beta  occ. eigenvalues --   -0.64205  -0.60804  -0.57405  -0.56173  -0.54155
  Beta  occ. eigenvalues --   -0.50965  -0.50297  -0.47056  -0.46732  -0.45720
  Beta  occ. eigenvalues --   -0.45172  -0.44412  -0.43541  -0.43492  -0.37967
  Beta  occ. eigenvalues --   -0.37691
  Beta virt. eigenvalues --   -0.04591  -0.01636  -0.00735  -0.00340   0.00419
  Beta virt. eigenvalues --    0.01469   0.02975   0.03657   0.07027   0.12124
  Beta virt. eigenvalues --    0.12252   0.14138   0.15417   0.15446   0.17194
          Condensed to atoms (all electrons):
               1          2          3          4          5          6
     1  C    3.978999   0.000000   0.000000   0.000000   0.000000   0.000000
     2  C    0.000000   4.046646   0.000000   0.000000   0.000000   0.000000
     3  C    0.000000   0.000000   4.034401   0.000000   0.000000   0.000000
     4  C    0.000000   0.000000   0.000000   4.038048   0.000000   0.000000
     5  C    0.000000   0.000000   0.000000   0.000000   4.133263   0.000000
     6  C    0.000000   0.000000   0.000000   0.000000   0.000000   4.043539
     7  Cl   0.000000   0.000000   0.000000   0.000000   0.000000   0.000000
     8  Cl   0.000000   0.000000   0.000000   0.000000   0.000000   0.000000
     9  Cl   0.000000   0.000000   0.000000   0.000000   0.000000   0.000000
    10  Cl   0.000000   0.000000   0.000000   0.000000   0.000000   0.000000
    11  H    0.000000   0.000000   0.000000   0.000000   0.000000   0.000000
               7          8          9         10         11
     1  C    0.000000   0.000000   0.000000   0.000000   0.000000
     2  C    0.000000   0.000000   0.000000   0.000000   0.000000
     3  C    0.000000   0.000000   0.000000   0.000000   0.000000
     4  C    0.000000   0.000000   0.000000   0.000000   0.000000
     5  C    0.000000   0.000000   0.000000   0.000000   0.000000
     6  C    0.000000   0.000000   0.000000   0.000000   0.000000
     7  Cl   7.001505   0.000000   0.000000   0.000000   0.000000
     8  Cl   0.000000   6.981654   0.000000   0.000000   0.000000
     9  Cl   0.000000   0.000000   6.978594   0.000000   0.000000
    10  Cl   0.000000   0.000000   0.000000   6.996955   0.000000
    11  H    0.000000   0.000000   0.000000   0.000000   0.766397
          Atomic-Atomic Spin Densities.
               1          2          3          4          5          6
     1  C    1.483361   0.000000   0.000000   0.000000   0.000000   0.000000
     2  C    0.000000  -0.531167   0.000000   0.000000   0.000000   0.000000
     3  C    0.000000   0.000000   0.538900   0.000000   0.000000   0.000000
     4  C    0.000000   0.000000   0.000000  -0.518331   0.000000   0.000000
     5  C    0.000000   0.000000   0.000000   0.000000   0.862755   0.000000
     6  C    0.000000   0.000000   0.000000   0.000000   0.000000  -0.537352
     7  Cl   0.000000   0.000000   0.000000   0.000000   0.000000   0.000000
     8  Cl   0.000000   0.000000   0.000000   0.000000   0.000000   0.000000
     9  Cl   0.000000   0.000000   0.000000   0.000000   0.000000   0.000000
    10  Cl   0.000000   0.000000   0.000000   0.000000   0.000000   0.000000
    11  H    0.000000   0.000000   0.000000   0.000000   0.000000   0.000000
               7          8          9         10         11
     1  C    0.000000   0.000000   0.000000   0.000000   0.000000
     2  C    0.000000   0.000000   0.000000   0.000000   0.000000
     3  C    0.000000   0.000000   0.000000   0.000000   0.000000
     4  C    0.000000   0.000000   0.000000   0.000000   0.000000
     5  C    0.000000   0.000000   0.000000   0.000000   0.000000
     6  C    0.000000   0.000000   0.000000   0.000000   0.000000
     7  Cl   0.012287   0.000000   0.000000   0.000000   0.000000
     8  Cl   0.000000   0.011404   0.000000   0.000000   0.000000
     9  Cl   0.000000   0.000000   0.007164   0.000000   0.000000
    10  Cl   0.000000   0.000000   0.000000   0.010391   0.000000
    11  H    0.000000   0.000000   0.000000   0.000000  -0.339412
 Mulliken charges and spin densities:
               1          2
     1  C    0.021001   1.483361
     2  C   -0.046646  -0.531167
     3  C   -0.034401   0.538900
     4  C   -0.038048  -0.518331
     5  C   -0.133263   0.862755
     6  C   -0.043539  -0.537352
     7  Cl  -0.001505   0.012287
     8  Cl   0.018346   0.011404
     9  Cl   0.021406   0.007164
    10  Cl   0.003045   0.010391
    11  H    0.233603  -0.339412
 Sum of Mulliken charges =  -0.00000   1.00000
 Mulliken charges and spin densities with hydrogens summed into heavy atoms:
               1          2
     1  C    0.021001   1.483361
     2  C   -0.046646  -0.531167
     3  C   -0.034401   0.538900
     4  C   -0.038048  -0.518331
     5  C    0.100341   0.523343
     6  C   -0.043539  -0.537352
     7  Cl  -0.001505   0.012287
     8  Cl   0.018346   0.011404
     9  Cl   0.021406   0.007164
    10  Cl   0.003045   0.010391
 Charge=              0.0000 electrons
 Dipole moment (field-independent basis, Debye):
    X=              1.7908    Y=             -0.9613    Z=              0.0000  Tot=              2.0325
 N-N= 2.914421278291D+02 E-N=-4.091769412023D+02  KE=-1.336446996223D+02
 Symmetry A'   KE=-1.020644097094D+02
 Symmetry A"   KE=-3.158028991296D+01
 Symmetry A'   SP= 1.000000000000D+00
 Symmetry A"   SP=-6.106226635438D-16
 Calling FoFJK, ICntrl=      2127 FMM=F ISym2X=1 I1Cent= 0 IOpClX= 1 NMat=1 NMatS=1 NMatT=0.
 ***** Axes restored to original set *****
 -------------------------------------------------------------------
 Center     Atomic                   Forces (Hartrees/Bohr)
 Number     Number              X              Y              Z
 -------------------------------------------------------------------
      1        6           0.052060299   -0.027732812   -0.000000000
      2        6          -0.026723191    0.040726443    0.000000000
      3        6           0.030568014    0.018095193    0.000000000
      4        6           0.017963019   -0.030969489    0.000000000
      5        6           0.002773725   -0.068659719   -0.000000000
      6        6          -0.035312813   -0.012897052    0.000000000
      7       17           0.035219448    0.021151929    0.000000000
      8       17          -0.001301497   -0.041447444   -0.000000000
      9       17          -0.034924780   -0.020902973    0.000000000
     10       17          -0.037150106    0.016966679    0.000000000
     11        1          -0.003172118    0.105669244   -0.000000000
 -------------------------------------------------------------------
 Cartesian Forces:  Max     0.105669244 RMS     0.031352868

 GradGradGradGradGradGradGradGradGradGradGradGradGradGradGradGradGradGrad
 Berny optimization.
 FormGI is forming the generalized inverse of G from B-inverse, IUseBI=4.
 Internal  Forces:  Max     0.105716504 RMS     0.021837674
 Search for a local minimum.
 Step number   1 out of a maximum of   57
 All quantities printed in internal units (Hartrees-Bohrs-Radians)
 Mixed Optimization -- RFO/linear search
 Second derivative matrix not updated -- first step.
 ITU=  0
     Eigenvalues ---    0.02011   0.02011   0.02011   0.02011   0.02011
     Eigenvalues ---    0.02011   0.02011   0.02011   0.06524   0.16000
     Eigenvalues ---    0.23485   0.25000   0.25000   0.25000   0.25000
     Eigenvalues ---    0.25000   0.25000   0.29033   0.29033   0.29033
     Eigenvalues ---    0.29033   0.41081   0.41568   0.44656   0.44657
     Eigenvalues ---    0.44657   0.44657
 RFO step:  Lambda=-9.62888780D-02 EMin= 2.01065791D-02
 Linear search not attempted -- first point.
 Maximum step size (   0.300) exceeded in Quadratic search.
    -- Step size scaled by   0.426
 Iteration  1 RMS(Cart)=  0.03647718 RMS(Int)=  0.01152765
 Iteration  2 RMS(Cart)=  0.01098603 RMS(Int)=  0.00002482
 Iteration  3 RMS(Cart)=  0.00000125 RMS(Int)=  0.00002481
 Iteration  4 RMS(Cart)=  0.00000000 RMS(Int)=  0.00002481
 ClnCor:  largest displacement from symmetrization is 1.37D-08 for atom    10.
 Variable       Old X    -DE/DX   Delta X   Delta X   Delta X     New X
                                 (Linear)    (Quad)   (Total)
    R1        2.65676  -0.03086   0.00000  -0.02433  -0.02430   2.63246
    R2        2.65677  -0.03147   0.00000  -0.02548  -0.02544   2.63133
    R3        2.65677  -0.00424   0.00000  -0.00266  -0.00267   2.65410
    R4        3.33634  -0.04140   0.00000  -0.04565  -0.04565   3.29069
    R5        2.65677  -0.00032   0.00000   0.00051   0.00047   2.65724
    R6        3.33633  -0.04070   0.00000  -0.04488  -0.04488   3.29145
    R7        2.65678  -0.02225   0.00000  -0.01738  -0.01741   2.63936
    R8        3.33633  -0.04075   0.00000  -0.04493  -0.04493   3.29140
    R9        2.65675  -0.02643   0.00000  -0.02142  -0.02142   2.63533
   R10        3.33632  -0.10572   0.00000  -0.27903  -0.27903   3.05730
   R11        3.33633  -0.04108   0.00000  -0.04530  -0.04530   3.29103
    A1        2.09439   0.02528   0.00000   0.02903   0.02913   2.12352
    A2        2.09439  -0.01268   0.00000  -0.01471  -0.01469   2.07970
    A3        2.09440   0.00227   0.00000   0.00235   0.00234   2.09673
    A4        2.09439   0.01041   0.00000   0.01236   0.01235   2.10675
    A5        2.09440  -0.00675   0.00000  -0.00604  -0.00608   2.08831
    A6        2.09440   0.00258   0.00000   0.00204   0.00206   2.09646
    A7        2.09439   0.00417   0.00000   0.00400   0.00402   2.09842
    A8        2.09439  -0.00096   0.00000   0.00017   0.00009   2.09448
    A9        2.09440   0.00509   0.00000   0.00559   0.00563   2.10003
   A10        2.09440  -0.00413   0.00000  -0.00576  -0.00572   2.08867
   A11        2.09439   0.00787   0.00000   0.00957   0.00954   2.10393
   A12        2.09439  -0.00348   0.00000  -0.00404  -0.00402   2.09037
   A13        2.09440  -0.00438   0.00000  -0.00553  -0.00551   2.08889
   A14        2.09440  -0.01276   0.00000  -0.01802  -0.01798   2.07642
   A15        2.09439   0.00708   0.00000   0.00987   0.00985   2.10425
   A16        2.09439   0.00568   0.00000   0.00815   0.00813   2.10252
    D1        0.00000  -0.00000   0.00000  -0.00000   0.00000   0.00000
    D2        3.14159  -0.00000   0.00000  -0.00000   0.00000   3.14159
    D3        0.00000  -0.00000   0.00000  -0.00000   0.00000   0.00000
    D4        3.14159  -0.00000   0.00000  -0.00000   0.00000   3.14159
    D5        0.00000   0.00000   0.00000   0.00000   0.00000   0.00000
    D6        3.14159   0.00000   0.00000   0.00000   0.00000   3.14159
    D7        3.14159   0.00000   0.00000   0.00000   0.00000   3.14159
    D8        0.00000   0.00000   0.00000   0.00000   0.00000   0.00000
    D9        0.00000   0.00000   0.00000   0.00000   0.00000   0.00000
   D10        3.14159  -0.00000   0.00000   0.00000   0.00000   3.14159
   D11        3.14159   0.00000   0.00000   0.00000   0.00000   3.14159
   D12        0.00000   0.00000   0.00000   0.00000   0.00000   0.00000
   D13        0.00000  -0.00000   0.00000  -0.00000   0.00000   0.00000
   D14        3.14159  -0.00000   0.00000  -0.00000   0.00000   3.14159
   D15        3.14159  -0.00000   0.00000  -0.00000   0.00000   3.14159
   D16        0.00000  -0.00000   0.00000  -0.00000   0.00000   0.00000
   D17        0.00000   0.00000   0.00000   0.00000   0.00000   0.00000
   D18        3.14159   0.00000   0.00000   0.00000   0.00000   3.14159
   D19        3.14159   0.00000   0.00000   0.00000   0.00000   3.14159
   D20        0.00000   0.00000   0.00000   0.00000   0.00000   0.00000
         Item               Value     Threshold  Converged?
 Maximum Force            0.105717     0.000450     NO 
 RMS     Force            0.021838     0.000300     NO 
 Maximum Displacement     0.277034     0.001800     NO 
 RMS     Displacement     0.046292     0.001200     NO 
 Predicted change in Energy=-3.663372D-02
 GradGradGradGradGradGradGradGradGradGradGradGradGradGradGradGradGradGrad

                          Input orientation:                          
 ---------------------------------------------------------------------
 Center     Atomic      Atomic             Coordinates (Angstroms)
 Number     Number       Type             X           Y           Z
 ---------------------------------------------------------------------
      1          6           0       -3.182562    0.173170    0.000000
      2          6           0       -2.008053    0.922229    0.000000
      3          6           0       -0.771589    0.256087    0.000000
      4          6           0       -0.738752   -1.149681    0.000000
      5          6           0       -1.931619   -1.876189    0.000000
      6          6           0       -3.161676   -1.219111    0.000000
      7         17           0       -4.647789   -2.127091    0.000000
      8         17           0       -2.080800    2.662068    0.000000
      9         17           0        0.712418    1.167929    0.000000
     10         17           0        0.784829   -1.993682    0.000000
     11          1           0       -1.887178   -3.493430    0.000000
 ---------------------------------------------------------------------
                    Distance matrix (angstroms):
                    1          2          3          4          5
     1  C    0.000000
     2  C    1.393040   0.000000
     3  C    2.412398   1.404488   0.000000
     4  C    2.778874   2.429801   1.406151   0.000000
     5  C    2.400985   2.799461   2.427400   1.396692   0.000000
     6  C    1.392438   2.432320   2.808687   2.423918   1.394557
     7  Cl   2.727287   4.033182   4.550215   4.029380   2.727733
     8  Cl   2.721854   1.741360   2.739120   4.041104   4.540708
     9  Cl   4.020002   2.731544   1.741762   2.734449   4.032070
    10  Cl   4.520557   4.037663   2.735671   1.741734   2.718988
    11  H    3.888699   4.417313   3.911958   2.609989   1.617852
                    6          7          8          9         10
     6  C    0.000000
     7  Cl   1.741540   0.000000
     8  Cl   4.028876   5.433735   0.000000
     9  Cl   4.550447   6.291977   3.167731   0.000000
    10  Cl   4.021798   5.434255   5.466977   3.162441   0.000000
    11  H    2.607081   3.080236   6.158542   5.337244   3.064125
                   11
    11  H    0.000000
 Stoichiometry    C6HCl4(2)
 Framework group  CS[SG(C6HCl4)]
 Deg. of freedom    19
 Full point group                 CS      NOp   2
 Largest Abelian subgroup         CS      NOp   2
 Largest concise Abelian subgroup C1      NOp   1
                         Standard orientation:                         
 ---------------------------------------------------------------------
 Center     Atomic      Atomic             Coordinates (Angstroms)
 Number     Number       Type             X           Y           Z
 ---------------------------------------------------------------------
      1          6           0       -1.250134   -1.146387    0.000000
      2          6           0       -1.234237    0.246562    0.000000
      3          6           0        0.000000    0.916821    0.000000
      4          6           0        1.194508    0.174925    0.000000
      5          6           0        1.149690   -1.221047    0.000000
      6          6           0       -0.073453   -1.890905    0.000000
      7         17           0       -0.126885   -3.631624    0.000000
      8         17           0       -2.730184    1.137894    0.000000
      9         17           0        0.049046    2.657893    0.000000
     10         17           0        2.734741    0.988140    0.000000
     11          1           0        2.527539   -2.068971    0.000000
 ---------------------------------------------------------------------
 Rotational constants (GHZ):           0.8432823           0.5745001           0.3417067
 Standard basis: VSTO-6G (5D, 7F)
 There are    31 symmetry adapted cartesian basis functions of A'  symmetry.
 There are    10 symmetry adapted cartesian basis functions of A"  symmetry.
 There are    31 symmetry adapted basis functions of A'  symmetry.
 There are    10 symmetry adapted basis functions of A"  symmetry.
    41 basis functions,   246 primitive gaussians,    41 cartesian basis functions
    27 alpha electrons       26 beta electrons
       nuclear repulsion energy       293.0969966783 Hartrees.
 Integral buffers will be    131072 words long.
 Regular integral format.
 Two-electron integral symmetry is turned off.
 Do NDO integrals.
 One-electron integrals computed using PRISM.
 NBasis=    41 RedAO= T EigKep=  1.00D+00  NBF=    31    10
 NBsUse=    41 1.00D-06 EigRej= -1.00D+00 NBFU=    31    10
 Initial guess from the checkpoint file:  "geometry_chks/12345-1_345-ClBzNeutralRadical.chk"
 B after Tr=     0.000000   -0.000000    0.000000
         Rot=    0.999905    0.000000    0.000000    0.013797 Ang=   1.58 deg.
 Initial guess orbital symmetries:
 Alpha Orbitals:
       Occupied  (A') (A') (A') (A') (A') (A') (A') (A') (A') (A')
                 (A') (A') (A") (A') (A') (A") (A") (A') (A') (A")
                 (A') (A') (A') (A") (A') (A") (A")
       Virtual   (A") (A") (A') (A') (A') (A') (A') (A") (A') (A')
                 (A') (A') (A') (A')
 Beta  Orbitals:
       Occupied  (A') (A') (A') (A') (A') (A') (A') (A') (A') (A')
                 (A') (A') (A") (A') (A') (A") (A") (A") (A') (A')
                 (A') (A') (A") (A') (A") (A")
       Virtual   (A') (A") (A') (A') (A") (A') (A') (A') (A") (A')
                 (A') (A') (A') (A') (A')
 Initial guess <Sx>= 0.0000 <Sy>= 0.0000 <Sz>= 0.5000 <S**2>= 1.5433 S= 0.8392
 Keep J ints in memory in canonical form, NReq=864464.
 Overlap will be assumed to be unity.
 Requested convergence on RMS density matrix=1.00D-08 within  32 cycles.
 Requested convergence on MAX density matrix=1.00D-06.
 Requested convergence on             energy=1.00D-06.
 No special actions if energy rises.
 Fock symm off for IB=2 I1=    1 I=   32 J=   18 Cut=1.00D-07 Err=6.26D-03
 Fock matrix is not symmetric: symmetry in diagonalization turned off.
 SCF Done:  E(UAM1) =  0.177275846859     A.U. after   18 cycles
            NFock= 17  Conv=0.51D-08     -V/T= 1.0013
 <Sx>= 0.0000 <Sy>= 0.0000 <Sz>= 0.5000 <S**2>= 1.3247 S= 0.7549
 <L.S>=  0.00000000000    
 Annihilation of the first spin contaminant:
 S**2 before annihilation     1.3247,   after     1.0482
 QCSCF skips out because SCF is already converged.
 Calling FoFJK, ICntrl=      2127 FMM=F ISym2X=1 I1Cent= 0 IOpClX= 1 NMat=1 NMatS=1 NMatT=0.
 ***** Axes restored to original set *****
 -------------------------------------------------------------------
 Center     Atomic                   Forces (Hartrees/Bohr)
 Number     Number              X              Y              Z
 -------------------------------------------------------------------
      1        6           0.035784036   -0.017390235    0.000000000
      2        6          -0.020870939    0.036997744    0.000000000
      3        6           0.027899932    0.014755354   -0.000000000
      4        6           0.017705633   -0.022477382    0.000000000
      5        6           0.006165727   -0.102270752    0.000000000
      6        6          -0.036509258   -0.012096435   -0.000000000
      7       17           0.025349238    0.015158931   -0.000000000
      8       17          -0.000456617   -0.030221251   -0.000000000
      9       17          -0.025482318   -0.015228547   -0.000000000
     10       17          -0.026163209    0.012282255   -0.000000000
     11        1          -0.003422226    0.120490318   -0.000000000
 -------------------------------------------------------------------
 Cartesian Forces:  Max     0.120490318 RMS     0.032664934

 GradGradGradGradGradGradGradGradGradGradGradGradGradGradGradGradGradGrad
 Berny optimization.
 Using GEDIIS/GDIIS optimizer.
 FormGI is forming the generalized inverse of G from B-inverse, IUseBI=4.
 Internal  Forces:  Max     0.120538857 RMS     0.020445403
 Search for a local minimum.
 Step number   2 out of a maximum of   57
 All quantities printed in internal units (Hartrees-Bohrs-Radians)
 Mixed Optimization -- RFO/linear search
 Update second derivatives using D2CorX and points    1    2
 DE= -4.21D-02 DEPred=-3.66D-02 R= 1.15D+00
 TightC=F SS=  1.41D+00  RLast= 3.00D-01 DXNew= 5.0454D-01 9.0000D-01
 Trust test= 1.15D+00 RLast= 3.00D-01 DXMaxT set to 5.05D-01
 ITU=  1  0
 Use linear search instead of GDIIS.
     Eigenvalues ---   -4.17255   0.00027   0.02011   0.02011   0.02011
     Eigenvalues ---    0.02011   0.02011   0.02011   0.02011   0.02011
     Eigenvalues ---    0.16001   0.23545   0.24926   0.25000   0.25000
     Eigenvalues ---    0.25000   0.25000   0.25125   0.29028   0.29033
     Eigenvalues ---    0.29033   0.34329   0.41223   0.41682   0.44593
     Eigenvalues ---    0.44656   0.44657
 RFO step:  Lambda=-4.17258230D+00 EMin=-4.17255087D+00
 I=     1 Eig=   -4.17D+00 Dot1= -6.87D-03
 I=     1 Stepn= -6.00D-01 RXN=   6.00D-01 EDone=F
 Mixed    1 eigenvectors in step.  Raw Step.Grad=  6.87D-03.
 RFO eigenvector is Hessian eigenvector with negative curvature.
 Taking step of  6.00D-01 in eigenvector direction(s).  Step.Grad=  2.73D-02.
 Skip linear search -- no minimum in search direction.
 Maximum step size (   0.505) exceeded in Quadratic search.
    -- Step size not scaled.
 Iteration  1 RMS(Cart)=  0.11109845 RMS(Int)=  0.00590033
 Iteration  2 RMS(Cart)=  0.00741989 RMS(Int)=  0.00061283
 Iteration  3 RMS(Cart)=  0.00002241 RMS(Int)=  0.00061258
 Iteration  4 RMS(Cart)=  0.00000001 RMS(Int)=  0.00061258
 ClnCor:  largest displacement from symmetrization is 1.97D-10 for atom     9.
 Variable       Old X    -DE/DX   Delta X   Delta X   Delta X     New X
                                 (Linear)    (Quad)   (Total)
    R1        2.63246  -0.01660   0.00000  -0.19733  -0.19709   2.43537
    R2        2.63133  -0.01593   0.00000  -0.21511  -0.21413   2.41719
    R3        2.65410   0.00292   0.00000  -0.09773  -0.09854   2.55556
    R4        3.29069  -0.03018   0.00000  -0.16308  -0.16308   3.12761
    R5        2.65724   0.00458   0.00000  -0.06729  -0.06826   2.58898
    R6        3.29145  -0.02968   0.00000  -0.16011  -0.16011   3.13134
    R7        2.63936  -0.00854   0.00000  -0.19041  -0.19053   2.44884
    R8        3.29140  -0.02884   0.00000  -0.17273  -0.17273   3.11867
    R9        2.63533  -0.00937   0.00000  -0.23611  -0.23530   2.40003
   R10        3.05730  -0.12054   0.00000   0.21318   0.21318   3.27047
   R11        3.29103  -0.02953   0.00000  -0.16764  -0.16764   3.12339
    A1        2.12352   0.02101   0.00000   0.06556   0.06704   2.19056
    A2        2.07970  -0.00996   0.00000  -0.03905  -0.03973   2.03997
    A3        2.09673   0.00215   0.00000   0.00140   0.00174   2.09848
    A4        2.10675   0.00781   0.00000   0.03765   0.03799   2.14474
    A5        2.08831  -0.00479   0.00000  -0.02900  -0.03084   2.05748
    A6        2.09646   0.00179   0.00000   0.01163   0.01255   2.10900
    A7        2.09842   0.00299   0.00000   0.01737   0.01829   2.11671
    A8        2.09448   0.00040   0.00000  -0.02106  -0.02221   2.07227
    A9        2.10003   0.00298   0.00000   0.03136   0.03194   2.13197
   A10        2.08867  -0.00338   0.00000  -0.01031  -0.00973   2.07894
   A11        2.10393   0.00496   0.00000   0.04103   0.04158   2.14551
   A12        2.09037  -0.00231   0.00000  -0.01643  -0.01670   2.07366
   A13        2.08889  -0.00265   0.00000  -0.02460  -0.02488   2.06401
   A14        2.07642  -0.01163   0.00000  -0.01747  -0.01584   2.06058
   A15        2.10425   0.00628   0.00000   0.01221   0.01140   2.11564
   A16        2.10252   0.00535   0.00000   0.00526   0.00444   2.10696
    D1        0.00000  -0.00000   0.00000   0.00000   0.00000   0.00000
    D2        3.14159  -0.00000   0.00000   0.00000   0.00000   3.14159
    D3        0.00000   0.00000   0.00000  -0.00000   0.00000   0.00000
    D4        3.14159   0.00000   0.00000  -0.00000   0.00000   3.14159
    D5        0.00000  -0.00000   0.00000   0.00000   0.00000   0.00000
    D6        3.14159  -0.00000   0.00000   0.00000   0.00000   3.14159
    D7        3.14159   0.00000   0.00000  -0.00000   0.00000   3.14159
    D8        0.00000   0.00000   0.00000  -0.00000   0.00000   0.00000
    D9        0.00000   0.00000   0.00000  -0.00000   0.00000   0.00000
   D10        3.14159   0.00000   0.00000   0.00000   0.00000   3.14159
   D11        3.14159   0.00000   0.00000  -0.00000   0.00000   3.14159
   D12        0.00000   0.00000   0.00000  -0.00000   0.00000   0.00000
   D13        0.00000  -0.00000   0.00000  -0.00000   0.00000   0.00000
   D14        3.14159  -0.00000   0.00000   0.00000   0.00000   3.14159
   D15        3.14159   0.00000   0.00000  -0.00000   0.00000   3.14159
   D16        0.00000  -0.00000   0.00000   0.00000   0.00000   0.00000
   D17        0.00000  -0.00000   0.00000   0.00000   0.00000   0.00000
   D18        3.14159  -0.00000   0.00000   0.00000   0.00000   3.14159
   D19        3.14159   0.00000   0.00000   0.00000   0.00000   3.14159
   D20        0.00000   0.00000   0.00000   0.00000   0.00000   0.00000
         Item               Value     Threshold  Converged?
 Maximum Force            0.120539     0.000450     NO 
 RMS     Force            0.020445     0.000300     NO 
 Maximum Displacement     0.362214     0.001800     NO 
 RMS     Displacement     0.116440     0.001200     NO 
 Predicted change in Energy=-7.577377D-01
 GradGradGradGradGradGradGradGradGradGradGradGradGradGradGradGradGradGrad

                          Input orientation:                          
 ---------------------------------------------------------------------
 Center     Atomic      Atomic             Coordinates (Angstroms)
 Number     Number       Type             X           Y           Z
 ---------------------------------------------------------------------
      1          6           0       -3.048155    0.117726    0.000000
      2          6           0       -2.001044    0.869001    0.000000
      3          6           0       -0.801060    0.245402    0.000000
      4          6           0       -0.790896   -1.124588    0.000000
      5          6           0       -1.922555   -1.755953    0.000000
      6          6           0       -3.044833   -1.161394    0.000000
      7         17           0       -4.456113   -2.021701    0.000000
      8         17           0       -2.157508    2.516650    0.000000
      9         17           0        0.608711    1.116209    0.000000
     10         17           0        0.612804   -1.992470    0.000000
     11          1           0       -1.912121   -3.486581    0.000000
 ---------------------------------------------------------------------
                    Distance matrix (angstroms):
                    1          2          3          4          5
     1  C    0.000000
     2  C    1.288742   0.000000
     3  C    2.250719   1.352345   0.000000
     4  C    2.576541   2.332136   1.370028   0.000000
     5  C    2.185783   2.626128   2.294160   1.295868   0.000000
     6  C    1.279124   2.282981   2.648319   2.254238   1.270043
     7  Cl   2.561151   3.792562   4.301067   3.773411   2.547458
     8  Cl   2.558924   1.655061   2.645471   3.889247   4.279058
     9  Cl   3.790731   2.621437   1.657033   2.641982   3.828397
    10  Cl   4.225582   3.875593   2.647089   1.650331   2.546367
    11  H    3.779101   4.356490   3.893861   2.614605   1.730660
                    6          7          8          9         10
     6  C    0.000000
     7  Cl   1.652828   0.000000
     8  Cl   3.783564   5.087261   0.000000
     9  Cl   4.305329   5.958098   3.100516   0.000000
    10  Cl   3.750866   5.069001   5.292144   3.108682   0.000000
    11  H    2.586413   2.935604   6.008244   5.247883   2.933873
                   11
    11  H    0.000000
 Stoichiometry    C6HCl4(2)
 Framework group  CS[SG(C6HCl4)]
 Deg. of freedom    19
 Full point group                 CS      NOp   2
 Largest Abelian subgroup         CS      NOp   2
 Largest concise Abelian subgroup C1      NOp   1
                         Standard orientation:                         
 ---------------------------------------------------------------------
 Center     Atomic      Atomic             Coordinates (Angstroms)
 Number     Number       Type             X           Y           Z
 ---------------------------------------------------------------------
      1          6           0       -1.137675   -1.037212    0.000000
      2          6           0       -1.183637    0.250710    0.000000
      3          6           0        0.000000    0.904805    0.000000
      4          6           0        1.146527    0.154837    0.000000
      5          6           0        1.045824   -1.137112    0.000000
      6          6           0       -0.070611   -1.742572    0.000000
      7         17           0       -0.135456   -3.394128    0.000000
      8         17           0       -2.642385    1.032556    0.000000
      9         17           0        0.055265    2.560917    0.000000
     10         17           0        2.646376    0.843347    0.000000
     11          1           0        2.492832   -2.086506    0.000000
 ---------------------------------------------------------------------
 Rotational constants (GHZ):           0.9067883           0.6525901           0.3794852
 Standard basis: VSTO-6G (5D, 7F)
 There are    31 symmetry adapted cartesian basis functions of A'  symmetry.
 There are    10 symmetry adapted cartesian basis functions of A"  symmetry.
 There are    31 symmetry adapted basis functions of A'  symmetry.
 There are    10 symmetry adapted basis functions of A"  symmetry.
    41 basis functions,   246 primitive gaussians,    41 cartesian basis functions
    27 alpha electrons       26 beta electrons
       nuclear repulsion energy       302.8838440601 Hartrees.



 Warning!  Cl atom    7 may be hypervalent but has no d functions.
 Warning!  Cl atom    8 may be hypervalent but has no d functions.
 Warning!  Cl atom    9 may be hypervalent but has no d functions.
 Warning!  Cl atom   10 may be hypervalent but has no d functions.



 Integral buffers will be    131072 words long.
 Regular integral format.
 Two-electron integral symmetry is turned off.
 Do NDO integrals.
 One-electron integrals computed using PRISM.
 NBasis=    41 RedAO= T EigKep=  1.00D+00  NBF=    31    10
 NBsUse=    41 1.00D-06 EigRej= -1.00D+00 NBFU=    31    10
 Initial guess from the checkpoint file:  "geometry_chks/12345-1_345-ClBzNeutralRadical.chk"
 B after Tr=    -0.000000    0.000000    0.000000
         Rot=    0.999996    0.000000    0.000000    0.002926 Ang=   0.34 deg.
 Initial guess orbital symmetries:
 Alpha Orbitals:
       Occupied  (A') (A') (A') (A') (A') (A') (A') (A') (A') (A')
                 (A') (A') (A") (A') (A') (A") (A") (A') (A") (A')
                 (A') (A') (A') (A") (A') (A") (A")
       Virtual   (A") (A") (A') (A') (A') (A') (A') (A") (A') (A')
                 (A') (A') (A') (A')
 Beta  Orbitals:
       Occupied  (A') (A') (A') (A') (A') (A') (A') (A') (A') (A')
                 (A') (A') (A") (A') (A') (A") (A") (A") (A') (A')
                 (A') (A') (A') (A") (A") (A")
       Virtual   (A') (A") (A") (A') (A') (A') (A') (A') (A") (A')
                 (A') (A') (A') (A') (A')
 Initial guess <Sx>= 0.0000 <Sy>= 0.0000 <Sz>= 0.5000 <S**2>= 1.3247 S= 0.7549
 Keep J ints in memory in canonical form, NReq=864464.
 Overlap will be assumed to be unity.
 Requested convergence on RMS density matrix=1.00D-08 within  32 cycles.
 Requested convergence on MAX density matrix=1.00D-06.
 Requested convergence on             energy=1.00D-06.
 No special actions if energy rises.
 Fock symm off for IB=2 I1=    1 I=   32 J=   19 Cut=1.00D-07 Err=7.08D-03
 Fock matrix is not symmetric: symmetry in diagonalization turned off.
 SCF Done:  E(UAM1) =  0.275626934403     A.U. after   23 cycles
            NFock= 22  Conv=0.57D-08     -V/T= 1.0021
 <Sx>= 0.0000 <Sy>= 0.0000 <Sz>= 0.5000 <S**2>= 0.9753 S= 0.6069
 <L.S>=  0.00000000000    
 Annihilation of the first spin contaminant:
 S**2 before annihilation     0.9753,   after     0.7938
 QCSCF skips out because SCF is already converged.
 Calling FoFJK, ICntrl=      2127 FMM=F ISym2X=1 I1Cent= 0 IOpClX= 1 NMat=1 NMatS=1 NMatT=0.
 ***** Axes restored to original set *****
 -------------------------------------------------------------------
 Center     Atomic                   Forces (Hartrees/Bohr)
 Number     Number              X              Y              Z
 -------------------------------------------------------------------
      1        6          -0.109574517    0.083897260    0.000000000
      2        6           0.024830283    0.125339342    0.000000000
      3        6           0.080315369    0.025412998    0.000000000
      4        6           0.119019545   -0.001186568    0.000000000
      5        6           0.052145656   -0.273828100   -0.000000000
      6        6          -0.183931412   -0.078161395   -0.000000000
      7       17          -0.041358790   -0.023620031   -0.000000000
      8       17          -0.001832949    0.034978349   -0.000000000
      9       17           0.024647153    0.014016061   -0.000000000
     10       17           0.036060252   -0.018339341   -0.000000000
     11        1          -0.000320589    0.111491424   -0.000000000
 -------------------------------------------------------------------
 Cartesian Forces:  Max     0.273828100 RMS     0.076404539

 GradGradGradGradGradGradGradGradGradGradGradGradGradGradGradGradGradGrad
 Berny optimization.
 Using GEDIIS/GDIIS optimizer.
 FormGI is forming the generalized inverse of G from B-inverse, IUseBI=4.
 Internal  Forces:  Max     0.213312233 RMS     0.062404704
 Search for a local minimum.
 Step number   3 out of a maximum of   57
 All quantities printed in internal units (Hartrees-Bohrs-Radians)
 Mixed Optimization -- RFO/linear search
 Update second derivatives using D2CorX and points    1    3    2
 ITU=  0  1  0
 Use linear search instead of GDIIS.
     Eigenvalues ---    0.00025   0.02011   0.02011   0.02011   0.02011
     Eigenvalues ---    0.02011   0.02011   0.02011   0.02011   0.16001
     Eigenvalues ---    0.22339   0.24067   0.24995   0.25000   0.25000
     Eigenvalues ---    0.25000   0.25020   0.27721   0.29030   0.29033
     Eigenvalues ---    0.29117   0.40753   0.40837   0.44538   0.44649
     Eigenvalues ---    0.44657   0.96395
 RFO step:  Lambda=-1.30319203D-01 EMin= 2.45185028D-04
 Quartic linear search produced a step of -0.96101.
 Maximum step size (   0.505) exceeded in Quadratic search.
    -- Step size scaled by   0.512
 Iteration  1 RMS(Cart)=  0.10069357 RMS(Int)=  0.07148623
 Iteration  2 RMS(Cart)=  0.02654503 RMS(Int)=  0.04201475
 Iteration  3 RMS(Cart)=  0.02780513 RMS(Int)=  0.01284245
 Iteration  4 RMS(Cart)=  0.01223660 RMS(Int)=  0.00015604
 Iteration  5 RMS(Cart)=  0.00000193 RMS(Int)=  0.00015604
 Iteration  6 RMS(Cart)=  0.00000000 RMS(Int)=  0.00015604
 ClnCor:  largest displacement from symmetrization is 1.70D-08 for atom    10.
 Variable       Old X    -DE/DX   Delta X   Delta X   Delta X     New X
                                 (Linear)    (Quad)   (Total)
    R1        2.43537   0.16489   0.18941  -0.00130   0.18786   2.62323
    R2        2.41719   0.17920   0.20578   0.00157   0.20719   2.62439
    R3        2.55556   0.12890   0.09469   0.02523   0.11982   2.67538
    R4        3.12761   0.03499   0.15672  -0.06199   0.09473   3.22234
    R5        2.58898   0.10443   0.06560   0.02389   0.08964   2.67861
    R6        3.13134   0.02834   0.15387  -0.06183   0.09204   3.22338
    R7        2.44884   0.17105   0.18310   0.01353   0.19688   2.64571
    R8        3.11867   0.04032   0.16599  -0.05781   0.10818   3.22686
    R9        2.40003   0.21331   0.22612   0.01824   0.24446   2.64450
   R10        3.27047  -0.11149  -0.20486  -0.48196  -0.68683   2.58365
   R11        3.12339   0.04761   0.16110  -0.05861   0.10250   3.22589
    A1        2.19056   0.00509  -0.06442   0.05172  -0.01324   2.17731
    A2        2.03997   0.00645   0.03818  -0.02285   0.01500   2.05497
    A3        2.09848  -0.00091  -0.00168   0.00483   0.00332   2.10180
    A4        2.14474  -0.00554  -0.03651   0.01802  -0.01832   2.12642
    A5        2.05748   0.01965   0.02963  -0.00661   0.02309   2.08057
    A6        2.10900  -0.00821  -0.01206   0.00206  -0.01004   2.09897
    A7        2.11671  -0.01143  -0.01758   0.00456  -0.01306   2.10365
    A8        2.07227   0.00725   0.02134   0.00354   0.02531   2.09759
    A9        2.13197  -0.00887  -0.03069   0.00525  -0.02566   2.10631
   A10        2.07894   0.00162   0.00935  -0.00878   0.00035   2.07929
   A11        2.14551   0.00053  -0.03996   0.01207  -0.02751   2.11800
   A12        2.07366  -0.00084   0.01605  -0.00556   0.01031   2.08397
   A13        2.06401   0.00031   0.02391  -0.00651   0.01720   2.08121
   A14        2.06058  -0.03896   0.01522  -0.03786  -0.02265   2.03793
   A15        2.11564   0.01736  -0.01095   0.01973   0.00879   2.12443
   A16        2.10696   0.02160  -0.00427   0.01813   0.01386   2.12083
    D1        0.00000  -0.00000   0.00000  -0.00000   0.00000   0.00000
    D2        3.14159  -0.00000   0.00000  -0.00000   0.00000   3.14159
    D3        0.00000   0.00000   0.00000   0.00000   0.00000   0.00000
    D4        3.14159   0.00000   0.00000   0.00000   0.00000   3.14159
    D5        0.00000   0.00000   0.00000  -0.00000   0.00000   0.00000
    D6        3.14159  -0.00000   0.00000  -0.00000   0.00000   3.14159
    D7        3.14159   0.00000   0.00000   0.00000   0.00000   3.14159
    D8        0.00000   0.00000   0.00000   0.00000   0.00000   0.00000
    D9        0.00000   0.00000   0.00000   0.00000   0.00000   0.00000
   D10        3.14159  -0.00000   0.00000  -0.00000   0.00000   3.14159
   D11        3.14159   0.00000   0.00000   0.00000   0.00000   3.14159
   D12        0.00000   0.00000   0.00000   0.00000   0.00000   0.00000
   D13        0.00000  -0.00000   0.00000  -0.00000   0.00000   0.00000
   D14        3.14159  -0.00000   0.00000  -0.00000   0.00000   3.14159
   D15        3.14159   0.00000   0.00000   0.00000   0.00000   3.14159
   D16        0.00000   0.00000   0.00000  -0.00000   0.00000   0.00000
   D17        0.00000   0.00000   0.00000  -0.00000   0.00000   0.00000
   D18        3.14159   0.00000   0.00000  -0.00000   0.00000   3.14159
   D19        3.14159   0.00000   0.00000   0.00000   0.00000   3.14159
   D20        0.00000   0.00000   0.00000   0.00000   0.00000   0.00000
         Item               Value     Threshold  Converged?
 Maximum Force            0.213312     0.000450     NO 
 RMS     Force            0.062405     0.000300     NO 
 Maximum Displacement     0.422399     0.001800     NO 
 RMS     Displacement     0.123195     0.001200     NO 
 Predicted change in Energy=-7.640758D-02
 GradGradGradGradGradGradGradGradGradGradGradGradGradGradGradGradGradGrad

                          Input orientation:                          
 ---------------------------------------------------------------------
 Center     Atomic      Atomic             Coordinates (Angstroms)
 Number     Number       Type             X           Y           Z
 ---------------------------------------------------------------------
      1          6           0       -3.152692    0.137337    0.000000
      2          6           0       -2.002689    0.914806    0.000000
      3          6           0       -0.754956    0.245840    0.000000
      4          6           0       -0.729968   -1.171402    0.000000
      5          6           0       -1.927612   -1.896518    0.000000
      6          6           0       -3.169414   -1.251329    0.000000
      7         17           0       -4.632180   -2.131325    0.000000
      8         17           0       -2.110855    2.616560    0.000000
      9         17           0        0.698799    1.138111    0.000000
     10         17           0        0.753696   -2.016721    0.000000
     11          1           0       -1.884899   -3.263058    0.000000
 ---------------------------------------------------------------------
                    Distance matrix (angstroms):
                    1          2          3          4          5
     1  C    0.000000
     2  C    1.388152   0.000000
     3  C    2.400190   1.415752   0.000000
     4  C    2.753613   2.443784   1.417462   0.000000
     5  C    2.374318   2.812326   2.442298   1.400052   0.000000
     6  C    1.388767   2.460364   2.840973   2.440755   1.399408
     7  Cl   2.708452   4.024070   4.547943   4.018546   2.714742
     8  Cl   2.689233   1.705188   2.731076   4.031811   4.516797
     9  Cl   3.979388   2.710701   1.705740   2.715736   4.013353
    10  Cl   4.460923   4.023867   2.719414   1.707579   2.684001
    11  H    3.629047   4.179523   3.686344   2.389328   1.367207
                    6          7          8          9         10
     6  C    0.000000
     7  Cl   1.707067   0.000000
     8  Cl   4.010127   5.375825   0.000000
     9  Cl   4.546702   6.253683   3.174896   0.000000
    10  Cl   3.997077   5.387096   5.447287   3.155309   0.000000
    11  H    2.386845   2.971258   5.883958   5.103506   2.918140
                   11
    11  H    0.000000
 Stoichiometry    C6HCl4(2)
 Framework group  CS[SG(C6HCl4)]
 Deg. of freedom    19
 Full point group                 CS      NOp   2
 Largest Abelian subgroup         CS      NOp   2
 Largest concise Abelian subgroup C1      NOp   1
                         Standard orientation:                         
 ---------------------------------------------------------------------
 Center     Atomic      Atomic             Coordinates (Angstroms)
 Number     Number       Type             X           Y           Z
 ---------------------------------------------------------------------
      1          6           0       -1.214988   -1.127649    0.000000
      2          6           0       -1.240634    0.260266    0.000000
      3          6           0        0.000000    0.942307    0.000000
      4          6           0        1.202177    0.191329    0.000000
      5          6           0        1.157970   -1.208025    0.000000
      6          6           0       -0.059493   -1.898043    0.000000
      7         17           0       -0.118216   -3.604099    0.000000
      8         17           0       -2.726722    1.096453    0.000000
      9         17           0        0.043520    2.647492    0.000000
     10         17           0        2.719215    0.975179    0.000000
     11          1           0        2.327280   -1.916521    0.000000
 ---------------------------------------------------------------------
 Rotational constants (GHZ):           0.8505465           0.5834300           0.3460547
 Standard basis: VSTO-6G (5D, 7F)
 There are    31 symmetry adapted cartesian basis functions of A'  symmetry.
 There are    10 symmetry adapted cartesian basis functions of A"  symmetry.
 There are    31 symmetry adapted basis functions of A'  symmetry.
 There are    10 symmetry adapted basis functions of A"  symmetry.
    41 basis functions,   246 primitive gaussians,    41 cartesian basis functions
    27 alpha electrons       26 beta electrons
       nuclear repulsion energy       294.5703577570 Hartrees.
 Integral buffers will be    131072 words long.
 Regular integral format.
 Two-electron integral symmetry is turned off.
 Do NDO integrals.
 One-electron integrals computed using PRISM.
 NBasis=    41 RedAO= T EigKep=  1.00D+00  NBF=    31    10
 NBsUse=    41 1.00D-06 EigRej= -1.00D+00 NBFU=    31    10
 Lowest energy guess from the checkpoint file:  "geometry_chks/12345-1_345-ClBzNeutralRadical.chk"
 B after Tr=    -0.000000   -0.000000   -0.000000
         Rot=    0.999998   -0.000000    0.000000   -0.001824 Ang=  -0.21 deg.
 B after Tr=     0.000000   -0.000000   -0.000000
         Rot=    0.999989   -0.000000   -0.000000   -0.004747 Ang=  -0.54 deg.
 Initial guess orbital symmetries:
 Alpha Orbitals:
       Occupied  (A") (A") (A') (A') (A") (A') (A') (A') (A') (A')
                 (A') (A') (A') (A') (A") (A") (A") (A") (A") (A")
                 (A") (A") (A") (A") (A") (A") (A")
       Virtual   (A") (A") (A') (A') (A") (A') (A') (A') (A') (A')
                 (A') (A') (A') (A')
 Beta  Orbitals:
       Occupied  (A") (A") (A') (A") (A') (A') (A') (A') (A') (A')
                 (A') (A') (A') (A') (A') (A") (A") (A") (A') (A")
                 (A") (A") (A") (A") (A") (A")
       Virtual   (A") (A") (A') (A") (A') (A') (A') (A') (A') (A')
                 (A') (A') (A') (A') (A')
 Initial guess <Sx>= 0.0000 <Sy>= 0.0000 <Sz>= 0.5000 <S**2>= 1.3079 S= 0.7482
 Keep J ints in memory in canonical form, NReq=864464.
 Overlap will be assumed to be unity.
 Requested convergence on RMS density matrix=1.00D-08 within  32 cycles.
 Requested convergence on MAX density matrix=1.00D-06.
 Requested convergence on             energy=1.00D-06.
 No special actions if energy rises.
 An orbital has undefined symmetry, so N**3 symmetry is turned off.
 SCF Done:  E(UAM1) =  0.115074781623     A.U. after   16 cycles
            NFock= 15  Conv=0.79D-08     -V/T= 1.0009
 <Sx>= 0.0000 <Sy>= 0.0000 <Sz>= 0.5000 <S**2>= 1.3506 S= 0.7652
 <L.S>=  0.00000000000    
 Annihilation of the first spin contaminant:
 S**2 before annihilation     1.3506,   after     1.0735
 QCSCF skips out because SCF is already converged.
 Calling FoFJK, ICntrl=      2127 FMM=F ISym2X=1 I1Cent= 0 IOpClX= 1 NMat=1 NMatS=1 NMatT=0.
 ***** Axes restored to original set *****
 -------------------------------------------------------------------
 Center     Atomic                   Forces (Hartrees/Bohr)
 Number     Number              X              Y              Z
 -------------------------------------------------------------------
      1        6           0.023332794   -0.011679441    0.000000000
      2        6          -0.012040407    0.013047447    0.000000000
      3        6           0.009266295    0.002438647    0.000000000
      4        6           0.001847356   -0.003434280    0.000000000
      5        6           0.005968579   -0.095624419    0.000000000
      6        6          -0.017096876    0.000829567    0.000000000
      7       17           0.012568683    0.007358762   -0.000000000
      8       17           0.000447262   -0.013445756   -0.000000000
      9       17          -0.010942301   -0.006371939   -0.000000000
     10       17          -0.010222253    0.005190732   -0.000000000
     11        1          -0.003129132    0.101690680   -0.000000000
 -------------------------------------------------------------------
 Cartesian Forces:  Max     0.101690680 RMS     0.025590819

 GradGradGradGradGradGradGradGradGradGradGradGradGradGradGradGradGradGrad
 Berny optimization.
 Using GEDIIS/GDIIS optimizer.
 FormGI is forming the generalized inverse of G from B-inverse, IUseBI=4.
 Internal  Forces:  Max     0.101738800 RMS     0.015794748
 Search for a local minimum.
 Step number   4 out of a maximum of   57
 All quantities printed in internal units (Hartrees-Bohrs-Radians)
 Mixed Optimization -- RFO/linear search
 Update second derivatives using D2CorX and points    2    4
 DE= -6.22D-02 DEPred=-7.64D-02 R= 8.14D-01
 TightC=F SS=  1.41D+00  RLast= 5.00D-01 DXNew= 8.4853D-01 1.4997D+00
 Trust test= 8.14D-01 RLast= 5.00D-01 DXMaxT set to 8.49D-01
 ITU=  1  0  1  0
 Use linear search instead of GDIIS.
     Eigenvalues ---    0.00496   0.02011   0.02011   0.02011   0.02011
     Eigenvalues ---    0.02011   0.02011   0.02011   0.02011   0.12117
     Eigenvalues ---    0.16001   0.23627   0.24994   0.25000   0.25000
     Eigenvalues ---    0.25002   0.25045   0.26101   0.29032   0.29046
     Eigenvalues ---    0.29059   0.40435   0.41348   0.44378   0.44656
     Eigenvalues ---    0.44731   0.72124
 RFO step:  Lambda=-2.01099828D-02 EMin= 4.96128601D-03
 Quartic linear search produced a step of  1.07784.
 Iteration  1 RMS(Cart)=  0.06078670 RMS(Int)=  0.14073774
 Iteration  2 RMS(Cart)=  0.02762386 RMS(Int)=  0.11156232
 Iteration  3 RMS(Cart)=  0.02779652 RMS(Int)=  0.08238946
 Iteration  4 RMS(Cart)=  0.02779555 RMS(Int)=  0.05321665
 Iteration  5 RMS(Cart)=  0.02779543 RMS(Int)=  0.02404421
 Iteration  6 RMS(Cart)=  0.02290775 RMS(Int)=  0.00021585
 Iteration  7 RMS(Cart)=  0.00000786 RMS(Int)=  0.00021567
 Iteration  8 RMS(Cart)=  0.00000000 RMS(Int)=  0.00021567
 ClnCor:  largest displacement from symmetrization is 7.81D-09 for atom     3.
 Variable       Old X    -DE/DX   Delta X   Delta X   Delta X     New X
                                 (Linear)    (Quad)   (Total)
    R1        2.62323  -0.01344  -0.00996   0.09741   0.08751   2.71074
    R2        2.62439  -0.01270  -0.00748   0.10104   0.09388   2.71827
    R3        2.67538  -0.00307   0.02294  -0.01527   0.00740   2.68279
    R4        3.22234  -0.01345  -0.07367   0.19205   0.11838   3.34072
    R5        2.67861  -0.00326   0.02304  -0.03511  -0.01240   2.66622
    R6        3.22338  -0.01266  -0.07337   0.19724   0.12387   3.34725
    R7        2.64571  -0.00604   0.00684   0.07921   0.08599   2.73170
    R8        3.22686  -0.01145  -0.06957   0.19895   0.12938   3.35623
    R9        2.64450  -0.00509   0.00988   0.09749   0.10764   2.75213
   R10        2.58365  -0.10174  -0.51052  -0.65334  -1.16386   1.41979
   R11        3.22589  -0.01456  -0.07021   0.17478   0.10457   3.33045
    A1        2.17731   0.01235   0.05798  -0.10856  -0.05004   2.12727
    A2        2.05497  -0.00574  -0.02666   0.04873   0.02181   2.07678
    A3        2.10180   0.00221   0.00546  -0.00061   0.00498   2.10677
    A4        2.12642   0.00352   0.02120  -0.04812  -0.02679   2.09963
    A5        2.08057  -0.00210  -0.00835   0.02932   0.02033   2.10090
    A6        2.09897   0.00058   0.00271  -0.01359  -0.01056   2.08840
    A7        2.10365   0.00152   0.00564  -0.01573  -0.00977   2.09388
    A8        2.09759   0.00200   0.00334   0.02758   0.03051   2.12809
    A9        2.10631  -0.00011   0.00677  -0.03732  -0.03034   2.07597
   A10        2.07929  -0.00189  -0.01011   0.00973  -0.00017   2.07913
   A11        2.11800  -0.00089   0.01517  -0.06949  -0.05413   2.06387
   A12        2.08397   0.00038  -0.00690   0.03158   0.02459   2.10856
   A13        2.08121   0.00051  -0.00827   0.03791   0.02954   2.11076
   A14        2.03793  -0.00561  -0.04149   0.07242   0.03153   2.06945
   A15        2.12443   0.00309   0.02175  -0.03766  -0.01620   2.10823
   A16        2.12083   0.00253   0.01973  -0.03476  -0.01532   2.10551
    D1        0.00000  -0.00000   0.00000  -0.00000   0.00000   0.00000
    D2        3.14159  -0.00000   0.00000  -0.00000   0.00000   3.14159
    D3        0.00000  -0.00000   0.00000  -0.00000   0.00000   0.00000
    D4        3.14159   0.00000   0.00000   0.00000   0.00000   3.14159
    D5        0.00000   0.00000   0.00000   0.00000   0.00000   0.00000
    D6        3.14159  -0.00000   0.00000   0.00000   0.00000   3.14159
    D7        3.14159   0.00000   0.00000   0.00000   0.00000   3.14159
    D8        0.00000   0.00000   0.00000   0.00000   0.00000   0.00000
    D9        0.00000   0.00000   0.00000  -0.00000   0.00000   0.00000
   D10        3.14159  -0.00000   0.00000  -0.00000   0.00000   3.14159
   D11        3.14159   0.00000   0.00000   0.00000   0.00000   3.14159
   D12        0.00000  -0.00000   0.00000  -0.00000   0.00000   0.00000
   D13        0.00000  -0.00000   0.00000  -0.00000   0.00000   0.00000
   D14        3.14159  -0.00000   0.00000  -0.00000   0.00000   3.14159
   D15        3.14159   0.00000   0.00000   0.00000   0.00000   3.14159
   D16        0.00000  -0.00000   0.00000   0.00000   0.00000   0.00000
   D17        0.00000   0.00000   0.00000   0.00000   0.00000   0.00000
   D18        3.14159  -0.00000   0.00000   0.00000   0.00000   3.14159
   D19        3.14159   0.00000   0.00000   0.00000   0.00000   3.14159
   D20        0.00000   0.00000   0.00000   0.00000   0.00000   0.00000
         Item               Value     Threshold  Converged?
 Maximum Force            0.101739     0.000450     NO 
 RMS     Force            0.015795     0.000300     NO 
 Maximum Displacement     0.934617     0.001800     NO 
 RMS     Displacement     0.155065     0.001200     NO 
 Predicted change in Energy=-1.009194D-01
 GradGradGradGradGradGradGradGradGradGradGradGradGradGradGradGradGradGrad

                          Input orientation:                          
 ---------------------------------------------------------------------
 Center     Atomic      Atomic             Coordinates (Angstroms)
 Number     Number       Type             X           Y           Z
 ---------------------------------------------------------------------
      1          6           0       -3.219912    0.108872    0.000000
      2          6           0       -2.006655    0.874176    0.000000
      3          6           0       -0.762183    0.190984    0.000000
      4          6           0       -0.722619   -1.219363    0.000000
      5          6           0       -1.927523   -2.018009    0.000000
      6          6           0       -3.210886   -1.329547    0.000000
      7         17           0       -4.719144   -2.241256    0.000000
      8         17           0       -2.053973    2.641374    0.000000
      9         17           0        0.746839    1.118516    0.000000
     10         17           0        0.855075   -2.034968    0.000000
     11          1           0       -1.891788   -2.768479    0.000000
 ---------------------------------------------------------------------
                    Distance matrix (angstroms):
                    1          2          3          4          5
     1  C    0.000000
     2  C    1.434462   0.000000
     3  C    2.459101   1.419670   0.000000
     4  C    2.828548   2.455943   1.410902   0.000000
     5  C    2.488753   2.893267   2.497532   1.445555   0.000000
     6  C    1.438447   2.511288   2.882388   2.490706   1.456366
     7  Cl   2.787616   4.130801   4.644711   4.125104   2.800534
     8  Cl   2.788006   1.767832   2.770042   4.083846   4.661099
     9  Cl   4.093225   2.764313   1.771287   2.761337   4.121892
    10  Cl   4.604516   4.080761   2.751433   1.776043   2.782649
    11  H    3.169080   3.644466   3.167717   1.940803   0.751321
                    6          7          8          9         10
     6  C    0.000000
     7  Cl   1.762401   0.000000
     8  Cl   4.136020   5.562662   0.000000
     9  Cl   4.653664   6.415998   3.188047   0.000000
    10  Cl   4.126700   5.578035   5.507335   3.155341   0.000000
    11  H    1.952062   2.876093   5.412284   4.697987   2.843113
                   11
    11  H    0.000000
 Stoichiometry    C6HCl4(2)
 Framework group  CS[SG(C6HCl4)]
 Deg. of freedom    19
 Full point group                 CS      NOp   2
 Largest Abelian subgroup         CS      NOp   2
 Largest concise Abelian subgroup C1      NOp   1
                         Standard orientation:                         
 ---------------------------------------------------------------------
 Center     Atomic      Atomic             Coordinates (Angstroms)
 Number     Number       Type             X           Y           Z
 ---------------------------------------------------------------------
      1          6           0       -1.259371   -1.196683   -0.000000
      2          6           0       -1.247453    0.237730   -0.000000
      3          6           0        0.000000    0.915463    0.000000
      4          6           0        1.207954    0.186427    0.000000
      5          6           0        1.228603   -1.258980    0.000000
      6          6           0       -0.044306   -1.966585   -0.000000
      7         17           0       -0.092502   -3.728326   -0.000000
      8         17           0       -2.759828    1.153127   -0.000000
      9         17           0        0.035297    2.686399    0.000000
     10         17           0        2.746923    1.072938    0.000000
     11          1           0        1.879312   -1.634560    0.000000
 ---------------------------------------------------------------------
 Rotational constants (GHZ):           0.8320397           0.5483321           0.3305154
 Standard basis: VSTO-6G (5D, 7F)
 There are    31 symmetry adapted cartesian basis functions of A'  symmetry.
 There are    10 symmetry adapted cartesian basis functions of A"  symmetry.
 There are    31 symmetry adapted basis functions of A'  symmetry.
 There are    10 symmetry adapted basis functions of A"  symmetry.
    41 basis functions,   246 primitive gaussians,    41 cartesian basis functions
    27 alpha electrons       26 beta electrons
       nuclear repulsion energy       291.7059289414 Hartrees.
 Integral buffers will be    131072 words long.
 Regular integral format.
 Two-electron integral symmetry is turned off.
 Do NDO integrals.
 One-electron integrals computed using PRISM.
 NBasis=    41 RedAO= T EigKep=  1.00D+00  NBF=    31    10
[...]
    R4        3.17114   0.00022   0.00014   0.00056   0.00069   3.17184
    R5        2.67530   0.00008  -0.00003   0.00013   0.00010   2.67540
    R6        3.18127   0.00009   0.00013   0.00014   0.00027   3.18154
    R7        2.65849   0.00005   0.00009  -0.00003   0.00006   2.65855
    R8        3.19996  -0.00002   0.00007  -0.00023  -0.00016   3.19980
    R9        2.66863  -0.00007   0.00009  -0.00031  -0.00022   2.66841
   R10        2.08026  -0.00015  -0.00070   0.00024  -0.00046   2.07980
   R11        3.17408   0.00014   0.00005   0.00034   0.00040   3.17448
    A1        2.25085  -0.00008  -0.00019  -0.00017  -0.00036   2.25049
    A2        2.01291   0.00003   0.00014   0.00006   0.00020   2.01311
    A3        2.12474   0.00003  -0.00002   0.00012   0.00010   2.12484
    A4        2.14553  -0.00006  -0.00012  -0.00018  -0.00030   2.14523
    A5        2.07356   0.00001   0.00003   0.00000   0.00004   2.07359
    A6        2.09668  -0.00001  -0.00002  -0.00002  -0.00004   2.09664
    A7        2.11295  -0.00000  -0.00001   0.00002   0.00001   2.11295
    A8        2.13182  -0.00001  -0.00009  -0.00003  -0.00012   2.13170
    A9        2.09432  -0.00000  -0.00001   0.00004   0.00003   2.09435
   A10        2.05704   0.00001   0.00010  -0.00000   0.00009   2.05714
   A11        2.08471   0.00006   0.00004   0.00014   0.00018   2.08489
   A12        2.10051  -0.00001   0.00002  -0.00000   0.00002   2.10053
   A13        2.09796  -0.00004  -0.00006  -0.00014  -0.00020   2.09777
   A14        2.01252  -0.00001   0.00007  -0.00000   0.00006   2.01258
   A15        2.14142   0.00002  -0.00002   0.00006   0.00004   2.14146
   A16        2.12925  -0.00001  -0.00004  -0.00006  -0.00010   2.12914
    D1       -0.00000  -0.00000   0.00000  -0.00000   0.00000   0.00000
    D2        3.14159  -0.00000   0.00000  -0.00000   0.00000   3.14159
    D3        0.00000  -0.00000   0.00000  -0.00000   0.00000   0.00000
    D4        3.14159   0.00000   0.00000   0.00000   0.00000   3.14159
    D5        0.00000   0.00000   0.00000   0.00000   0.00000   0.00000
    D6        3.14159  -0.00000   0.00000  -0.00000   0.00000   3.14159
    D7        3.14159   0.00000   0.00000   0.00000   0.00000   3.14159
    D8        0.00000   0.00000   0.00000   0.00000   0.00000   0.00000
    D9       -0.00000  -0.00000   0.00000  -0.00000   0.00000   0.00000
   D10        3.14159  -0.00000   0.00000  -0.00000   0.00000   3.14159
   D11        3.14159   0.00000   0.00000   0.00000   0.00000   3.14159
   D12       -0.00000   0.00000   0.00000   0.00000   0.00000   0.00000
   D13       -0.00000  -0.00000   0.00000  -0.00000   0.00000   0.00000
   D14        3.14159  -0.00000   0.00000  -0.00000   0.00000   3.14159
   D15        3.14159  -0.00000   0.00000  -0.00000   0.00000   3.14159
   D16       -0.00000  -0.00000   0.00000  -0.00000   0.00000   0.00000
   D17        0.00000   0.00000   0.00000   0.00000  -0.00000   0.00000
   D18        3.14159  -0.00000   0.00000  -0.00000   0.00000   3.14159
   D19        3.14159   0.00000   0.00000   0.00000   0.00000   3.14159
   D20        0.00000   0.00000   0.00000   0.00000   0.00000   0.00000
         Item               Value     Threshold  Converged?
 Maximum Force            0.000218     0.000450     YES
 RMS     Force            0.000067     0.000300     YES
 Maximum Displacement     0.001082     0.001800     YES
 RMS     Displacement     0.000263     0.001200     YES
 Predicted change in Energy=-2.773068D-07
 Optimization completed.
    -- Stationary point found.
                           ----------------------------
                           !   Optimized Parameters   !
                           ! (Angstroms and Degrees)  !
 --------------------------                            --------------------------
 ! Name  Definition              Value          Derivative Info.                !
 --------------------------------------------------------------------------------
 ! R1    R(1,2)                  1.3738         -DE/DX =    0.0002              !
 ! R2    R(1,6)                  1.3744         -DE/DX =    0.0002              !
 ! R3    R(2,3)                  1.4214         -DE/DX =    0.0                 !
 ! R4    R(2,8)                  1.6781         -DE/DX =    0.0002              !
 ! R5    R(3,4)                  1.4157         -DE/DX =    0.0001              !
 ! R6    R(3,9)                  1.6835         -DE/DX =    0.0001              !
 ! R7    R(4,5)                  1.4068         -DE/DX =    0.0                 !
 ! R8    R(4,10)                 1.6933         -DE/DX =    0.0                 !
 ! R9    R(5,6)                  1.4122         -DE/DX =   -0.0001              !
 ! R10   R(5,11)                 1.1008         -DE/DX =   -0.0002              !
 ! R11   R(6,7)                  1.6797         -DE/DX =    0.0001              !
 ! A1    A(2,1,6)              128.9641         -DE/DX =   -0.0001              !
 ! A2    A(1,2,3)              115.3314         -DE/DX =    0.0                 !
 ! A3    A(1,2,8)              121.7389         -DE/DX =    0.0                 !
 ! A4    A(3,2,8)              122.9298         -DE/DX =   -0.0001              !
 ! A5    A(2,3,4)              118.806          -DE/DX =    0.0                 !
 ! A6    A(2,3,9)              120.1311         -DE/DX =    0.0                 !
 ! A7    A(4,3,9)              121.0629         -DE/DX =    0.0                 !
 ! A8    A(3,4,5)              122.1445         -DE/DX =    0.0                 !
 ! A9    A(3,4,10)             119.9956         -DE/DX =    0.0                 !
 ! A10   A(5,4,10)             117.8599         -DE/DX =    0.0                 !
 ! A11   A(4,5,6)              119.4451         -DE/DX =    0.0001              !
 ! A12   A(4,5,11)             120.3505         -DE/DX =    0.0                 !
 ! A13   A(6,5,11)             120.2044         -DE/DX =    0.0                 !
 ! A14   A(1,6,5)              115.3089         -DE/DX =    0.0                 !
 ! A15   A(1,6,7)              122.6943         -DE/DX =    0.0                 !
 ! A16   A(5,6,7)              121.9968         -DE/DX =    0.0                 !
 ! D1    D(6,1,2,3)              0.0            -DE/DX =    0.0                 !
 ! D2    D(6,1,2,8)            180.0            -DE/DX =    0.0                 !
 ! D3    D(2,1,6,5)              0.0            -DE/DX =    0.0                 !
 ! D4    D(2,1,6,7)            180.0            -DE/DX =    0.0                 !
 ! D5    D(1,2,3,4)              0.0            -DE/DX =    0.0                 !
 ! D6    D(1,2,3,9)            180.0            -DE/DX =    0.0                 !
 ! D7    D(8,2,3,4)            180.0            -DE/DX =    0.0                 !
 ! D8    D(8,2,3,9)              0.0            -DE/DX =    0.0                 !
 ! D9    D(2,3,4,5)              0.0            -DE/DX =    0.0                 !
 ! D10   D(2,3,4,10)           180.0            -DE/DX =    0.0                 !
 ! D11   D(9,3,4,5)            180.0            -DE/DX =    0.0                 !
 ! D12   D(9,3,4,10)             0.0            -DE/DX =    0.0                 !
 ! D13   D(3,4,5,6)              0.0            -DE/DX =    0.0                 !
 ! D14   D(3,4,5,11)           180.0            -DE/DX =    0.0                 !
 ! D15   D(10,4,5,6)           180.0            -DE/DX =    0.0                 !
 ! D16   D(10,4,5,11)            0.0            -DE/DX =    0.0                 !
 ! D17   D(4,5,6,1)              0.0            -DE/DX =    0.0                 !
 ! D18   D(4,5,6,7)            180.0            -DE/DX =    0.0                 !
 ! D19   D(11,5,6,1)           180.0            -DE/DX =    0.0                 !
 ! D20   D(11,5,6,7)             0.0            -DE/DX =    0.0                 !
 --------------------------------------------------------------------------------
 GradGradGradGradGradGradGradGradGradGradGradGradGradGradGradGradGradGrad

                          Input orientation:                          
 ---------------------------------------------------------------------
 Center     Atomic      Atomic             Coordinates (Angstroms)
 Number     Number       Type             X           Y           Z
 ---------------------------------------------------------------------
      1          6           0       -3.107347    0.092658   -0.000000
      2          6           0       -1.999925    0.905681    0.000000
      3          6           0       -0.749394    0.229970    0.000000
      4          6           0       -0.738968   -1.185699    0.000000
      5          6           0       -1.924585   -1.942953   -0.000000
      6          6           0       -3.171599   -1.280227   -0.000000
      7         17           0       -4.626005   -2.120429   -0.000000
      8         17           0       -2.132920    2.578498    0.000000
      9         17           0        0.686221    1.109193    0.000000
     10         17           0        0.733773   -2.021438    0.000000
     11          1           0       -1.882020   -3.042955   -0.000000
 ---------------------------------------------------------------------
                    Distance matrix (angstroms):
                    1          2          3          4          5
     1  C    0.000000
     2  C    1.373823   0.000000
     3  C    2.361948   1.421412   0.000000
     4  C    2.691359   2.442106   1.415707   0.000000
     5  C    2.354281   2.849630   2.470358   1.406812   0.000000
     6  C    1.374388   2.480124   2.854430   2.434467   1.412180
     7  Cl   2.684041   4.006699   4.533485   3.997846   2.707243
     8  Cl   2.670002   1.678096   2.725753   4.014010   4.526249
     9  Cl   3.927404   2.693845   1.683456   2.701424   4.016454
    10  Cl   4.384473   4.005138   2.696038   1.693348   2.659516
    11  H    3.366526   3.950396   3.463362   2.180818   1.100825
                    6          7          8          9         10
     6  C    0.000000
     7  Cl   1.679653   0.000000
     8  Cl   3.996075   5.319341   0.000000
     9  Cl   4.537853   6.216929   3.179059   0.000000
    10  Cl   3.975088   5.360692   5.420087   3.130992   0.000000
    11  H    2.184084   2.894910   5.627050   4.882233   2.808180
                   11
    11  H    0.000000
 Stoichiometry    C6HCl4(2)
 Framework group  CS[SG(C6HCl4)]
 Deg. of freedom    19
 Full point group                 CS      NOp   2
 Largest Abelian subgroup         CS      NOp   2
 Largest concise Abelian subgroup C1      NOp   1
                         Standard orientation:                         
 ---------------------------------------------------------------------
 Center     Atomic      Atomic             Coordinates (Angstroms)
 Number     Number       Type             X           Y           Z
 ---------------------------------------------------------------------
      1          6           0       -1.158270   -1.106563   -0.000000
      2          6           0       -1.244191    0.264571    0.000000
      3          6           0       -0.000000    0.951885    0.000000
      4          6           0        1.196948    0.195882   -0.000000
      5          6           0        1.193697   -1.210927   -0.000000
      6          6           0       -0.037668   -1.902297   -0.000000
      7         17           0       -0.116323   -3.580107   -0.000000
      8         17           0       -2.723751    1.056347    0.000000
      9         17           0        0.035667    2.634963    0.000000
     10         17           0        2.695850    0.983740   -0.000000
     11          1           0        2.142367   -1.769354   -0.000000
 ---------------------------------------------------------------------
 Rotational constants (GHZ):           0.8600547           0.5911438           0.3503422

 **********************************************************************

            Population analysis using the SCF Density.

 **********************************************************************

 Orbital symmetries:
 Alpha Orbitals:
       Occupied  (A') (A') (A') (A') (A') (A') (A') (A') (A') (A')
                 (A') (A') (A') (A") (A') (A') (A") (A") (A") (A')
                 (A') (A') (A') (A") (A') (A") (A")
       Virtual   (A") (A") (A') (A') (A') (A') (A") (A') (A') (A')
                 (A') (A') (A') (A')
 Beta  Orbitals:
       Occupied  (A') (A') (A') (A') (A') (A') (A') (A') (A') (A')
                 (A') (A') (A') (A") (A') (A") (A') (A") (A") (A')
                 (A') (A') (A') (A") (A") (A")
       Virtual   (A') (A") (A") (A') (A') (A') (A') (A") (A') (A')
                 (A') (A') (A') (A') (A')
 The electronic state is 2-A'.
 Alpha  occ. eigenvalues --   -1.49111  -1.42079  -1.41363  -1.40196  -1.37699
 Alpha  occ. eigenvalues --   -1.17787  -1.15369  -0.90824  -0.88440  -0.71166
 Alpha  occ. eigenvalues --   -0.66098  -0.65093  -0.60189  -0.58908  -0.56953
 Alpha  occ. eigenvalues --   -0.52657  -0.52010  -0.50612  -0.48188  -0.47303
 Alpha  occ. eigenvalues --   -0.46091  -0.45612  -0.44661  -0.43792  -0.41476
 Alpha  occ. eigenvalues --   -0.38920  -0.37221
 Alpha virt. eigenvalues --   -0.02158  -0.01588   0.01922   0.02250   0.04240
 Alpha virt. eigenvalues --    0.04448   0.05800   0.11232   0.11652   0.12215
 Alpha virt. eigenvalues --    0.13472   0.14572   0.15497   0.16219
  Beta  occ. eigenvalues --   -1.48552  -1.42138  -1.41496  -1.40099  -1.37276
  Beta  occ. eigenvalues --   -1.17352  -1.13820  -0.90515  -0.86341  -0.71256
  Beta  occ. eigenvalues --   -0.65686  -0.63622  -0.59969  -0.58823  -0.56156
  Beta  occ. eigenvalues --   -0.52521  -0.52200  -0.51770  -0.48049  -0.46209
  Beta  occ. eigenvalues --   -0.45865  -0.45465  -0.44498  -0.43403  -0.37653
  Beta  occ. eigenvalues --   -0.36837
  Beta virt. eigenvalues --   -0.02424  -0.02035   0.00040   0.01087   0.02718
  Beta virt. eigenvalues --    0.03398   0.04667   0.06856   0.11636   0.12388
  Beta virt. eigenvalues --    0.13155   0.14467   0.14917   0.16289   0.17653
          Condensed to atoms (all electrons):
               1          2          3          4          5          6
     1  C    4.034780   0.000000   0.000000   0.000000   0.000000   0.000000
     2  C    0.000000   4.047767   0.000000   0.000000   0.000000   0.000000
     3  C    0.000000   0.000000   4.064725   0.000000   0.000000   0.000000
     4  C    0.000000   0.000000   0.000000   4.064847   0.000000   0.000000
     5  C    0.000000   0.000000   0.000000   0.000000   4.109613   0.000000
     6  C    0.000000   0.000000   0.000000   0.000000   0.000000   4.049822
     7  Cl   0.000000   0.000000   0.000000   0.000000   0.000000   0.000000
     8  Cl   0.000000   0.000000   0.000000   0.000000   0.000000   0.000000
     9  Cl   0.000000   0.000000   0.000000   0.000000   0.000000   0.000000
    10  Cl   0.000000   0.000000   0.000000   0.000000   0.000000   0.000000
    11  H    0.000000   0.000000   0.000000   0.000000   0.000000   0.000000
               7          8          9         10         11
     1  C    0.000000   0.000000   0.000000   0.000000   0.000000
     2  C    0.000000   0.000000   0.000000   0.000000   0.000000
     3  C    0.000000   0.000000   0.000000   0.000000   0.000000
     4  C    0.000000   0.000000   0.000000   0.000000   0.000000
     5  C    0.000000   0.000000   0.000000   0.000000   0.000000
     6  C    0.000000   0.000000   0.000000   0.000000   0.000000
     7  Cl   6.949588   0.000000   0.000000   0.000000   0.000000
     8  Cl   0.000000   6.935171   0.000000   0.000000   0.000000
     9  Cl   0.000000   0.000000   6.946581   0.000000   0.000000
    10  Cl   0.000000   0.000000   0.000000   6.969778   0.000000
    11  H    0.000000   0.000000   0.000000   0.000000   0.827328
          Atomic-Atomic Spin Densities.
               1          2          3          4          5          6
     1  C    1.435722   0.000000   0.000000   0.000000   0.000000   0.000000
     2  C    0.000000  -0.513601   0.000000   0.000000   0.000000   0.000000
     3  C    0.000000   0.000000   0.537457   0.000000   0.000000   0.000000
     4  C    0.000000   0.000000   0.000000  -0.486719   0.000000   0.000000
     5  C    0.000000   0.000000   0.000000   0.000000   0.541047   0.000000
     6  C    0.000000   0.000000   0.000000   0.000000   0.000000  -0.503573
     7  Cl   0.000000   0.000000   0.000000   0.000000   0.000000   0.000000
     8  Cl   0.000000   0.000000   0.000000   0.000000   0.000000   0.000000
     9  Cl   0.000000   0.000000   0.000000   0.000000   0.000000   0.000000
    10  Cl   0.000000   0.000000   0.000000   0.000000   0.000000   0.000000
    11  H    0.000000   0.000000   0.000000   0.000000   0.000000   0.000000
               7          8          9         10         11
     1  C    0.000000   0.000000   0.000000   0.000000   0.000000
     2  C    0.000000   0.000000   0.000000   0.000000   0.000000
     3  C    0.000000   0.000000   0.000000   0.000000   0.000000
     4  C    0.000000   0.000000   0.000000   0.000000   0.000000
     5  C    0.000000   0.000000   0.000000   0.000000   0.000000
     6  C    0.000000   0.000000   0.000000   0.000000   0.000000
     7  Cl  -0.001117   0.000000   0.000000   0.000000   0.000000
     8  Cl   0.000000  -0.001408   0.000000   0.000000   0.000000
     9  Cl   0.000000   0.000000   0.017954   0.000000   0.000000
    10  Cl   0.000000   0.000000   0.000000  -0.003741   0.000000
    11  H    0.000000   0.000000   0.000000   0.000000  -0.022022
 Mulliken charges and spin densities:
               1          2
     1  C   -0.034780   1.435722
     2  C   -0.047767  -0.513601
     3  C   -0.064725   0.537457
     4  C   -0.064847  -0.486719
     5  C   -0.109613   0.541047
     6  C   -0.049822  -0.503573
     7  Cl   0.050412  -0.001117
     8  Cl   0.064829  -0.001408
     9  Cl   0.053419   0.017954
    10  Cl   0.030222  -0.003741
    11  H    0.172672  -0.022022
 Sum of Mulliken charges =  -0.00000   1.00000
 Mulliken charges and spin densities with hydrogens summed into heavy atoms:
               1          2
     1  C   -0.034780   1.435722
     2  C   -0.047767  -0.513601
     3  C   -0.064725   0.537457
     4  C   -0.064847  -0.486719
     5  C    0.063059   0.519026
     6  C   -0.049822  -0.503573
     7  Cl   0.050412  -0.001117
     8  Cl   0.064829  -0.001408
     9  Cl   0.053419   0.017954
    10  Cl   0.030222  -0.003741
 Charge=             -0.0000 electrons
 Dipole moment (field-independent basis, Debye):
    X=              0.8168    Y=             -0.2887    Z=              0.0000  Tot=              0.8663
 N-N= 2.961122529217D+02 E-N=-4.178372905533D+02  KE=-1.337498632611D+02
 Symmetry A'   KE=-1.022113495806D+02
 Symmetry A"   KE=-3.153851368055D+01
 Symmetry A'   SP= 1.000000000000D+00
 Symmetry A"   SP=-2.275957200482D-15
 1\1\GINC-SH02-01N23\FOpt\UAM1\ZDO\C6H1Cl4(2)\JLAPIER\10-Dec-2025\0\\# 
 opt am1 SCF=XQC\\Neutral Radical (removed 2) 1_345\\0,2\C,-3.107347120
 8,0.092658183,0.\C,-1.9999250756,0.9056808925,0.\C,-0.7493942394,0.229
 9698363,0.\C,-0.7389684821,-1.1856986748,0.\C,-1.9245847962,-1.9429534
 037,0.\C,-3.1715993767,-1.2802268385,0.\Cl,-4.6260046843,-2.1204289597
 ,0.\Cl,-2.1329199325,2.578498313,0.\Cl,0.6862210483,1.1091932368,0.\Cl
 ,0.7337731044,-2.0214377191,0.\H,-1.8820204451,-3.0429548659,0.\\Versi
 on=ES64L-G16RevB.01\State=2-A'\HF=0.0817455\S2=1.360013\S2-1=0.\S2A=1.
 086591\RMSD=6.860e-09\RMSF=9.808e-05\Dipole=0.0780032,-0.331789,0.\PG=
 CS [SG(C6H1Cl4)]\\@


 DEMOCRATS BUY MOST OF THE BOOKS THAT HAVE BEEN
 BANNED; REPUBLICANS FORM CENSORSHIP COMMITTEES AND
 READ THEM AS A GROUP.
 Job cpu time:       0 days  0 hours  0 minutes  9.1 seconds.
 Elapsed time:       0 days  0 hours  0 minutes 15.0 seconds.
 File lengths (MBytes):  RWF=     15 Int=      0 D2E=      0 Chk=      2 Scr=      1
 Normal termination of Gaussian 16 at Wed Dec 10 10:38:10 2025.
