 Entering Gaussian System, Link 0=g16
 Initial command:
 /share/software/user/restricted/gaussian/g16.B01/l1.exe "/home/users/jlapier/Chloroaromatics/Gau-23432.inp" -scrdir="/home/users/jlapier/Chloroaromatics/"
 Entering Link 1 = /share/software/user/restricted/gaussian/g16.B01/l1.exe PID=     23437.
  
 Copyright (c) 1988-2017, Gaussian, Inc.  All Rights Reserved.
  
 This is part of the Gaussian(R) 16 program.  It is based on
 the Gaussian(R) 09 system (copyright 2009, Gaussian, Inc.),
 the Gaussian(R) 03 system (copyright 2003, Gaussian, Inc.),
 the Gaussian(R) 98 system (copyright 1998, Gaussian, Inc.),
 the Gaussian(R) 94 system (copyright 1995, Gaussian, Inc.),
 the Gaussian 92(TM) system (copyright 1992, Gaussian, Inc.),
 the Gaussian 90(TM) system (copyright 1990, Gaussian, Inc.),
 the Gaussian 88(TM) system (copyright 1988, Gaussian, Inc.),
 the Gaussian 86(TM) system (copyright 1986, Carnegie Mellon
 University), and the Gaussian 82(TM) system (copyright 1983,
 Carnegie Mellon University). Gaussian is a federally registered
 trademark of Gaussian, Inc.
  
 This software contains proprietary and confidential information,
 including trade secrets, belonging to Gaussian, Inc.
  
 This software is provided under written license and may be
 used, copied, transmitted, or stored only in accord with that
 written license.
  
 The following legend is applicable only to US Government
 contracts under FAR:
  
                    RESTRICTED RIGHTS LEGEND
  
 Use, reproduction and disclosure by the US Government is
 subject to restrictions as set forth in subparagraphs (a)
 and (c) of the Commercial Computer Software - Restricted
 Rights clause in FAR 52.227-19.
  
 Gaussian, Inc.
 340 Quinnipiac St., Bldg. 40, Wallingford CT 06492
  
  
 ---------------------------------------------------------------
 Warning -- This program may not be used in any manner that
 competes with the business of Gaussian, Inc. or will provide
 assistance to any competitor of Gaussian, Inc.  The licensee
 of this program is prohibited from giving any competitor of
 Gaussian, Inc. access to this program.  By using this program,
 the user acknowledges that Gaussian, Inc. is engaged in the
 business of creating and licensing software in the field of
 computational chemistry and represents and warrants to the
 licensee that it is not a competitor of Gaussian, Inc. and that
 it will not use this program in any manner prohibited above.
 ---------------------------------------------------------------
  

 Cite this work as:
 Gaussian 16, Revision B.01,
 M. J. Frisch, G. W. Trucks, H. B. Schlegel, G. E. Scuseria, 
 M. A. Robb, J. R. Cheeseman, G. Scalmani, V. Barone, 
 G. A. Petersson, H. Nakatsuji, X. Li, M. Caricato, A. V. Marenich, 
 J. Bloino, B. G. Janesko, R. Gomperts, B. Mennucci, H. P. Hratchian, 
 J. V. Ortiz, A. F. Izmaylov, J. L. Sonnenberg, D. Williams-Young, 
 F. Ding, F. Lipparini, F. Egidi, J. Goings, B. Peng, A. Petrone, 
 T. Henderson, D. Ranasinghe, V. G. Zakrzewski, J. Gao, N. Rega, 
 G. Zheng, W. Liang, M. Hada, M. Ehara, K. Toyota, R. Fukuda, 
 J. Hasegawa, M. Ishida, T. Nakajima, Y. Honda, O. Kitao, H. Nakai, 
 T. Vreven, K. Throssell, J. A. Montgomery, Jr., J. E. Peralta, 
 F. Ogliaro, M. J. Bearpark, J. J. Heyd, E. N. Brothers, K. N. Kudin, 
 V. N. Staroverov, T. A. Keith, R. Kobayashi, J. Normand, 
 K. Raghavachari, A. P. Rendell, J. C. Burant, S. S. Iyengar, 
 J. Tomasi, M. Cossi, J. M. Millam, M. Klene, C. Adamo, R. Cammi, 
 J. W. Ochterski, R. L. Martin, K. Morokuma, O. Farkas, 
 J. B. Foresman, and D. J. Fox, Gaussian, Inc., Wallingford CT, 2016.
 
 ******************************************
 Gaussian 16:  ES64L-G16RevB.01 20-Dec-2017
                 9-Dec-2025 
 ******************************************
 %mem=2GB
 %nprocshare=1
 Will use up to    1 processors via shared memory.
 %chk=geometry_chks/1235ClBzAnionRadical.chk
 -----------------
 # opt am1 SCF=XQC
 -----------------
 1/18=20,19=15,26=1,38=1/1,3;
 2/9=110,12=2,17=6,18=5,40=1/2;
 3/5=2,25=1,41=700000,71=1/1,2,3;
 4/35=1/1;
 5/5=2,8=3,13=1,35=1,38=5/2,8;
 6/7=2,8=2,9=2,10=2,28=1/1;
 7//1,2,3,16;
 1/18=20,19=15,26=1/3(2);
 2/9=110/2;
 99//99;
 2/9=110/2;
 3/5=2,25=1,41=700000,71=1,135=20/1,2,3;
 4/5=5,16=3,35=1/1;
 5/5=2,8=3,13=1,35=1,38=5/2,8;
 7//1,2,3,16;
 1/18=20,19=15,26=1/3(-5);
 2/9=110/2;
 6/7=2,8=2,9=2,10=2,19=2,28=1/1;
 99/9=1/99;
 -------------------------------------
 4-Chloro-Benzene Anion Radical (1235)
 -------------------------------------
 Symbolic Z-matrix:
 Charge = -1 Multiplicity = 2
 C                    -3.20928   0.19943   0. 
 C                    -2.0115    0.93555   0. 
 C                    -0.77511   0.2663    0. 
 C                    -0.7365   -1.13907   0. 
 C                    -1.93429  -1.87519   0. 
 C                    -3.17067  -1.20594   0. 
 Cl                   -4.67483  -2.13035   0. 
 Cl                   -4.76193   1.03987   0. 
 Cl                   -2.05998   2.7004    0. 
 H                     0.72905   1.19071   0. 
 Cl                    0.81614  -1.97951   0. 
 H                    -1.8858   -3.64003   0. 
 
 Add virtual bond connecting atoms H12        and C5         Dist= 3.34D+00.
 Add virtual bond connecting atoms H10        and C3         Dist= 3.34D+00.

 GradGradGradGradGradGradGradGradGradGradGradGradGradGradGradGradGradGrad
 Berny optimization.
 Initialization pass.
                           ----------------------------
                           !    Initial Parameters    !
                           ! (Angstroms and Degrees)  !
 --------------------------                            --------------------------
 ! Name  Definition              Value          Derivative Info.                !
 --------------------------------------------------------------------------------
 ! R1    R(1,2)                  1.4059         estimate D2E/DX2                !
 ! R2    R(1,6)                  1.4059         estimate D2E/DX2                !
 ! R3    R(1,8)                  1.7655         estimate D2E/DX2                !
 ! R4    R(2,3)                  1.4059         estimate D2E/DX2                !
 ! R5    R(2,9)                  1.7655         estimate D2E/DX2                !
 ! R6    R(3,4)                  1.4059         estimate D2E/DX2                !
 ! R7    R(3,10)                 1.7655         estimate D2E/DX2                !
 ! R8    R(4,5)                  1.4059         estimate D2E/DX2                !
 ! R9    R(4,11)                 1.7655         estimate D2E/DX2                !
 ! R10   R(5,6)                  1.4059         estimate D2E/DX2                !
 ! R11   R(5,12)                 1.7655         estimate D2E/DX2                !
 ! R12   R(6,7)                  1.7655         estimate D2E/DX2                !
 ! A1    A(2,1,6)              119.9999         estimate D2E/DX2                !
 ! A2    A(2,1,8)              119.9999         estimate D2E/DX2                !
 ! A3    A(6,1,8)              120.0001         estimate D2E/DX2                !
 ! A4    A(1,2,3)              120.0            estimate D2E/DX2                !
 ! A5    A(1,2,9)              120.0001         estimate D2E/DX2                !
 ! A6    A(3,2,9)              119.9999         estimate D2E/DX2                !
 ! A7    A(2,3,4)              120.0001         estimate D2E/DX2                !
 ! A8    A(2,3,10)             120.0            estimate D2E/DX2                !
 ! A9    A(4,3,10)             119.9999         estimate D2E/DX2                !
 ! A10   A(3,4,5)              119.9997         estimate D2E/DX2                !
 ! A11   A(3,4,11)             120.0003         estimate D2E/DX2                !
 ! A12   A(5,4,11)             120.0            estimate D2E/DX2                !
 ! A13   A(4,5,6)              120.0            estimate D2E/DX2                !
 ! A14   A(4,5,12)             119.9996         estimate D2E/DX2                !
 ! A15   A(6,5,12)             120.0004         estimate D2E/DX2                !
 ! A16   A(1,6,5)              120.0003         estimate D2E/DX2                !
 ! A17   A(1,6,7)              119.9999         estimate D2E/DX2                !
 ! A18   A(5,6,7)              119.9998         estimate D2E/DX2                !
 ! D1    D(6,1,2,3)              0.0            estimate D2E/DX2                !
 ! D2    D(6,1,2,9)            180.0            estimate D2E/DX2                !
 ! D3    D(8,1,2,3)            180.0            estimate D2E/DX2                !
 ! D4    D(8,1,2,9)              0.0            estimate D2E/DX2                !
 ! D5    D(2,1,6,5)              0.0            estimate D2E/DX2                !
 ! D6    D(2,1,6,7)            180.0            estimate D2E/DX2                !
 ! D7    D(8,1,6,5)            180.0            estimate D2E/DX2                !
 ! D8    D(8,1,6,7)              0.0            estimate D2E/DX2                !
 ! D9    D(1,2,3,4)              0.0            estimate D2E/DX2                !
 ! D10   D(1,2,3,10)           180.0            estimate D2E/DX2                !
 ! D11   D(9,2,3,4)            180.0            estimate D2E/DX2                !
 ! D12   D(9,2,3,10)             0.0            estimate D2E/DX2                !
 ! D13   D(2,3,4,5)              0.0            estimate D2E/DX2                !
 ! D14   D(2,3,4,11)           180.0            estimate D2E/DX2                !
 ! D15   D(10,3,4,5)           180.0            estimate D2E/DX2                !
 ! D16   D(10,3,4,11)            0.0            estimate D2E/DX2                !
 ! D17   D(3,4,5,6)              0.0            estimate D2E/DX2                !
 ! D18   D(3,4,5,12)           180.0            estimate D2E/DX2                !
 ! D19   D(11,4,5,6)           180.0            estimate D2E/DX2                !
 ! D20   D(11,4,5,12)            0.0            estimate D2E/DX2                !
 ! D21   D(4,5,6,1)              0.0            estimate D2E/DX2                !
 ! D22   D(4,5,6,7)            180.0            estimate D2E/DX2                !
 ! D23   D(12,5,6,1)           180.0            estimate D2E/DX2                !
 ! D24   D(12,5,6,7)             0.0            estimate D2E/DX2                !
 --------------------------------------------------------------------------------
 Trust Radius=3.00D-01 FncErr=1.00D-07 GrdErr=1.00D-07 EigMax=2.50D+02 EigMin=1.00D-04
 Number of steps in this run=     64 maximum allowed number of steps=    100.
 GradGradGradGradGradGradGradGradGradGradGradGradGradGradGradGradGradGrad

                          Input orientation:                          
 ---------------------------------------------------------------------
 Center     Atomic      Atomic             Coordinates (Angstroms)
 Number     Number       Type             X           Y           Z
 ---------------------------------------------------------------------
      1          6           0       -3.209280    0.199430    0.000000
      2          6           0       -2.011500    0.935550    0.000000
      3          6           0       -0.775110    0.266300    0.000000
      4          6           0       -0.736500   -1.139070    0.000000
      5          6           0       -1.934290   -1.875190    0.000000
      6          6           0       -3.170670   -1.205940    0.000000
      7         17           0       -4.674830   -2.130350    0.000000
      8         17           0       -4.761930    1.039870    0.000000
      9         17           0       -2.059980    2.700400    0.000000
     10          1           0        0.729050    1.190710    0.000000
     11         17           0        0.816140   -1.979510    0.000000
     12          1           0       -1.885800   -3.640030    0.000000
 ---------------------------------------------------------------------
                    Distance matrix (angstroms):
                    1          2          3          4          5
     1  C    0.000000
     2  C    1.405898   0.000000
     3  C    2.435088   1.405900   0.000000
     4  C    2.811801   2.435092   1.405900   0.000000
     5  C    2.435087   2.811800   2.435093   1.405907   0.000000
     6  C    1.405900   2.435088   2.811796   2.435088   1.405892
     7  Cl   2.752401   4.061166   4.577308   4.061167   2.752393
     8  Cl   1.765520   2.752408   4.061175   4.577321   4.061173
     9  Cl   2.752406   1.765516   2.752405   4.061173   4.577316
    10  H    4.061167   2.752403   1.765512   2.752401   4.061173
    11  Cl   4.577312   4.061173   2.752406   1.765511   2.752408
    12  H    4.061164   4.577306   4.061163   2.752397   1.765506
                    6          7          8          9         10
     6  C    0.000000
     7  Cl   1.765512   0.000000
     8  Cl   2.752412   3.171416   0.000000
     9  Cl   4.061173   5.493049   3.171418   0.000000
    10  H    4.577308   6.342819   5.493051   3.171412   0.000000
    11  Cl   4.061165   5.493041   6.342832   5.493052   3.171416
    12  H    2.752396   3.171407   5.493049   6.342822   5.493040
                   11         12
    11  Cl   0.000000
    12  H    3.171404   0.000000
 Stoichiometry    C6H2Cl4(1-,2)
 Framework group  CS[SG(C6H2Cl4)]
 Deg. of freedom    21
 Full point group                 CS      NOp   2
 Largest Abelian subgroup         CS      NOp   2
 Largest concise Abelian subgroup C1      NOp   1
                         Standard orientation:                         
 ---------------------------------------------------------------------
 Center     Atomic      Atomic             Coordinates (Angstroms)
 Number     Number       Type             X           Y           Z
 ---------------------------------------------------------------------
      1          6           0       -0.000000    0.927195   -0.000000
      2          6           0       -1.217544    0.224247   -0.000000
      3          6           0       -1.217544   -1.181654    0.000000
      4          6           0       -0.000000   -1.884606    0.000000
      5          6           0        1.217549   -1.181649    0.000000
      6          6           0        1.217544    0.224242   -0.000000
      7         17           0        2.746522    1.106998   -0.000000
      8         17           0       -0.000001    2.692715   -0.000000
      9         17           0       -2.746527    1.107002   -0.000000
     10          1           0       -2.746522   -2.064410    0.000000
     11         17           0        0.000005   -3.650117    0.000000
     12          1           0        2.746518   -2.064408    0.000000
 ---------------------------------------------------------------------
 Rotational constants (GHZ):           0.8231885           0.5607408           0.3335397
 Standard basis: VSTO-6G (5D, 7F)
 There are    32 symmetry adapted cartesian basis functions of A'  symmetry.
 There are    10 symmetry adapted cartesian basis functions of A"  symmetry.
 There are    32 symmetry adapted basis functions of A'  symmetry.
 There are    10 symmetry adapted basis functions of A"  symmetry.
    42 basis functions,   252 primitive gaussians,    42 cartesian basis functions
    28 alpha electrons       27 beta electrons
       nuclear repulsion energy       299.3936772908 Hartrees.
 Integral buffers will be    131072 words long.
 Regular integral format.
 Two-electron integral symmetry is turned off.
 Do NDO integrals.
 One-electron integrals computed using PRISM.
 NBasis=    42 RedAO= T EigKep=  1.00D+00  NBF=    32    10
 NBsUse=    42 1.00D-06 EigRej= -1.00D+00 NBFU=    32    10
 Simple Huckel Guess.
 Initial guess orbital symmetries:
 Alpha Orbitals:
       Occupied  (A') (A') (A') (A') (A') (A') (A') (A') (A') (A')
                 (A") (A') (A') (A') (A') (A") (A") (A') (A') (A")
                 (A') (A") (A') (A') (A') (A") (A") (A')
       Virtual   (A") (A") (A') (A") (A') (A') (A') (A') (A') (A')
                 (A') (A') (A') (A')
 Beta  Orbitals:
       Occupied  (A') (A') (A') (A') (A') (A') (A') (A') (A') (A')
                 (A") (A') (A') (A') (A') (A") (A") (A') (A') (A")
                 (A') (A") (A') (A') (A') (A") (A")
       Virtual   (A') (A") (A") (A') (A") (A') (A') (A') (A') (A')
                 (A') (A') (A') (A') (A')
 The electronic state of the initial guess is 2-A'.
 Initial guess <Sx>= 0.0000 <Sy>= 0.0000 <Sz>= 0.5000 <S**2>= 0.7500 S= 0.5000
 Keep J ints in memory in canonical form, NReq=864594.
 Overlap will be assumed to be unity.
 Requested convergence on RMS density matrix=1.00D-08 within  32 cycles.
 Requested convergence on MAX density matrix=1.00D-06.
 Requested convergence on             energy=1.00D-06.
 No special actions if energy rises.
 Fock symm off for IB=2 I1=    1 I=   33 J=   32 Cut=1.00D-07 Err=9.00D-03
 Fock matrix is not symmetric: symmetry in diagonalization turned off.
 Rare condition: small coef for last iteration:  0.000D+00
 Rare condition: small coef for last iteration:  0.000D+00
 Rare condition: small coef for last iteration:  0.000D+00
 Rare condition: small coef for last iteration:  0.000D+00
 Rare condition: small coef for last iteration:  0.000D+00
 Rare condition: small coef for last iteration:  0.000D+00
 Rare condition: small coef for last iteration:  0.000D+00
 Rare condition: small coef for last iteration:  0.000D+00
 Rare condition: small coef for last iteration:  0.000D+00
 Rare condition: small coef for last iteration:  0.000D+00
 Rare condition: small coef for last iteration:  0.000D+00
 Rare condition: small coef for last iteration:  0.000D+00
 Rare condition: small coef for last iteration:  0.000D+00
 >>>>>>>>>> Convergence criterion not met.
 SCF Done:  E(UAM1) =  0.205902505771     A.U. after   33 cycles
            NFock= 32  Conv=0.82D-03     -V/T= 1.0015
 <Sx>= 0.0000 <Sy>= 0.0000 <Sz>= 0.5000 <S**2>= 1.1767 S= 0.6944
 <L.S>=  0.00000000000    
 Annihilation of the first spin contaminant:
 S**2 before annihilation     1.1767,   after     0.8699
 Keep J ints in memory in canonical form, NReq=864994.
 LinEq1:  Iter=  0 NonCon=     1 RMS=1.96D-04 Max=3.98D-03 NDo=     1
 AX will form     1 AO Fock derivatives at one time.
 LinEq1:  Iter=  1 NonCon=     1 RMS=5.32D-05 Max=9.46D-04 NDo=     1
 LinEq1:  Iter=  2 NonCon=     1 RMS=2.04D-05 Max=4.52D-04 NDo=     1
 LinEq1:  Iter=  3 NonCon=     1 RMS=2.54D-06 Max=2.87D-05 NDo=     1
 LinEq1:  Iter=  4 NonCon=     1 RMS=5.28D-07 Max=6.25D-06 NDo=     1
 LinEq1:  Iter=  5 NonCon=     1 RMS=1.59D-07 Max=1.54D-06 NDo=     1
 LinEq1:  Iter=  6 NonCon=     1 RMS=8.06D-08 Max=1.79D-06 NDo=     1
 LinEq1:  Iter=  7 NonCon=     1 RMS=3.32D-08 Max=2.87D-07 NDo=     1
 LinEq1:  Iter=  8 NonCon=     1 RMS=6.79D-09 Max=4.48D-08 NDo=     1
 LinEq1:  Iter=  9 NonCon=     0 RMS=1.28D-09 Max=1.18D-08 NDo=     1
 Linear equations converged to 2.823D-09 2.823D-08 after     9 iterations.
     Minimum is close to point  4 DX=  9.55D-02 DF= -5.94D-06 DXR=  3.68D-02 DFR=  4.49D-03 which will be used.
 LinEq1:  Iter=  0 NonCon=     1 RMS=4.64D-04 Max=8.51D-03 NDo=     1
 LinEq1:  Iter=  1 NonCon=     1 RMS=1.08D-04 Max=1.95D-03 NDo=     1
 LinEq1:  Iter=  2 NonCon=     1 RMS=3.40D-05 Max=3.94D-04 NDo=     1
 LinEq1:  Iter=  3 NonCon=     1 RMS=9.72D-06 Max=1.22D-04 NDo=     1
 LinEq1:  Iter=  4 NonCon=     1 RMS=1.98D-06 Max=1.53D-05 NDo=     1
 LinEq1:  Iter=  5 NonCon=     1 RMS=6.94D-07 Max=9.79D-06 NDo=     1
 LinEq1:  Iter=  6 NonCon=     1 RMS=1.96D-07 Max=2.35D-06 NDo=     1
 LinEq1:  Iter=  7 NonCon=     1 RMS=9.49D-08 Max=1.76D-06 NDo=     1
 LinEq1:  Iter=  8 NonCon=     1 RMS=3.30D-08 Max=3.21D-07 NDo=     1
 LinEq1:  Iter=  9 NonCon=     1 RMS=9.60D-09 Max=6.72D-08 NDo=     1
 LinEq1:  Iter= 10 NonCon=     0 RMS=1.85D-09 Max=1.86D-08 NDo=     1
 Linear equations converged to 2.823D-09 2.823D-08 after    10 iterations.
     Accept linear search using points  1 and  2.
     Minimum is close to point  2 DX= -6.76D-02 DF= -1.16D-06 DXR=  7.25D-02 DFR=  5.58D-03 which will be used.
 LinEq1:  Iter=  0 NonCon=     1 RMS=3.09D-05 Max=4.00D-04 NDo=     1
 LinEq1:  Iter=  1 NonCon=     1 RMS=9.26D-06 Max=7.75D-05 NDo=     1
 LinEq1:  Iter=  2 NonCon=     1 RMS=2.37D-06 Max=1.53D-05 NDo=     1
 LinEq1:  Iter=  3 NonCon=     1 RMS=8.93D-07 Max=1.33D-05 NDo=     1
 LinEq1:  Iter=  4 NonCon=     1 RMS=2.88D-07 Max=2.79D-06 NDo=     1
 LinEq1:  Iter=  5 NonCon=     1 RMS=8.40D-08 Max=1.52D-06 NDo=     1
 LinEq1:  Iter=  6 NonCon=     1 RMS=2.63D-08 Max=2.78D-07 NDo=     1
 LinEq1:  Iter=  7 NonCon=     1 RMS=7.85D-09 Max=8.51D-08 NDo=     1
 LinEq1:  Iter=  8 NonCon=     0 RMS=1.76D-09 Max=1.38D-08 NDo=     1
 Linear equations converged to 2.823D-09 2.823D-08 after     8 iterations.
     Minimum is close to point  2 DX=  3.25D-02 DF= -3.01D-09 DXR=  3.15D-02 DFR=  9.90D-04 which will be used.
 LinEq1:  Iter=  0 NonCon=     1 RMS=4.44D-06 Max=3.78D-05 NDo=     1
 LinEq1:  Iter=  1 NonCon=     1 RMS=1.51D-06 Max=2.03D-05 NDo=     1
 LinEq1:  Iter=  2 NonCon=     1 RMS=4.91D-07 Max=4.90D-06 NDo=     1
 LinEq1:  Iter=  3 NonCon=     1 RMS=1.52D-07 Max=2.80D-06 NDo=     1
 LinEq1:  Iter=  4 NonCon=     1 RMS=5.21D-08 Max=4.88D-07 NDo=     1
 LinEq1:  Iter=  5 NonCon=     1 RMS=2.27D-08 Max=3.22D-07 NDo=     1
 LinEq1:  Iter=  6 NonCon=     1 RMS=7.38D-09 Max=5.75D-08 NDo=     1
 LinEq1:  Iter=  7 NonCon=     1 RMS=2.54D-09 Max=2.40D-08 NDo=     1
 LinEq1:  Iter=  8 NonCon=     1 RMS=8.42D-10 Max=7.91D-09 NDo=     1
 LinEq1:  Iter=  9 NonCon=     0 RMS=1.63D-10 Max=1.47D-09 NDo=     1
 Linear equations converged to 7.219D-10 7.219D-09 after     9 iterations.
 LinEq1:  Iter=  0 NonCon=     1 RMS=6.04D-07 Max=5.48D-06 NDo=     1
 LinEq1:  Iter=  1 NonCon=     1 RMS=1.67D-07 Max=1.86D-06 NDo=     1
 LinEq1:  Iter=  2 NonCon=     1 RMS=4.19D-08 Max=3.46D-07 NDo=     1
 LinEq1:  Iter=  3 NonCon=     1 RMS=1.26D-08 Max=1.41D-07 NDo=     1
 LinEq1:  Iter=  4 NonCon=     1 RMS=5.30D-09 Max=6.77D-08 NDo=     1
 LinEq1:  Iter=  5 NonCon=     1 RMS=1.66D-09 Max=1.39D-08 NDo=     1
 LinEq1:  Iter=  6 NonCon=     1 RMS=5.61D-10 Max=7.20D-09 NDo=     1
 LinEq1:  Iter=  7 NonCon=     1 RMS=1.84D-10 Max=2.11D-09 NDo=     1
 LinEq1:  Iter=  8 NonCon=     0 RMS=6.68D-11 Max=8.78D-10 NDo=     1
 Linear equations converged to 1.176D-10 1.176D-09 after     8 iterations.
 LinEq1:  Iter=  0 NonCon=     1 RMS=9.04D-07 Max=1.19D-05 NDo=     1
 LinEq1:  Iter=  1 NonCon=     1 RMS=4.93D-07 Max=8.97D-06 NDo=     1
 LinEq1:  Iter=  2 NonCon=     1 RMS=1.30D-07 Max=1.24D-06 NDo=     1
 LinEq1:  Iter=  3 NonCon=     1 RMS=4.45D-08 Max=4.69D-07 NDo=     1
 LinEq1:  Iter=  4 NonCon=     1 RMS=1.44D-08 Max=1.52D-07 NDo=     1
 LinEq1:  Iter=  5 NonCon=     1 RMS=5.73D-09 Max=7.02D-08 NDo=     1
 LinEq1:  Iter=  6 NonCon=     1 RMS=1.62D-09 Max=1.54D-08 NDo=     1
 LinEq1:  Iter=  7 NonCon=     1 RMS=4.96D-10 Max=5.37D-09 NDo=     1
 LinEq1:  Iter=  8 NonCon=     1 RMS=1.26D-10 Max=1.22D-09 NDo=     1
 LinEq1:  Iter=  9 NonCon=     0 RMS=2.05D-11 Max=2.12D-10 NDo=     1
 Linear equations converged to 1.181D-10 1.181D-09 after     9 iterations.
 LinEq1:  Iter=  0 NonCon=     1 RMS=8.55D-08 Max=8.81D-07 NDo=     1
 LinEq1:  Iter=  1 NonCon=     1 RMS=2.09D-08 Max=2.43D-07 NDo=     1
 LinEq1:  Iter=  2 NonCon=     1 RMS=5.09D-09 Max=4.63D-08 NDo=     1
 LinEq1:  Iter=  3 NonCon=     1 RMS=1.38D-09 Max=1.75D-08 NDo=     1
 LinEq1:  Iter=  4 NonCon=     1 RMS=4.54D-10 Max=4.87D-09 NDo=     1
 LinEq1:  Iter=  5 NonCon=     1 RMS=1.67D-10 Max=1.92D-09 NDo=     1
 LinEq1:  Iter=  6 NonCon=     1 RMS=5.34D-11 Max=5.25D-10 NDo=     1
 LinEq1:  Iter=  7 NonCon=     1 RMS=1.59D-11 Max=1.83D-10 NDo=     1
 LinEq1:  Iter=  8 NonCon=     0 RMS=4.53D-12 Max=5.25D-11 NDo=     1
 Linear equations converged to 1.475D-11 1.475D-10 after     8 iterations.
 SCF Done:  E(UAM1) =  0.204482914679     a.u. after    8 cycles
            Convg  =    0.9265D-07                    73 Fock formations.
              S**2 =  1.3285                  -V/T =  1.0015
 <Sx>= 0.0000 <Sy>= 0.0000 <Sz>= 0.5000 <S**2>= 1.3285 S= 0.7564
 <L.S>=  0.00000000000    
 Annihilation of the first spin contaminant:
 S**2 before annihilation     1.3285,   after     1.0350

 **********************************************************************

            Population analysis using the SCF Density.

 **********************************************************************

 Orbital symmetries:
 Alpha Orbitals:
       Occupied  (A') (A') (A') (A') (A') (A') (A') (A') (A') (A')
                 (A') (A') (A") (A') (A') (A") (A") (A") (A') (A')
                 (A') (A') (A") (A') (A') (A") (A") (A')
       Virtual   (A') (A") (A') (A') (A") (A') (A') (A") (A') (A')
                 (A') (A') (A') (A')
 Beta  Orbitals:
       Occupied  (A') (A') (A') (A') (A') (A') (A') (A') (A') (A')
                 (A') (A') (A") (A') (A') (A") (A") (A") (A') (A')
                 (A') (A') (A") (A') (A') (A") (A")
       Virtual   (A") (A') (A") (A') (A') (A') (A') (A") (A') (A')
                 (A') (A') (A') (A') (A')
 The electronic state is 2-A'.
 Alpha  occ. eigenvalues --   -1.29025  -1.23874  -1.23582  -1.22615  -1.19804
 Alpha  occ. eigenvalues --   -0.97353  -0.95979  -0.69963  -0.67744  -0.52532
 Alpha  occ. eigenvalues --   -0.46841  -0.45222  -0.41086  -0.40019  -0.38064
 Alpha  occ. eigenvalues --   -0.35111  -0.34527  -0.33026  -0.32038  -0.31104
 Alpha  occ. eigenvalues --   -0.30254  -0.28575  -0.27912  -0.27714  -0.24324
 Alpha  occ. eigenvalues --   -0.20649  -0.20359  -0.06299
 Alpha virt. eigenvalues --    0.12031   0.14494   0.15553   0.16637   0.17392
 Alpha virt. eigenvalues --    0.18870   0.19980   0.24450   0.29159   0.29664
 Alpha virt. eigenvalues --    0.31735   0.33412   0.33513   0.35521
  Beta  occ. eigenvalues --   -1.29189  -1.23899  -1.23480  -1.22545  -1.19830
  Beta  occ. eigenvalues --   -0.97429  -0.96428  -0.70189  -0.68575  -0.52254
  Beta  occ. eigenvalues --   -0.46994  -0.45463  -0.41129  -0.39980  -0.38031
  Beta  occ. eigenvalues --   -0.34624  -0.34287  -0.32816  -0.32121  -0.31292
  Beta  occ. eigenvalues --   -0.30267  -0.28559  -0.27972  -0.25788  -0.21025
  Beta  occ. eigenvalues --   -0.20372  -0.20047
  Beta virt. eigenvalues --    0.14368   0.15735   0.15800   0.16949   0.18997
  Beta virt. eigenvalues --    0.20548   0.23759   0.24128   0.24146   0.29236
  Beta virt. eigenvalues --    0.29846   0.31190   0.33033   0.33645   0.35214
          Condensed to atoms (all electrons):
               1          2          3          4          5          6
     1  C    4.034727   0.000000   0.000000   0.000000   0.000000   0.000000
     2  C    0.000000   4.084654   0.000000   0.000000   0.000000   0.000000
     3  C    0.000000   0.000000   4.133269   0.000000   0.000000   0.000000
     4  C    0.000000   0.000000   0.000000   4.055869   0.000000   0.000000
     5  C    0.000000   0.000000   0.000000   0.000000   4.133268   0.000000
     6  C    0.000000   0.000000   0.000000   0.000000   0.000000   4.084657
     7  Cl   0.000000   0.000000   0.000000   0.000000   0.000000   0.000000
     8  Cl   0.000000   0.000000   0.000000   0.000000   0.000000   0.000000
     9  Cl   0.000000   0.000000   0.000000   0.000000   0.000000   0.000000
    10  H    0.000000   0.000000   0.000000   0.000000   0.000000   0.000000
    11  Cl   0.000000   0.000000   0.000000   0.000000   0.000000   0.000000
    12  H    0.000000   0.000000   0.000000   0.000000   0.000000   0.000000
               7          8          9         10         11         12
     1  C    0.000000   0.000000   0.000000   0.000000   0.000000   0.000000
     2  C    0.000000   0.000000   0.000000   0.000000   0.000000   0.000000
     3  C    0.000000   0.000000   0.000000   0.000000   0.000000   0.000000
     4  C    0.000000   0.000000   0.000000   0.000000   0.000000   0.000000
     5  C    0.000000   0.000000   0.000000   0.000000   0.000000   0.000000
     6  C    0.000000   0.000000   0.000000   0.000000   0.000000   0.000000
     7  Cl   7.079611   0.000000   0.000000   0.000000   0.000000   0.000000
     8  Cl   0.000000   7.093718   0.000000   0.000000   0.000000   0.000000
     9  Cl   0.000000   0.000000   7.079611   0.000000   0.000000   0.000000
    10  H    0.000000   0.000000   0.000000   1.054002   0.000000   0.000000
    11  Cl   0.000000   0.000000   0.000000   0.000000   7.112607   0.000000
    12  H    0.000000   0.000000   0.000000   0.000000   0.000000   1.054006
          Atomic-Atomic Spin Densities.
               1          2          3          4          5          6
     1  C   -0.326481   0.000000   0.000000   0.000000   0.000000   0.000000
     2  C    0.000000   0.292917   0.000000   0.000000   0.000000   0.000000
     3  C    0.000000   0.000000  -0.511941   0.000000   0.000000   0.000000
     4  C    0.000000   0.000000   0.000000   0.337669   0.000000   0.000000
     5  C    0.000000   0.000000   0.000000   0.000000  -0.511921   0.000000
     6  C    0.000000   0.000000   0.000000   0.000000   0.000000   0.292911
     7  Cl   0.000000   0.000000   0.000000   0.000000   0.000000   0.000000
     8  Cl   0.000000   0.000000   0.000000   0.000000   0.000000   0.000000
     9  Cl   0.000000   0.000000   0.000000   0.000000   0.000000   0.000000
    10  H    0.000000   0.000000   0.000000   0.000000   0.000000   0.000000
    11  Cl   0.000000   0.000000   0.000000   0.000000   0.000000   0.000000
    12  H    0.000000   0.000000   0.000000   0.000000   0.000000   0.000000
               7          8          9         10         11         12
     1  C    0.000000   0.000000   0.000000   0.000000   0.000000   0.000000
     2  C    0.000000   0.000000   0.000000   0.000000   0.000000   0.000000
     3  C    0.000000   0.000000   0.000000   0.000000   0.000000   0.000000
     4  C    0.000000   0.000000   0.000000   0.000000   0.000000   0.000000
     5  C    0.000000   0.000000   0.000000   0.000000   0.000000   0.000000
     6  C    0.000000   0.000000   0.000000   0.000000   0.000000   0.000000
     7  Cl  -0.011242   0.000000   0.000000   0.000000   0.000000   0.000000
     8  Cl   0.000000   0.019957   0.000000   0.000000   0.000000   0.000000
     9  Cl   0.000000   0.000000  -0.011242   0.000000   0.000000   0.000000
    10  H    0.000000   0.000000   0.000000   0.700944   0.000000   0.000000
    11  Cl   0.000000   0.000000   0.000000   0.000000   0.027485   0.000000
    12  H    0.000000   0.000000   0.000000   0.000000   0.000000   0.700944
 Mulliken charges and spin densities:
               1          2
     1  C   -0.034727  -0.326481
     2  C   -0.084654   0.292917
     3  C   -0.133269  -0.511941
     4  C   -0.055869   0.337669
     5  C   -0.133268  -0.511921
     6  C   -0.084657   0.292911
     7  Cl  -0.079611  -0.011242
     8  Cl  -0.093718   0.019957
     9  Cl  -0.079611  -0.011242
    10  H   -0.054002   0.700944
    11  Cl  -0.112607   0.027485
    12  H   -0.054006   0.700944
 Sum of Mulliken charges =  -1.00000   1.00000
 Mulliken charges and spin densities with hydrogens summed into heavy atoms:
               1          2
     1  C   -0.034727  -0.326481
     2  C   -0.084654   0.292917
     3  C   -0.187271   0.189004
     4  C   -0.055869   0.337669
     5  C   -0.187274   0.189023
     6  C   -0.084657   0.292911
     7  Cl  -0.079611  -0.011242
     8  Cl  -0.093718   0.019957
     9  Cl  -0.079611  -0.011242
    11  Cl  -0.112607   0.027485
 Charge=             -1.0000 electrons
 Dipole moment (field-independent basis, Debye):
    X=             -0.0001    Y=              3.7620    Z=             -0.0000  Tot=              3.7620
 N-N= 2.993936772908D+02 E-N=-4.313622181361D+02  KE=-1.358143652340D+02
 Symmetry A'   KE=-1.041621193146D+02
 Symmetry A"   KE=-3.165224591938D+01
 Symmetry A'   SP= 1.000000000000D+00
 Symmetry A"   SP= 5.551115123126D-17
 Calling FoFJK, ICntrl=      2127 FMM=F ISym2X=1 I1Cent= 0 IOpClX= 1 NMat=1 NMatS=1 NMatT=0.
 ***** Axes restored to original set *****
 -------------------------------------------------------------------
 Center     Atomic                   Forces (Hartrees/Bohr)
 Number     Number              X              Y              Z
 -------------------------------------------------------------------
      1        6          -0.021889974    0.011850055   -0.000000000
      2        6           0.018193151    0.010769973   -0.000000000
      3        6           0.021890994    0.004450811   -0.000000000
      4        6          -0.007835737    0.004239162   -0.000000000
      5        6           0.008251881   -0.020763060    0.000000000
      6        6           0.000925754   -0.021118271   -0.000000000
      7       17           0.027903868    0.015214015   -0.000000000
      8       17           0.022770511   -0.012325725   -0.000000000
      9       17           0.002519629   -0.031684664   -0.000000000
     10        1          -0.044675962   -0.025812804    0.000000000
     11       17          -0.025237637    0.013661148   -0.000000000
     12        1          -0.002816479    0.051519361    0.000000000
 -------------------------------------------------------------------
 Cartesian Forces:  Max     0.051519361 RMS     0.017818352

 GradGradGradGradGradGradGradGradGradGradGradGradGradGradGradGradGradGrad
 Berny optimization.
 FormGI is forming the generalized inverse of G from B-inverse, IUseBI=4.
 Internal  Forces:  Max     0.051577916 RMS     0.015622766
 Search for a local minimum.
 Step number   1 out of a maximum of   64
 All quantities printed in internal units (Hartrees-Bohrs-Radians)
 Mixed Optimization -- RFO/linear search
 Second derivative matrix not updated -- first step.
 ITU=  0
     Eigenvalues ---    0.02011   0.02011   0.02011   0.02011   0.02011
     Eigenvalues ---    0.02011   0.02011   0.02011   0.02011   0.06524
     Eigenvalues ---    0.06524   0.16000   0.16000   0.23477   0.23493
     Eigenvalues ---    0.25000   0.25000   0.25000   0.25000   0.25000
     Eigenvalues ---    0.29033   0.29033   0.29033   0.29033   0.40971
     Eigenvalues ---    0.41131   0.44656   0.44657   0.44657   0.44657
 RFO step:  Lambda=-6.09822884D-02 EMin= 2.01065826D-02
 Linear search not attempted -- first point.
 Maximum step size (   0.300) exceeded in Quadratic search.
    -- Step size scaled by   0.486
 Iteration  1 RMS(Cart)=  0.04780404 RMS(Int)=  0.00006051
 Iteration  2 RMS(Cart)=  0.00011561 RMS(Int)=  0.00000942
 Iteration  3 RMS(Cart)=  0.00000001 RMS(Int)=  0.00000942
 ClnCor:  largest displacement from symmetrization is 1.57D-09 for atom     8.
 Variable       Old X    -DE/DX   Delta X   Delta X   Delta X     New X
                                 (Linear)    (Quad)   (Total)
    R1        2.65676  -0.00867   0.00000  -0.00740  -0.00741   2.64935
    R2        2.65677  -0.00867   0.00000  -0.00740  -0.00741   2.64935
    R3        3.33635  -0.02589   0.00000  -0.03584  -0.03584   3.30051
    R4        2.65677  -0.02867   0.00000  -0.02747  -0.02747   2.62930
    R5        3.33634  -0.03174   0.00000  -0.04394  -0.04394   3.29241
    R6        2.65677  -0.03403   0.00000  -0.03351  -0.03350   2.62327
    R7        3.33633  -0.05158   0.00000  -0.19870  -0.19870   3.13763
    R8        2.65678  -0.03404   0.00000  -0.03352  -0.03350   2.62328
    R9        3.33633  -0.02870   0.00000  -0.03972  -0.03972   3.29661
   R10        2.65675  -0.02866   0.00000  -0.02746  -0.02746   2.62929
   R11        3.33632  -0.05158   0.00000  -0.19870  -0.19870   3.13762
   R12        3.33633  -0.03174   0.00000  -0.04393  -0.04393   3.29240
    A1        2.09439  -0.00960   0.00000  -0.01207  -0.01210   2.08229
    A2        2.09439   0.00480   0.00000   0.00604   0.00605   2.10045
    A3        2.09440   0.00480   0.00000   0.00604   0.00605   2.10045
    A4        2.09439   0.00007   0.00000   0.00155   0.00153   2.09593
    A5        2.09440   0.00271   0.00000   0.00353   0.00353   2.09793
    A6        2.09439  -0.00279   0.00000  -0.00507  -0.00507   2.08933
    A7        2.09440   0.00246   0.00000   0.00249   0.00250   2.09690
    A8        2.09440  -0.00356   0.00000  -0.00638  -0.00639   2.08800
    A9        2.09439   0.00111   0.00000   0.00390   0.00389   2.09828
   A10        2.09439   0.00455   0.00000   0.00401   0.00404   2.09843
   A11        2.09440  -0.00228   0.00000  -0.00201  -0.00202   2.09238
   A12        2.09440  -0.00227   0.00000  -0.00200  -0.00202   2.09238
   A13        2.09439   0.00245   0.00000   0.00249   0.00250   2.09690
   A14        2.09439   0.00111   0.00000   0.00390   0.00389   2.09828
   A15        2.09440  -0.00356   0.00000  -0.00638  -0.00639   2.08801
   A16        2.09440   0.00007   0.00000   0.00154   0.00153   2.09593
   A17        2.09439   0.00271   0.00000   0.00353   0.00354   2.09793
   A18        2.09439  -0.00279   0.00000  -0.00507  -0.00506   2.08933
    D1       -0.00000  -0.00000   0.00000   0.00000   0.00000   0.00000
    D2        3.14159   0.00000   0.00000   0.00000   0.00000   3.14159
    D3        3.14159  -0.00000   0.00000  -0.00000   0.00000   3.14159
    D4        0.00000  -0.00000   0.00000  -0.00000   0.00000   0.00000
    D5        0.00000   0.00000   0.00000  -0.00000  -0.00000   0.00000
    D6        3.14159   0.00000   0.00000  -0.00000   0.00000   3.14159
    D7        3.14159   0.00000   0.00000   0.00000   0.00000   3.14159
    D8       -0.00000   0.00000   0.00000   0.00000   0.00000   0.00000
    D9        0.00000   0.00000   0.00000   0.00000  -0.00000   0.00000
   D10        3.14159   0.00000   0.00000   0.00000   0.00000   3.14159
   D11        3.14159   0.00000   0.00000   0.00000   0.00000   3.14159
   D12       -0.00000   0.00000   0.00000   0.00000   0.00000   0.00000
   D13       -0.00000  -0.00000   0.00000  -0.00000   0.00000   0.00000
   D14        3.14159  -0.00000   0.00000  -0.00000   0.00000   3.14159
   D15        3.14159  -0.00000   0.00000  -0.00000   0.00000   3.14159
   D16        0.00000  -0.00000   0.00000  -0.00000   0.00000   0.00000
   D17       -0.00000   0.00000   0.00000   0.00000   0.00000   0.00000
   D18        3.14159   0.00000   0.00000   0.00000   0.00000   3.14159
   D19        3.14159   0.00000   0.00000   0.00000   0.00000   3.14159
   D20       -0.00000   0.00000   0.00000   0.00000   0.00000   0.00000
   D21        0.00000  -0.00000   0.00000  -0.00000   0.00000   0.00000
   D22        3.14159  -0.00000   0.00000  -0.00000   0.00000   3.14159
   D23        3.14159  -0.00000   0.00000  -0.00000   0.00000   3.14159
   D24       -0.00000  -0.00000   0.00000  -0.00000   0.00000   0.00000
         Item               Value     Threshold  Converged?
 Maximum Force            0.051578     0.000450     NO 
 RMS     Force            0.015623     0.000300     NO 
 Maximum Displacement     0.221179     0.001800     NO 
 RMS     Displacement     0.047809     0.001200     NO 
 Predicted change in Energy=-2.518819D-02
 GradGradGradGradGradGradGradGradGradGradGradGradGradGradGradGradGradGrad

                          Input orientation:                          
 ---------------------------------------------------------------------
 Center     Atomic      Atomic             Coordinates (Angstroms)
 Number     Number       Type             X           Y           Z
 ---------------------------------------------------------------------
      1          6           0       -3.200743    0.194810    0.000000
      2          6           0       -2.001886    0.921633    0.000000
      3          6           0       -0.781286    0.253778   -0.000000
      4          6           0       -0.745965   -1.133947   -0.000000
      5          6           0       -1.927180   -1.863172   -0.000000
      6          6           0       -3.153763   -1.206380    0.000000
      7         17           0       -4.629304   -2.132804    0.000000
      8         17           0       -4.736714    1.026222    0.000000
      9         17           0       -2.033029    2.663621    0.000000
     10          1           0        0.631662    1.125776   -0.000000
     11         17           0        0.788190   -1.964379   -0.000000
     12          1           0       -1.884681   -3.522987   -0.000000
 ---------------------------------------------------------------------
                    Distance matrix (angstroms):
                    1          2          3          4          5
     1  C    0.000000
     2  C    1.401974   0.000000
     3  C    2.420176   1.391364   0.000000
     4  C    2.791331   2.408889   1.388174   0.000000
     5  C    2.420176   2.785807   2.407187   1.388179   0.000000
     6  C    1.401977   2.419764   2.785804   2.408887   1.391359
     7  Cl   2.731039   4.029009   4.528025   4.009743   2.715543
     8  Cl   1.746555   2.736828   4.030147   4.537886   4.030147
     9  Cl   2.731041   1.742266   2.715549   4.009745   4.528031
    10  H    3.943859   2.641448   1.660362   2.646545   3.934652
    11  Cl   4.535823   4.014174   2.717255   1.744492   2.717256
    12  H    3.943860   4.446165   3.934645   2.646543   1.660359
                    6          7          8          9         10
     6  C    0.000000
     7  Cl   1.742264   0.000000
     8  Cl   2.736832   3.160852   0.000000
     9  Cl   4.029013   5.454020   3.160853   0.000000
    10  H    4.446165   6.188385   5.369299   3.076612   0.000000
    11  Cl   4.014169   5.420112   6.282378   5.420117   3.094117
    12  H    2.641446   3.076615   5.369301   6.188386   5.286112
                   11         12
    11  Cl   0.000000
    12  H    3.094107   0.000000
 Stoichiometry    C6H2Cl4(1-,2)
 Framework group  CS[SG(C6H2Cl4)]
 Deg. of freedom    21
 Full point group                 CS      NOp   2
 Largest Abelian subgroup         CS      NOp   2
 Largest concise Abelian subgroup C1      NOp   1
                         Standard orientation:                         
 ---------------------------------------------------------------------
 Center     Atomic      Atomic             Coordinates (Angstroms)
 Number     Number       Type             X           Y           Z
 ---------------------------------------------------------------------
      1          6           0       -0.000000    0.930881   -0.000000
      2          6           0       -1.209882    0.222561    0.000000
      3          6           0       -1.203592   -1.168789    0.000000
      4          6           0       -0.000001   -1.860450    0.000000
      5          6           0        1.203595   -1.168788   -0.000000
      6          6           0        1.209882    0.222557   -0.000000
      7         17           0        2.727009    1.079185   -0.000000
      8         17           0       -0.000000    2.677436   -0.000000
      9         17           0       -2.727012    1.079187    0.000000
     10          1           0       -2.643058   -1.996279    0.000000
     11         17           0        0.000002   -3.604942    0.000000
     12          1           0        2.643054   -1.996284   -0.000000
 ---------------------------------------------------------------------
 Rotational constants (GHZ):           0.8366131           0.5740397           0.3404446
 Standard basis: VSTO-6G (5D, 7F)
 There are    32 symmetry adapted cartesian basis functions of A'  symmetry.
 There are    10 symmetry adapted cartesian basis functions of A"  symmetry.
 There are    32 symmetry adapted basis functions of A'  symmetry.
 There are    10 symmetry adapted basis functions of A"  symmetry.
    42 basis functions,   252 primitive gaussians,    42 cartesian basis functions
    28 alpha electrons       27 beta electrons
       nuclear repulsion energy       301.5116923539 Hartrees.
 Integral buffers will be    131072 words long.
 Regular integral format.
 Two-electron integral symmetry is turned off.
 Do NDO integrals.
 One-electron integrals computed using PRISM.
 NBasis=    42 RedAO= T EigKep=  1.00D+00  NBF=    32    10
 NBsUse=    42 1.00D-06 EigRej= -1.00D+00 NBFU=    32    10
 Initial guess from the checkpoint file:  "geometry_chks/1235ClBzAnionRadical.chk"
 B after Tr=     0.000000    0.000000    0.000000
         Rot=    1.000000   -0.000000    0.000000    0.000000 Ang=   0.00 deg.
 Initial guess orbital symmetries:
 Alpha Orbitals:
       Occupied  (A') (A') (A') (A') (A') (A') (A') (A') (A') (A')
                 (A') (A') (A") (A') (A') (A") (A") (A") (A') (A')
                 (A') (A') (A") (A') (A') (A") (A") (A')
       Virtual   (A') (A") (A') (A') (A") (A') (A') (A") (A') (A')
                 (A') (A') (A') (A')
 Beta  Orbitals:
       Occupied  (A') (A') (A') (A') (A') (A') (A') (A') (A') (A')
                 (A') (A') (A") (A') (A') (A") (A") (A") (A') (A')
                 (A') (A') (A") (A') (A') (A") (A")
       Virtual   (A") (A') (A") (A') (A') (A') (A') (A") (A') (A')
                 (A') (A') (A') (A') (A')
 Initial guess <Sx>= 0.0000 <Sy>= 0.0000 <Sz>= 0.5000 <S**2>= 1.3285 S= 0.7564
 Keep J ints in memory in canonical form, NReq=864594.
 Overlap will be assumed to be unity.
 Requested convergence on RMS density matrix=1.00D-08 within  32 cycles.
 Requested convergence on MAX density matrix=1.00D-06.
 Requested convergence on             energy=1.00D-06.
 No special actions if energy rises.
 Fock symm off for IB=2 I1=    1 I=   33 J=   26 Cut=1.00D-07 Err=1.73D-03
 Fock matrix is not symmetric: symmetry in diagonalization turned off.
 SCF Done:  E(UAM1) =  0.174525252761     A.U. after   30 cycles
            NFock= 29  Conv=0.53D-08     -V/T= 1.0013
 <Sx>= 0.0000 <Sy>= 0.0000 <Sz>= 0.5000 <S**2>= 1.0505 S= 0.6404
 <L.S>=  0.00000000000    
 Annihilation of the first spin contaminant:
 S**2 before annihilation     1.0505,   after     0.8180
 QCSCF skips out because SCF is already converged.
 Calling FoFJK, ICntrl=      2127 FMM=F ISym2X=1 I1Cent= 0 IOpClX= 1 NMat=1 NMatS=1 NMatT=0.
 ***** Axes restored to original set *****
 -------------------------------------------------------------------
 Center     Atomic                   Forces (Hartrees/Bohr)
 Number     Number              X              Y              Z
 -------------------------------------------------------------------
      1        6          -0.019395049    0.010498399   -0.000000000
      2        6           0.010833287    0.014457068   -0.000000000
      3        6           0.046030987    0.020610253   -0.000000000
      4        6          -0.003513920    0.001899755   -0.000000000
      5        6           0.007918843   -0.049808885   -0.000000000
      6        6          -0.006183799   -0.016972855    0.000000000
      7       17           0.016103578    0.009105066    0.000000000
      8       17           0.015440867   -0.008358229    0.000000000
      9       17           0.001181964   -0.018463086    0.000000000
     10        1          -0.055887380   -0.032829728    0.000000000
     11       17          -0.009457524    0.005119413    0.000000000
     12        1          -0.003071855    0.064742827    0.000000000
 -------------------------------------------------------------------
 Cartesian Forces:  Max     0.064742827 RMS     0.020918490

 GradGradGradGradGradGradGradGradGradGradGradGradGradGradGradGradGradGrad
 Berny optimization.
 Using GEDIIS/GDIIS optimizer.
 FormGI is forming the generalized inverse of G from B-inverse, IUseBI=4.
 Internal  Forces:  Max     0.064801174 RMS     0.013787546
 Search for a local minimum.
 Step number   2 out of a maximum of   64
 All quantities printed in internal units (Hartrees-Bohrs-Radians)
 Mixed Optimization -- RFO/linear search
 Update second derivatives using D2CorX and points    1    2
 DE= -3.00D-02 DEPred=-2.52D-02 R= 1.19D+00
 TightC=F SS=  1.41D+00  RLast= 3.00D-01 DXNew= 5.0454D-01 9.0000D-01
 Trust test= 1.19D+00 RLast= 3.00D-01 DXMaxT set to 5.05D-01
 ITU=  1  0
 Use linear search instead of GDIIS.
     Eigenvalues ---   -4.97880   0.00029   0.02011   0.02011   0.02011
     Eigenvalues ---    0.02011   0.02011   0.02011   0.02011   0.02011
     Eigenvalues ---    0.02011   0.06524   0.15995   0.16000   0.23469
     Eigenvalues ---    0.23483   0.25000   0.25000   0.25000   0.25000
     Eigenvalues ---    0.25081   0.28828   0.29033   0.29033   0.34314
     Eigenvalues ---    0.40911   0.41217   0.44655   0.44656   0.44657
 RFO step:  Lambda=-4.97880481D+00 EMin=-4.97880433D+00
 I=     1 Eig=   -4.98D+00 Dot1=  9.38D-04
 I=     1 Stepn=  6.00D-01 RXN=   6.00D-01 EDone=F
 Mixed    1 eigenvectors in step.  Raw Step.Grad=  9.38D-04.
 RFO eigenvector is Hessian eigenvector with negative curvature.
 Taking step of  6.00D-01 in eigenvector direction(s).  Step.Grad=  1.08D-02.
 Skip linear search -- no minimum in search direction.
 Maximum step size (   0.505) exceeded in Quadratic search.
    -- Step size not scaled.
 Iteration  1 RMS(Cart)=  0.10973685 RMS(Int)=  0.00373794
 Iteration  2 RMS(Cart)=  0.00614588 RMS(Int)=  0.00042814
 Iteration  3 RMS(Cart)=  0.00000660 RMS(Int)=  0.00042809
 Iteration  4 RMS(Cart)=  0.00000000 RMS(Int)=  0.00042809
 ClnCor:  largest displacement from symmetrization is 1.58D-08 for atom    12.
 Variable       Old X    -DE/DX   Delta X   Delta X   Delta X     New X
                                 (Linear)    (Quad)   (Total)
    R1        2.64935   0.00094   0.00000  -0.10787  -0.10856   2.54079
    R2        2.64935   0.00094   0.00000  -0.10786  -0.10855   2.54080
    R3        3.30051  -0.01756   0.00000  -0.09872  -0.09872   3.20179
    R4        2.62930  -0.01021   0.00000  -0.20874  -0.20872   2.42058
    R5        3.29241  -0.01848   0.00000  -0.15576  -0.15576   3.13664
    R6        2.62327  -0.01496   0.00000  -0.21628  -0.21557   2.40770
    R7        3.13763  -0.06480   0.00000   0.15307   0.15307   3.29070
    R8        2.62328  -0.01496   0.00000  -0.21628  -0.21557   2.40771
    R9        3.29661  -0.01075   0.00000  -0.20881  -0.20881   3.08780
   R10        2.62929  -0.01021   0.00000  -0.20870  -0.20869   2.42060
   R11        3.13762  -0.06480   0.00000   0.15307   0.15307   3.29069
   R12        3.29240  -0.01848   0.00000  -0.15575  -0.15575   3.13666
    A1        2.08229  -0.00542   0.00000  -0.04956  -0.05093   2.03136
    A2        2.10045   0.00271   0.00000   0.02478   0.02546   2.12591
    A3        2.10045   0.00271   0.00000   0.02478   0.02546   2.12591
    A4        2.09593  -0.00086   0.00000   0.01065   0.01001   2.10594
    A5        2.09793   0.00183   0.00000   0.01056   0.01088   2.10881
    A6        2.08933  -0.00097   0.00000  -0.02121  -0.02089   2.06844
    A7        2.09690   0.00292   0.00000  -0.00502  -0.00435   2.09255
    A8        2.08800  -0.00368   0.00000   0.00084   0.00050   2.08850
    A9        2.09828   0.00076   0.00000   0.00419   0.00385   2.10213
   A10        2.09843   0.00128   0.00000   0.03832   0.03962   2.13805
   A11        2.09238  -0.00064   0.00000  -0.01916  -0.01981   2.07257
   A12        2.09238  -0.00064   0.00000  -0.01916  -0.01981   2.07256
   A13        2.09690   0.00292   0.00000  -0.00503  -0.00436   2.09254
   A14        2.09828   0.00076   0.00000   0.00419   0.00385   2.10213
   A15        2.08801  -0.00368   0.00000   0.00084   0.00050   2.08852
   A16        2.09593  -0.00086   0.00000   0.01064   0.01000   2.10593
   A17        2.09793   0.00183   0.00000   0.01056   0.01088   2.10881
   A18        2.08933  -0.00097   0.00000  -0.02120  -0.02088   2.06845
    D1       -0.00000   0.00000   0.00000  -0.00000   0.00000   0.00000
    D2        3.14159   0.00000   0.00000  -0.00000   0.00000   3.14159
    D3        3.14159  -0.00000   0.00000   0.00000   0.00000   3.14159
    D4        0.00000   0.00000   0.00000  -0.00000   0.00000   0.00000
    D5        0.00000  -0.00000   0.00000   0.00000  -0.00000   0.00000
    D6        3.14159  -0.00000   0.00000   0.00000   0.00000   3.14159
    D7        3.14159   0.00000   0.00000  -0.00000   0.00000   3.14159
    D8       -0.00000   0.00000   0.00000  -0.00000   0.00000   0.00000
    D9       -0.00000   0.00000   0.00000  -0.00000   0.00000   0.00000
   D10        3.14159   0.00000   0.00000  -0.00000   0.00000   3.14159
   D11        3.14159  -0.00000   0.00000   0.00000   0.00000   3.14159
   D12       -0.00000  -0.00000   0.00000   0.00000   0.00000   0.00000
   D13        0.00000  -0.00000   0.00000   0.00000  -0.00000   0.00000
   D14        3.14159   0.00000   0.00000  -0.00000   0.00000   3.14159
   D15        3.14159  -0.00000   0.00000   0.00000   0.00000   3.14159
   D16       -0.00000  -0.00000   0.00000   0.00000   0.00000   0.00000
   D17        0.00000   0.00000   0.00000   0.00000   0.00000   0.00000
   D18        3.14159   0.00000   0.00000  -0.00000   0.00000   3.14159
   D19        3.14159  -0.00000   0.00000   0.00000   0.00000   3.14159
   D20       -0.00000   0.00000   0.00000   0.00000   0.00000   0.00000
   D21       -0.00000   0.00000   0.00000  -0.00000   0.00000   0.00000
   D22        3.14159   0.00000   0.00000  -0.00000   0.00000   3.14159
   D23        3.14159  -0.00000   0.00000   0.00000   0.00000   3.14159
   D24        0.00000   0.00000   0.00000  -0.00000  -0.00000   0.00000
         Item               Value     Threshold  Converged?
 Maximum Force            0.064801     0.000450     NO 
 RMS     Force            0.013788     0.000300     NO 
 Maximum Displacement     0.420384     0.001800     NO 
 RMS     Displacement     0.114593     0.001200     NO 
 Predicted change in Energy=-8.970044D-01
 GradGradGradGradGradGradGradGradGradGradGradGradGradGradGradGradGradGrad

                          Input orientation:                          
 ---------------------------------------------------------------------
 Center     Atomic      Atomic             Coordinates (Angstroms)
 Number     Number       Type             X           Y           Z
 ---------------------------------------------------------------------
      1          6           0       -3.159616    0.172550    0.000000
      2          6           0       -1.992504    0.840087    0.000000
      3          6           0       -0.878437    0.207951   -0.000000
      4          6           0       -0.871252   -1.066130   -0.000000
      5          6           0       -1.941925   -1.756782   -0.000000
      6          6           0       -3.080366   -1.169648   -0.000000
      7         17           0       -4.453115   -2.102735   -0.000000
      8         17           0       -4.649643    0.979101    0.000000
      9         17           0       -1.961852    2.499644    0.000000
     10          1           0        0.617848    1.098726    0.000000
     11         17           0        0.565733   -1.843957   -0.000000
     12          1           0       -1.869570   -3.496637   -0.000000
 ---------------------------------------------------------------------
                    Distance matrix (angstroms):
                    1          2          3          4          5
     1  C    0.000000
     2  C    1.344528   0.000000
     3  C    2.281453   1.280914   0.000000
     4  C    2.602102   2.211530   1.274100   0.000000
     5  C    2.281467   2.597361   2.234095   1.274104   0.000000
     6  C    1.344536   2.285274   2.597358   2.211538   1.280927
     7  Cl   2.617262   3.835988   4.256476   3.728846   2.534908
     8  Cl   1.694316   2.660773   3.849243   4.296418   3.849259
     9  Cl   2.617252   1.659841   2.534886   3.728827   4.256473
    10  H    3.889349   2.623134   1.741364   2.627550   3.834888
    11  Cl   4.236097   3.707919   2.509173   1.633995   2.509173
    12  H    3.889364   4.338466   3.834881   2.627547   1.741359
                    6          7          8          9         10
     6  C    0.000000
     7  Cl   1.659846   0.000000
     8  Cl   2.660781   3.088096   0.000000
     9  Cl   3.835985   5.233382   3.088085   0.000000
    10  H    4.338468   5.997001   5.268850   2.935545   0.000000
    11  Cl   3.707927   5.025515   5.930413   5.025490   2.943144
    12  H    2.623147   2.935586   5.268875   5.996991   5.225381
                   11         12
    11  Cl   0.000000
    12  H    2.943136   0.000000
 Stoichiometry    C6H2Cl4(1-,2)
 Framework group  CS[SG(C6H2Cl4)]
 Deg. of freedom    21
 Full point group                 CS      NOp   2
 Largest Abelian subgroup         CS      NOp   2
 Largest concise Abelian subgroup C1      NOp   1
                         Standard orientation:                         
 ---------------------------------------------------------------------
 Center     Atomic      Atomic             Coordinates (Angstroms)
 Number     Number       Type             X           Y           Z
 ---------------------------------------------------------------------
      1          6           0        0.000000    0.897260    0.000000
      2          6           0       -1.142633    0.188637    0.000000
      3          6           0       -1.117045   -1.092022    0.000000
      4          6           0       -0.000003   -1.704842    0.000000
      5          6           0        1.117051   -1.092034    0.000000
      6          6           0        1.142642    0.188637    0.000000
      7         17           0        2.616696    0.951693    0.000000
      8         17           0       -0.000004    2.591576    0.000000
      9         17           0       -2.616686    0.951682    0.000000
     10          1           0       -2.612696   -1.983860    0.000000
     11         17           0       -0.000009   -3.338837    0.000000
     12          1           0        2.612685   -1.983891    0.000000
 ---------------------------------------------------------------------
 Rotational constants (GHZ):           0.9123855           0.6564581           0.3817735
 Standard basis: VSTO-6G (5D, 7F)
 There are    32 symmetry adapted cartesian basis functions of A'  symmetry.
 There are    10 symmetry adapted cartesian basis functions of A"  symmetry.
 There are    32 symmetry adapted basis functions of A'  symmetry.
 There are    10 symmetry adapted basis functions of A"  symmetry.
    42 basis functions,   252 primitive gaussians,    42 cartesian basis functions
    28 alpha electrons       27 beta electrons
       nuclear repulsion energy       312.1344121408 Hartrees.



 Warning!  Cl atom    7 may be hypervalent but has no d functions.
 Warning!  Cl atom    9 may be hypervalent but has no d functions.
 Warning!  Cl atom   11 may be hypervalent but has no d functions.



 Integral buffers will be    131072 words long.
 Regular integral format.
 Two-electron integral symmetry is turned off.
 Do NDO integrals.
 One-electron integrals computed using PRISM.
 NBasis=    42 RedAO= T EigKep=  1.00D+00  NBF=    32    10
 NBsUse=    42 1.00D-06 EigRej= -1.00D+00 NBFU=    32    10
 Initial guess from the checkpoint file:  "geometry_chks/1235ClBzAnionRadical.chk"
 B after Tr=    -0.000000   -0.000000   -0.000000
         Rot=    1.000000    0.000000    0.000000    0.000000 Ang=   0.00 deg.
 Initial guess orbital symmetries:
 Alpha Orbitals:
       Occupied  (A') (A') (A') (A') (A') (A') (A') (A') (A') (A')
                 (A') (A') (A") (A') (A') (A") (A") (A") (A') (A')
                 (A') (A') (A') (A") (A') (A") (A") (A')
       Virtual   (A') (A") (A') (A') (A") (A') (A') (A") (A') (A')
                 (A') (A') (A') (A')
 Beta  Orbitals:
       Occupied  (A') (A') (A') (A') (A') (A') (A') (A') (A') (A')
                 (A') (A') (A") (A') (A') (A") (A") (A") (A') (A')
                 (A') (A') (A") (A') (A') (A") (A")
       Virtual   (A") (A") (A') (A') (A') (A') (A") (A') (A') (A')
                 (A') (A') (A') (A') (A')
 Initial guess <Sx>= 0.0000 <Sy>= 0.0000 <Sz>= 0.5000 <S**2>= 1.0505 S= 0.6404
 Keep J ints in memory in canonical form, NReq=864594.
 Overlap will be assumed to be unity.
 Requested convergence on RMS density matrix=1.00D-08 within  32 cycles.
 Requested convergence on MAX density matrix=1.00D-06.
 Requested convergence on             energy=1.00D-06.
 No special actions if energy rises.
 Fock symm off for IB=2 I1=    1 I=   33 J=   23 Cut=1.00D-07 Err=5.16D-03
 Fock matrix is not symmetric: symmetry in diagonalization turned off.
 SCF Done:  E(UAM1) =  0.291276458988     A.U. after   26 cycles
            NFock= 25  Conv=0.95D-08     -V/T= 1.0021
 <Sx>= 0.0000 <Sy>= 0.0000 <Sz>= 0.5000 <S**2>= 1.0906 S= 0.6579
 <L.S>=  0.00000000000    
 Annihilation of the first spin contaminant:
 S**2 before annihilation     1.0906,   after     0.7742
 QCSCF skips out because SCF is already converged.
 Calling FoFJK, ICntrl=      2127 FMM=F ISym2X=1 I1Cent= 0 IOpClX= 1 NMat=1 NMatS=1 NMatT=0.
 ***** Axes restored to original set *****
 -------------------------------------------------------------------
 Center     Atomic                   Forces (Hartrees/Bohr)
 Number     Number              X              Y              Z
 -------------------------------------------------------------------
      1        6          -0.093176506    0.050423919   -0.000000000
      2        6          -0.052441883    0.135754572    0.000000000
      3        6           0.175071284    0.116722158    0.000000000
      4        6           0.146462685   -0.079285103   -0.000000000
      5        6          -0.002016308   -0.210391534    0.000000000
      6        6          -0.142322334   -0.030321795   -0.000000000
      7       17          -0.043842582   -0.026009959   -0.000000000
      8       17          -0.014852198    0.008038830    0.000000000
      9       17          -0.002195589    0.050937473    0.000000000
     10        1          -0.046350040   -0.026260581    0.000000000
     11       17           0.079020955   -0.042773184    0.000000000
     12        1          -0.003357485    0.053165204    0.000000000
 -------------------------------------------------------------------
 Cartesian Forces:  Max     0.210391534 RMS     0.072474523

 GradGradGradGradGradGradGradGradGradGradGradGradGradGradGradGradGradGrad
 Berny optimization.
 Using GEDIIS/GDIIS optimizer.
 FormGI is forming the generalized inverse of G from B-inverse, IUseBI=4.
 Internal  Forces:  Max     0.199588572 RMS     0.063723133
 Search for a local minimum.
 Step number   3 out of a maximum of   64
 All quantities printed in internal units (Hartrees-Bohrs-Radians)
 Mixed Optimization -- RFO/linear search
 Update second derivatives using D2CorX and points    1    3    2
 ITU=  0  1  0
 Use linear search instead of GDIIS.
     Eigenvalues ---    0.00025   0.02011   0.02011   0.02011   0.02011
     Eigenvalues ---    0.02011   0.02011   0.02011   0.02011   0.02011
     Eigenvalues ---    0.06524   0.15988   0.16000   0.23221   0.23440
     Eigenvalues ---    0.24962   0.25000   0.25000   0.25000   0.25013
     Eigenvalues ---    0.28063   0.29022   0.29033   0.29361   0.40413
     Eigenvalues ---    0.40483   0.44603   0.44656   0.44657   1.00721
 RFO step:  Lambda=-9.44687082D-02 EMin= 2.53368664D-04
 Quartic linear search produced a step of -0.99521.
 Maximum step size (   0.505) exceeded in Quadratic search.
    -- Step size scaled by   0.510
 Iteration  1 RMS(Cart)=  0.10533196 RMS(Int)=  0.05863608
 Iteration  2 RMS(Cart)=  0.03631562 RMS(Int)=  0.02000670
 Iteration  3 RMS(Cart)=  0.01960005 RMS(Int)=  0.00004960
 Iteration  4 RMS(Cart)=  0.00000059 RMS(Int)=  0.00004960
 ClnCor:  largest displacement from symmetrization is 2.52D-08 for atom     7.
 Variable       Old X    -DE/DX   Delta X   Delta X   Delta X     New X
                                 (Linear)    (Quad)   (Total)
    R1        2.54079   0.13578   0.10804   0.02184   0.12995   2.67074
    R2        2.54080   0.13577   0.10803   0.02184   0.12994   2.67074
    R3        3.20179   0.01689   0.09824  -0.04707   0.05118   3.25297
    R4        2.42058   0.19863   0.20772   0.00899   0.21671   2.63729
    R5        3.13664   0.05089   0.15502  -0.04482   0.11020   3.24684
    R6        2.40770   0.19959   0.21453  -0.00206   0.21239   2.62009
    R7        3.29070  -0.05326  -0.15234  -0.35072  -0.50306   2.78764
    R8        2.40771   0.19958   0.21454  -0.00207   0.21239   2.62010
    R9        3.08780   0.08985   0.20781  -0.01675   0.19106   3.27886
   R10        2.42060   0.19861   0.20769   0.00900   0.21668   2.63728
   R11        3.29069  -0.05326  -0.15233  -0.35072  -0.50305   2.78764
   R12        3.13666   0.05088   0.15500  -0.04481   0.11019   3.24684
    A1        2.03136   0.02178   0.05068  -0.01083   0.04001   2.07138
    A2        2.12591  -0.01089  -0.02534   0.00542  -0.02001   2.10590
    A3        2.12591  -0.01089  -0.02534   0.00541  -0.02001   2.10590
    A4        2.10594  -0.00172  -0.00996  -0.00123  -0.01112   2.09482
    A5        2.10881  -0.00406  -0.01082   0.00447  -0.00639   2.10242
    A6        2.06844   0.00578   0.02079  -0.00324   0.01751   2.08595
    A7        2.09255   0.01395   0.00433   0.00937   0.01362   2.10617
    A8        2.08850  -0.00886  -0.00050  -0.01421  -0.01467   2.07384
    A9        2.10213  -0.00509  -0.00383   0.00484   0.00105   2.10318
   A10        2.13805  -0.04626  -0.03943  -0.00544  -0.04503   2.09303
   A11        2.07257   0.02313   0.01972   0.00272   0.02251   2.09508
   A12        2.07256   0.02313   0.01972   0.00272   0.02251   2.09508
   A13        2.09254   0.01396   0.00434   0.00937   0.01363   2.10616
   A14        2.10213  -0.00510  -0.00383   0.00484   0.00105   2.10318
   A15        2.08852  -0.00886  -0.00050  -0.01421  -0.01467   2.07384
   A16        2.10593  -0.00171  -0.00995  -0.00123  -0.01111   2.09482
   A17        2.10881  -0.00406  -0.01083   0.00448  -0.00639   2.10242
   A18        2.06845   0.00577   0.02078  -0.00324   0.01750   2.08595
    D1        0.00000   0.00000   0.00000   0.00000   0.00000   0.00000
    D2        3.14159   0.00000   0.00000   0.00000   0.00000   3.14159
    D3        3.14159  -0.00000   0.00000  -0.00000   0.00000   3.14159
    D4       -0.00000  -0.00000   0.00000   0.00000   0.00000   0.00000
    D5        0.00000  -0.00000   0.00000  -0.00000  -0.00000   0.00000
    D6        3.14159  -0.00000   0.00000  -0.00000   0.00000   3.14159
    D7        3.14159   0.00000   0.00000   0.00000   0.00000   3.14159
    D8       -0.00000   0.00000   0.00000   0.00000   0.00000   0.00000
    D9       -0.00000  -0.00000   0.00000   0.00000   0.00000   0.00000
   D10        3.14159   0.00000   0.00000   0.00000   0.00000   3.14159
   D11        3.14159  -0.00000   0.00000  -0.00000   0.00000   3.14159
   D12        0.00000   0.00000   0.00000  -0.00000   0.00000   0.00000
   D13        0.00000  -0.00000   0.00000  -0.00000   0.00000   0.00000
   D14        3.14159   0.00000   0.00000   0.00000   0.00000   3.14159
   D15        3.14159  -0.00000   0.00000  -0.00000   0.00000   3.14159
   D16       -0.00000   0.00000   0.00000  -0.00000   0.00000   0.00000
   D17        0.00000   0.00000   0.00000   0.00000  -0.00000   0.00000
   D18        3.14159   0.00000   0.00000   0.00000   0.00000   3.14159
   D19        3.14159  -0.00000   0.00000  -0.00000   0.00000   3.14159
   D20       -0.00000   0.00000   0.00000   0.00000   0.00000   0.00000
   D21       -0.00000  -0.00000   0.00000  -0.00000   0.00000   0.00000
   D22        3.14159   0.00000   0.00000   0.00000   0.00000   3.14159
   D23        3.14159  -0.00000   0.00000  -0.00000   0.00000   3.14159
   D24        0.00000  -0.00000   0.00000   0.00000   0.00000   0.00000
         Item               Value     Threshold  Converged?
 Maximum Force            0.199589     0.000450     NO 
 RMS     Force            0.063723     0.000300     NO 
 Maximum Displacement     0.433651     0.001800     NO 
 RMS     Displacement     0.123871     0.001200     NO 
 Predicted change in Energy=-5.876108D-02
 GradGradGradGradGradGradGradGradGradGradGradGradGradGradGradGradGradGrad

                          Input orientation:                          
 ---------------------------------------------------------------------
 Center     Atomic      Atomic             Coordinates (Angstroms)
 Number     Number       Type             X           Y           Z
 ---------------------------------------------------------------------
      1          6           0       -3.202109    0.195549   -0.000000
      2          6           0       -1.989589    0.921635    0.000000
      3          6           0       -0.769706    0.243726    0.000000
      4          6           0       -0.730683   -1.142219   -0.000000
      5          6           0       -1.912431   -1.867371   -0.000000
      6          6           0       -3.147042   -1.216675   -0.000000
      7         17           0       -4.593006   -2.144706   -0.000000
      8         17           0       -4.715957    1.014985   -0.000000
      9         17           0       -2.003214    2.639735    0.000000
     10          1           0        0.479708    1.027976    0.000000
     11         17           0        0.795211   -1.968179   -0.000000
     12          1           0       -1.885883   -3.342287   -0.000000
 ---------------------------------------------------------------------
                    Distance matrix (angstroms):
                    1          2          3          4          5
     1  C    0.000000
     2  C    1.413296   0.000000
     3  C    2.432880   1.395592   0.000000
     4  C    2.810262   2.417507   1.386494   0.000000
     5  C    2.432881   2.790073   2.400531   1.386496   0.000000
     6  C    1.413297   2.431474   2.790071   2.417505   1.395590
     7  Cl   2.722386   4.022465   4.508018   3.990303   2.694884
     8  Cl   1.721397   2.727965   4.020912   4.531659   4.020912
     9  Cl   2.722388   1.718154   2.694885   3.990302   4.508020
    10  H    3.774747   2.471586   1.475155   2.484913   3.755710
    11  Cl   4.545359   4.013246   2.709518   1.735097   2.709517
    12  H    3.774750   4.265183   3.755707   2.484911   1.475155
                    6          7          8          9         10
     6  C    0.000000
     7  Cl   1.718154   0.000000
     8  Cl   2.727966   3.162082   0.000000
     9  Cl   4.022467   5.440396   3.162086   0.000000
    10  H    4.265181   5.983171   5.195681   2.960181   0.000000
    11  Cl   4.013242   5.391107   6.266756   5.391109   3.012721
    12  H    2.471588   2.960188   5.195684   5.983173   4.969428
                   11         12
    11  Cl   0.000000
    12  H    3.012712   0.000000
 Stoichiometry    C6H2Cl4(1-,2)
 Framework group  CS[SG(C6H2Cl4)]
 Deg. of freedom    21
 Full point group                 CS      NOp   2
 Largest Abelian subgroup         CS      NOp   2
 Largest concise Abelian subgroup C1      NOp   1
                         Standard orientation:                         
 ---------------------------------------------------------------------
 Center     Atomic      Atomic             Coordinates (Angstroms)
 Number     Number       Type             X           Y           Z
 ---------------------------------------------------------------------
      1          6           0        0.000000    0.951729    0.000000
      2          6           0       -1.215737    0.231042    0.000000
      3          6           0       -1.200265   -1.164464    0.000000
      4          6           0       -0.000001   -1.858533    0.000000
      5          6           0        1.200266   -1.164464    0.000000
      6          6           0        1.215737    0.231040    0.000000
      7         17           0        2.720197    1.060891    0.000000
      8         17           0        0.000001    2.673126    0.000000
      9         17           0       -2.720199    1.060891    0.000000
     10          1           0       -2.484716   -1.889908    0.000000
     11         17           0        0.000001   -3.593630    0.000000
     12          1           0        2.484712   -1.889915    0.000000
 ---------------------------------------------------------------------
 Rotational constants (GHZ):           0.8423064           0.5786261           0.3430004
 Standard basis: VSTO-6G (5D, 7F)
 There are    32 symmetry adapted cartesian basis functions of A'  symmetry.
 There are    10 symmetry adapted cartesian basis functions of A"  symmetry.
 There are    32 symmetry adapted basis functions of A'  symmetry.
 There are    10 symmetry adapted basis functions of A"  symmetry.
    42 basis functions,   252 primitive gaussians,    42 cartesian basis functions
    28 alpha electrons       27 beta electrons
       nuclear repulsion energy       302.6804737325 Hartrees.
 Integral buffers will be    131072 words long.
 Regular integral format.
 Two-electron integral symmetry is turned off.
 Do NDO integrals.
 One-electron integrals computed using PRISM.
 NBasis=    42 RedAO= T EigKep=  1.00D+00  NBF=    32    10
 NBsUse=    42 1.00D-06 EigRej= -1.00D+00 NBFU=    32    10
 Lowest energy guess from the checkpoint file:  "geometry_chks/1235ClBzAnionRadical.chk"
 B after Tr=    -0.000000    0.000000    0.000000
         Rot=    1.000000   -0.000000   -0.000000    0.000000 Ang=   0.00 deg.
 B after Tr=     0.000000    0.000000   -0.000000
         Rot=    1.000000    0.000000   -0.000000   -0.000000 Ang=  -0.00 deg.
 Initial guess orbital symmetries:
 Alpha Orbitals:
       Occupied  (A") (A') (A") (A') (A') (A') (A') (A") (A') (A')
                 (A') (A') (A') (A') (A") (A") (A") (A") (A') (A")
                 (A") (A") (A") (A") (A') (A") (A") (A')
       Virtual   (A") (A') (A") (A') (A') (A') (A') (A") (A') (A')
                 (A') (A') (A') (A')
 Beta  Orbitals:
       Occupied  (A') (A') (A") (A') (A') (A") (A') (A') (A') (A')
                 (A") (A') (A') (A') (A') (A") (A") (A") (A") (A")
                 (A") (A") (A") (A") (A") (A") (A")
       Virtual   (A') (A') (A") (A') (A') (A") (A') (A') (A') (A')
                 (A") (A') (A') (A') (A')
 Initial guess <Sx>= 0.0000 <Sy>= 0.0000 <Sz>= 0.5000 <S**2>= 1.0505 S= 0.6404
 Keep J ints in memory in canonical form, NReq=864594.
 Overlap will be assumed to be unity.
 Requested convergence on RMS density matrix=1.00D-08 within  32 cycles.
 Requested convergence on MAX density matrix=1.00D-06.
 Requested convergence on             energy=1.00D-06.
 No special actions if energy rises.
 An orbital has undefined symmetry, so N**3 symmetry is turned off.
 Rare condition: small coef for last iteration:  0.000D+00
 Rare condition: small coef for last iteration:  0.000D+00
 Rare condition: small coef for last iteration:  0.000D+00
 Rare condition: small coef for last iteration:  0.000D+00
 Rare condition: small coef for last iteration:  0.000D+00
 Rare condition: small coef for last iteration:  0.000D+00
 Rare condition: small coef for last iteration:  0.000D+00
 Rare condition: small coef for last iteration:  0.000D+00
 Rare condition: small coef for last iteration:  0.000D+00
 Rare condition: small coef for last iteration:  0.000D+00
 Rare condition: small coef for last iteration:  0.000D+00
 >>>>>>>>>> Convergence criterion not met.
 SCF Done:  E(UAM1) =  0.128904127720     A.U. after   33 cycles
            NFock= 32  Conv=0.30D-03     -V/T= 1.0009
 <Sx>= 0.0000 <Sy>= 0.0000 <Sz>= 0.5000 <S**2>= 0.8398 S= 0.5439
 <L.S>=  0.00000000000    
 Annihilation of the first spin contaminant:
 S**2 before annihilation     0.8398,   after     0.7541
 Keep J ints in memory in canonical form, NReq=864994.
 Gradient too large for Newton-Raphson -- use scaled steepest descent instead.
     Minimum is close to point  5 DX=  1.87D-01 DF= -8.39D-06 DXR=  7.85D-02 DFR=  6.00D-03 which will be used.
 Gradient too large for Newton-Raphson -- use scaled steepest descent instead.
     Accept linear search using points  2 and  3.
     Minimum is close to point  3 DX= -1.13D-01 DF= -4.49D-06 DXR=  7.62D-02 DFR=  4.30D-03 which will be used.
 Gradient too large for Newton-Raphson -- use scaled steepest descent instead.
 Gradient too large for Newton-Raphson -- use scaled steepest descent instead.
     Minimum is close to point  2 DX= -6.75D-03 DF= -2.10D-08 DXR=  4.24D-03 DFR=  1.79D-05 which will be used.
 Gradient too large for Newton-Raphson -- use scaled steepest descent instead.
     Minimum is close to point  2 DX=  9.43D-02 DF= -4.05D-06 DXR=  5.56D-02 DFR=  3.10D-03 which will be used.
 Gradient too large for Newton-Raphson -- use scaled steepest descent instead.
     Minimum is close to point  2 DX=  1.47D-01 DF= -1.00D-05 DXR=  8.42D-02 DFR=  7.14D-03 which will be used.
 Gradient too large for Newton-Raphson -- use scaled steepest descent instead.
     Minimum is close to point  2 DX=  6.42D-02 DF= -1.93D-06 DXR=  3.64D-02 DFR=  1.33D-03 which will be used.
 Gradient too large for Newton-Raphson -- use scaled steepest descent instead.
 Gradient too large for Newton-Raphson -- use scaled steepest descent instead.
     Minimum is close to point  2 DX= -1.47D-01 DF= -1.09D-05 DXR=  9.45D-02 DFR=  9.00D-03 which will be used.
 Gradient too large for Newton-Raphson -- use scaled steepest descent instead.
     Accept linear search using points  1 and  2.
     Minimum is close to point  2 DX= -8.97D-02 DF= -6.75D-06 DXR=  5.94D-02 DFR=  6.65D-03 which will be used.
 Gradient too large for Newton-Raphson -- use scaled steepest descent instead.
     Accept linear search using points  1 and  2.
     Minimum is close to point  2 DX= -7.05D-02 DF= -3.72D-06 DXR=  4.94D-02 DFR=  4.39D-03 which will be used.
 Gradient too large for Newton-Raphson -- use scaled steepest descent instead.
     Minimum is close to point  2 DX=  2.87D-02 DF= -2.45D-07 DXR=  1.88D-02 DFR=  3.53D-04 which will be used.
 Gradient too large for Newton-Raphson -- use scaled steepest descent instead.
 Gradient too large for Newton-Raphson -- use scaled steepest descent instead.
     Minimum is close to point  2 DX= -7.49D-02 DF= -1.55D-06 DXR=  4.61D-02 DFR=  2.13D-03 which will be used.
 Gradient too large for Newton-Raphson -- use scaled steepest descent instead.
     Minimum is close to point  2 DX=  8.40D-02 DF= -2.06D-06 DXR=  4.71D-02 DFR=  2.22D-03 which will be used.
 Gradient too large for Newton-Raphson -- use scaled steepest descent instead.
 Gradient too large for Newton-Raphson -- use scaled steepest descent instead.
 Gradient too large for Newton-Raphson -- use scaled steepest descent instead.
     Minimum is close to point  2 DX=  1.83D-01 DF= -2.16D-05 DXR=  9.24D-02 DFR=  8.60D-03 which will be used.
 Gradient too large for Newton-Raphson -- use scaled steepest descent instead.
     Minimum is close to point  2 DX=  2.35D-03 DF= -5.38D-09 DXR=  1.30D-03 DFR=  1.70D-06 which will be used.
 Gradient too large for Newton-Raphson -- use scaled steepest descent instead.
 Gradient too large for Newton-Raphson -- use scaled steepest descent instead.
     Minimum is close to point  2 DX= -1.38D-01 DF= -2.48D-05 DXR=  8.81D-02 DFR=  7.82D-03 which will be used.
 Gradient too large for Newton-Raphson -- use scaled steepest descent instead.
     Accept linear search using points  1 and  2.
     Minimum is close to point  2 DX= -6.01D-02 DF= -7.13D-06 DXR=  3.90D-02 DFR=  2.99D-03 which will be used.
 Gradient too large for Newton-Raphson -- use scaled steepest descent instead.
     Accept linear search using points  1 and  2.
     Minimum is close to point  2 DX= -9.86D-02 DF= -1.24D-05 DXR=  6.57D-02 DFR=  8.19D-03 which will be used.
 Gradient too large for Newton-Raphson -- use scaled steepest descent instead.
     Accept linear search using points  1 and  2.
     Minimum is close to point  2 DX= -8.36D-02 DF= -5.39D-06 DXR=  5.91D-02 DFR=  6.11D-03 which will be used.
 Gradient too large for Newton-Raphson -- use scaled steepest descent instead.
     Accept linear search using points  1 and  2.
     Minimum is close to point  2 DX= -4.49D-02 DF= -8.33D-07 DXR=  3.09D-02 DFR=  1.77D-03 which will be used.
 LinEq1:  Iter=  0 NonCon=     1 RMS=7.70D-04 Max=8.39D-03 NDo=     1
 AX will form     1 AO Fock derivatives at one time.
 LinEq1:  Iter=  1 NonCon=     1 RMS=3.37D-04 Max=4.56D-03 NDo=     1
 LinEq1:  Iter=  2 NonCon=     1 RMS=5.37D-05 Max=7.66D-04 NDo=     1
 LinEq1:  Iter=  3 NonCon=     1 RMS=9.45D-06 Max=8.64D-05 NDo=     1
[...]
    D3        3.14159  -0.00000  -0.00000  -0.00000   0.00000   3.14159
    D4       -0.00000  -0.00000   0.00000  -0.00000   0.00000   0.00000
    D5       -0.00000  -0.00000   0.00000  -0.00000   0.00000   0.00000
    D6        3.14159  -0.00000  -0.00000  -0.00000   0.00000   3.14159
    D7        3.14159   0.00000  -0.00000   0.00000   0.00000   3.14159
    D8        0.00000   0.00000   0.00000   0.00000  -0.00000   0.00000
    D9       -0.00000   0.00000   0.00000   0.00000   0.00000   0.00000
   D10        3.14159   0.00000  -0.00000   0.00000   0.00000   3.14159
   D11        3.14159  -0.00000  -0.00000  -0.00000   0.00000   3.14159
   D12        0.00000  -0.00000   0.00000  -0.00000  -0.00000   0.00000
   D13        0.00000  -0.00000   0.00000  -0.00000   0.00000   0.00000
   D14        3.14159   0.00000  -0.00000   0.00000   0.00000   3.14159
   D15        3.14159  -0.00000  -0.00000  -0.00000   0.00000   3.14159
   D16       -0.00000  -0.00000   0.00000  -0.00000   0.00000   0.00000
   D17        0.00000   0.00000   0.00000   0.00000   0.00000   0.00000
   D18        3.14159   0.00000  -0.00000   0.00000   0.00000   3.14159
   D19        3.14159  -0.00000  -0.00000  -0.00000   0.00000   3.14159
   D20       -0.00000   0.00000   0.00000   0.00000   0.00000   0.00000
   D21        0.00000   0.00000   0.00000   0.00000  -0.00000   0.00000
   D22        3.14159   0.00000  -0.00000   0.00000   0.00000   3.14159
   D23        3.14159  -0.00000  -0.00000  -0.00000   0.00000   3.14159
   D24        0.00000   0.00000   0.00000   0.00000   0.00000   0.00000
         Item               Value     Threshold  Converged?
 Maximum Force            0.000378     0.000450     YES
 RMS     Force            0.000072     0.000300     YES
 Maximum Displacement     0.001556     0.001800     YES
 RMS     Displacement     0.000319     0.001200     YES
 Predicted change in Energy=-6.264350D-07
 Optimization completed.
    -- Stationary point found.
                           ----------------------------
                           !   Optimized Parameters   !
                           ! (Angstroms and Degrees)  !
 --------------------------                            --------------------------
 ! Name  Definition              Value          Derivative Info.                !
 --------------------------------------------------------------------------------
 ! R1    R(1,2)                  1.4072         -DE/DX =   -0.0002              !
 ! R2    R(1,6)                  1.4072         -DE/DX =   -0.0002              !
 ! R3    R(1,8)                  1.7044         -DE/DX =    0.0                 !
 ! R4    R(2,3)                  1.3982         -DE/DX =    0.0                 !
 ! R5    R(2,9)                  1.7126         -DE/DX =    0.0                 !
 ! R6    R(3,4)                  1.3968         -DE/DX =    0.0001              !
 ! R7    R(3,10)                 1.0985         -DE/DX =    0.0001              !
 ! R8    R(4,5)                  1.3968         -DE/DX =    0.0                 !
 ! R9    R(4,11)                 1.9288         -DE/DX =   -0.0002              !
 ! R10   R(5,6)                  1.3982         -DE/DX =    0.0                 !
 ! R11   R(5,12)                 1.0992         -DE/DX =   -0.0004              !
 ! R12   R(6,7)                  1.7126         -DE/DX =    0.0                 !
 ! A1    A(2,1,6)              118.6709         -DE/DX =    0.0                 !
 ! A2    A(2,1,8)              120.6645         -DE/DX =    0.0                 !
 ! A3    A(6,1,8)              120.6646         -DE/DX =    0.0                 !
 ! A4    A(1,2,3)              120.6228         -DE/DX =    0.0                 !
 ! A5    A(1,2,9)              120.0835         -DE/DX =   -0.0001              !
 ! A6    A(3,2,9)              119.2937         -DE/DX =    0.0                 !
 ! A7    A(2,3,4)              120.0638         -DE/DX =    0.0                 !
 ! A8    A(2,3,10)             120.4772         -DE/DX =    0.0                 !
 ! A9    A(4,3,10)             119.4589         -DE/DX =    0.0                 !
 ! A10   A(3,4,5)              119.9566         -DE/DX =   -0.0001              !
 ! A11   A(3,4,11)             120.0216         -DE/DX =    0.0                 !
 ! A12   A(5,4,11)             120.0217         -DE/DX =    0.0                 !
 ! A13   A(4,5,6)              120.0625         -DE/DX =    0.0                 !
 ! A14   A(4,5,12)             119.4595         -DE/DX =    0.0                 !
 ! A15   A(6,5,12)             120.4779         -DE/DX =    0.0                 !
 ! A16   A(1,6,5)              120.6233         -DE/DX =    0.0                 !
 ! A17   A(1,6,7)              120.0831         -DE/DX =   -0.0001              !
 ! A18   A(5,6,7)              119.2935         -DE/DX =    0.0                 !
 ! D1    D(6,1,2,3)              0.0            -DE/DX =    0.0                 !
 ! D2    D(6,1,2,9)            180.0            -DE/DX =    0.0                 !
 ! D3    D(8,1,2,3)            180.0            -DE/DX =    0.0                 !
 ! D4    D(8,1,2,9)              0.0            -DE/DX =    0.0                 !
 ! D5    D(2,1,6,5)              0.0            -DE/DX =    0.0                 !
 ! D6    D(2,1,6,7)            180.0            -DE/DX =    0.0                 !
 ! D7    D(8,1,6,5)            180.0            -DE/DX =    0.0                 !
 ! D8    D(8,1,6,7)              0.0            -DE/DX =    0.0                 !
 ! D9    D(1,2,3,4)              0.0            -DE/DX =    0.0                 !
 ! D10   D(1,2,3,10)           180.0            -DE/DX =    0.0                 !
 ! D11   D(9,2,3,4)            180.0            -DE/DX =    0.0                 !
 ! D12   D(9,2,3,10)             0.0            -DE/DX =    0.0                 !
 ! D13   D(2,3,4,5)              0.0            -DE/DX =    0.0                 !
 ! D14   D(2,3,4,11)           180.0            -DE/DX =    0.0                 !
 ! D15   D(10,3,4,5)           180.0            -DE/DX =    0.0                 !
 ! D16   D(10,3,4,11)            0.0            -DE/DX =    0.0                 !
 ! D17   D(3,4,5,6)              0.0            -DE/DX =    0.0                 !
 ! D18   D(3,4,5,12)           180.0            -DE/DX =    0.0                 !
 ! D19   D(11,4,5,6)           180.0            -DE/DX =    0.0                 !
 ! D20   D(11,4,5,12)            0.0            -DE/DX =    0.0                 !
 ! D21   D(4,5,6,1)              0.0            -DE/DX =    0.0                 !
 ! D22   D(4,5,6,7)            180.0            -DE/DX =    0.0                 !
 ! D23   D(12,5,6,1)           180.0            -DE/DX =    0.0                 !
 ! D24   D(12,5,6,7)             0.0            -DE/DX =    0.0                 !
 --------------------------------------------------------------------------------
 GradGradGradGradGradGradGradGradGradGradGradGradGradGradGradGradGradGrad

                          Input orientation:                          
 ---------------------------------------------------------------------
 Center     Atomic      Atomic             Coordinates (Angstroms)
 Number     Number       Type             X           Y           Z
 ---------------------------------------------------------------------
      1          6           0       -3.191632    0.189937   -0.000000
      2          6           0       -1.984266    0.912788    0.000000
      3          6           0       -0.755167    0.246325    0.000000
      4          6           0       -0.716272   -1.149961   -0.000000
      5          6           0       -1.906604   -1.880891   -0.000000
      6          6           0       -3.136677   -1.216203   -0.000000
      7         17           0       -4.583954   -2.131884   -0.000000
      8         17           0       -4.690574    1.001307   -0.000000
      9         17           0       -2.008940    2.625235    0.000000
     10          1           0        0.185907    0.813000    0.000000
     11         17           0        0.979943   -2.068095   -0.000000
     12          1           0       -1.866464   -2.979389   -0.000000
 ---------------------------------------------------------------------
                    Distance matrix (angstroms):
                    1          2          3          4          5
     1  C    0.000000
     2  C    1.407213   0.000000
     3  C    2.437118   1.398163   0.000000
     4  C    2.814736   2.421310   1.396827   0.000000
     5  C    2.437135   2.794759   2.418855   1.396836   0.000000
     6  C    1.407213   2.420879   2.794742   2.421312   1.398174
     7  Cl   2.707289   4.003549   4.507271   3.990381   2.689090
     8  Cl   1.704449   2.707755   4.007172   4.519184   4.007188
     9  Cl   2.707293   1.712624   2.689082   3.990375   4.507288
    10  H    3.434528   2.172467   1.098517   2.160356   3.411107
    11  Cl   4.743495   4.203832   2.892602   1.928760   2.892611
    12  H    3.435215   3.893960   3.411776   2.160961   1.099231
                    6          7          8          9         10
     6  C    0.000000
     7  Cl   1.712624   0.000000
     8  Cl   2.707756   3.135004   0.000000
     9  Cl   4.003553   5.409332   3.135012   0.000000
    10  H    3.893229   5.605704   4.880116   2.846323   0.000000
    11  Cl   4.203841   5.564263   6.447944   5.564240   2.988511
    12  H    2.173078   2.846581   4.880731   5.606435   4.312127
                   11         12
    11  Cl   0.000000
    12  H    2.988727   0.000000
 Stoichiometry    C6H2Cl4(1-,2)
 Framework group  CS[SG(C6H2Cl4)]
 Deg. of freedom    21
 Full point group                 CS      NOp   2
 Largest Abelian subgroup         CS      NOp   2
 Largest concise Abelian subgroup C1      NOp   1
                         Standard orientation:                         
 ---------------------------------------------------------------------
 Center     Atomic      Atomic             Coordinates (Angstroms)
 Number     Number       Type             X           Y           Z
 ---------------------------------------------------------------------
      1          6           0        0.000000    0.979720    0.000000
      2          6           0       -1.210441    0.262030   -0.000000
      3          6           0       -1.209427   -1.136132   -0.000000
      4          6           0       -0.000011   -1.835016   -0.000000
      5          6           0        1.209427   -1.136152    0.000000
      6          6           0        1.210438    0.262022    0.000000
      7         17           0        2.704664    1.098903    0.000000
      8         17           0        0.000005    2.684169    0.000000
      9         17           0       -2.704668    1.098911   -0.000000
     10          1           0       -2.155759   -1.693983   -0.000000
     11         17           0       -0.000032   -3.763775   -0.000000
     12          1           0        2.156368   -1.694374    0.000000
 ---------------------------------------------------------------------
 Rotational constants (GHZ):           0.8547656           0.5481252           0.3339665

 **********************************************************************

            Population analysis using the SCF Density.

 **********************************************************************

 Orbital symmetries:
 Alpha Orbitals:
       Occupied  (A') (A') (A') (A') (A') (A') (A') (A') (A') (A')
                 (A') (A') (A") (A') (A') (A") (A") (A') (A') (A')
                 (A') (A") (A') (A") (A") (A') (A") (A')
       Virtual   (A") (A") (A') (A') (A') (A") (A') (A') (A') (A')
                 (A') (A') (A') (A')
 Beta  Orbitals:
       Occupied  (A') (A') (A') (A') (A') (A') (A') (A') (A') (A')
                 (A') (A') (A") (A') (A') (A") (A") (A') (A') (A')
                 (A') (A") (A') (A") (A") (A') (A")
       Virtual   (A") (A') (A") (A') (A') (A") (A') (A') (A') (A')
                 (A') (A') (A') (A') (A')
 The electronic state is 2-A'.
 Alpha  occ. eigenvalues --   -1.31968  -1.26553  -1.25675  -1.22957  -1.08037
 Alpha  occ. eigenvalues --   -1.00754  -0.98261  -0.72727  -0.71536  -0.54314
 Alpha  occ. eigenvalues --   -0.48262  -0.48037  -0.42834  -0.42639  -0.40065
 Alpha  occ. eigenvalues --   -0.37208  -0.34787  -0.34281  -0.33556  -0.31429
 Alpha  occ. eigenvalues --   -0.30582  -0.30439  -0.29758  -0.23320  -0.21926
 Alpha  occ. eigenvalues --   -0.20465  -0.17813  -0.07975
 Alpha virt. eigenvalues --    0.14664   0.15079   0.15605   0.17584   0.17956
 Alpha virt. eigenvalues --    0.24320   0.27672   0.28845   0.30710   0.30779
 Alpha virt. eigenvalues --    0.31647   0.32226   0.35271   0.36359
  Beta  occ. eigenvalues --   -1.31822  -1.26387  -1.25648  -1.22783  -1.04495
  Beta  occ. eigenvalues --   -1.00712  -0.97629  -0.72667  -0.70182  -0.54036
  Beta  occ. eigenvalues --   -0.47784  -0.47541  -0.42765  -0.42490  -0.39395
  Beta  occ. eigenvalues --   -0.36567  -0.34975  -0.33472  -0.33385  -0.31465
  Beta  occ. eigenvalues --   -0.30449  -0.30132  -0.25928  -0.22604  -0.21860
  Beta  occ. eigenvalues --   -0.19345  -0.18081
  Beta virt. eigenvalues --    0.14619   0.15942   0.15971   0.17401   0.18738
  Beta virt. eigenvalues --    0.25911   0.27334   0.27756   0.29278   0.30475
  Beta virt. eigenvalues --    0.31045   0.31989   0.33384   0.35924   0.37845
          Condensed to atoms (all electrons):
               1          2          3          4          5          6
     1  C    4.113910   0.000000   0.000000   0.000000   0.000000   0.000000
     2  C    0.000000   4.059873   0.000000   0.000000   0.000000   0.000000
     3  C    0.000000   0.000000   4.135567   0.000000   0.000000   0.000000
     4  C    0.000000   0.000000   0.000000   4.070125   0.000000   0.000000
     5  C    0.000000   0.000000   0.000000   0.000000   4.135608   0.000000
     6  C    0.000000   0.000000   0.000000   0.000000   0.000000   4.059862
     7  Cl   0.000000   0.000000   0.000000   0.000000   0.000000   0.000000
     8  Cl   0.000000   0.000000   0.000000   0.000000   0.000000   0.000000
     9  Cl   0.000000   0.000000   0.000000   0.000000   0.000000   0.000000
    10  H    0.000000   0.000000   0.000000   0.000000   0.000000   0.000000
    11  Cl   0.000000   0.000000   0.000000   0.000000   0.000000   0.000000
    12  H    0.000000   0.000000   0.000000   0.000000   0.000000   0.000000
               7          8          9         10         11         12
     1  C    0.000000   0.000000   0.000000   0.000000   0.000000   0.000000
     2  C    0.000000   0.000000   0.000000   0.000000   0.000000   0.000000
     3  C    0.000000   0.000000   0.000000   0.000000   0.000000   0.000000
     4  C    0.000000   0.000000   0.000000   0.000000   0.000000   0.000000
     5  C    0.000000   0.000000   0.000000   0.000000   0.000000   0.000000
     6  C    0.000000   0.000000   0.000000   0.000000   0.000000   0.000000
     7  Cl   7.074593   0.000000   0.000000   0.000000   0.000000   0.000000
     8  Cl   0.000000   7.047450   0.000000   0.000000   0.000000   0.000000
     9  Cl   0.000000   0.000000   7.074588   0.000000   0.000000   0.000000
    10  H    0.000000   0.000000   0.000000   0.860284   0.000000   0.000000
    11  Cl   0.000000   0.000000   0.000000   0.000000   7.507907   0.000000
    12  H    0.000000   0.000000   0.000000   0.000000   0.000000   0.860233
          Atomic-Atomic Spin Densities.
               1          2          3          4          5          6
     1  C   -0.366545   0.000000   0.000000   0.000000   0.000000   0.000000
     2  C    0.000000   0.344203   0.000000   0.000000   0.000000   0.000000
     3  C    0.000000   0.000000  -0.332598   0.000000   0.000000   0.000000
     4  C    0.000000   0.000000   0.000000   0.837653   0.000000   0.000000
     5  C    0.000000   0.000000   0.000000   0.000000  -0.332635   0.000000
     6  C    0.000000   0.000000   0.000000   0.000000   0.000000   0.344195
     7  Cl   0.000000   0.000000   0.000000   0.000000   0.000000   0.000000
     8  Cl   0.000000   0.000000   0.000000   0.000000   0.000000   0.000000
     9  Cl   0.000000   0.000000   0.000000   0.000000   0.000000   0.000000
    10  H    0.000000   0.000000   0.000000   0.000000   0.000000   0.000000
    11  Cl   0.000000   0.000000   0.000000   0.000000   0.000000   0.000000
    12  H    0.000000   0.000000   0.000000   0.000000   0.000000   0.000000
               7          8          9         10         11         12
     1  C    0.000000   0.000000   0.000000   0.000000   0.000000   0.000000
     2  C    0.000000   0.000000   0.000000   0.000000   0.000000   0.000000
     3  C    0.000000   0.000000   0.000000   0.000000   0.000000   0.000000
     4  C    0.000000   0.000000   0.000000   0.000000   0.000000   0.000000
     5  C    0.000000   0.000000   0.000000   0.000000   0.000000   0.000000
     6  C    0.000000   0.000000   0.000000   0.000000   0.000000   0.000000
     7  Cl   0.008085   0.000000   0.000000   0.000000   0.000000   0.000000
     8  Cl   0.000000   0.002017   0.000000   0.000000   0.000000   0.000000
     9  Cl   0.000000   0.000000   0.008085   0.000000   0.000000   0.000000
    10  H    0.000000   0.000000   0.000000   0.020124   0.000000   0.000000
    11  Cl   0.000000   0.000000   0.000000   0.000000   0.447268   0.000000
    12  H    0.000000   0.000000   0.000000   0.000000   0.000000   0.020146
 Mulliken charges and spin densities:
               1          2
     1  C   -0.113910  -0.366545
     2  C   -0.059873   0.344203
     3  C   -0.135567  -0.332598
     4  C   -0.070125   0.837653
     5  C   -0.135608  -0.332635
     6  C   -0.059862   0.344195
     7  Cl  -0.074593   0.008085
     8  Cl  -0.047450   0.002017
     9  Cl  -0.074588   0.008085
    10  H    0.139716   0.020124
    11  Cl  -0.507907   0.447268
    12  H    0.139767   0.020146
 Sum of Mulliken charges =  -1.00000   1.00000
 Mulliken charges and spin densities with hydrogens summed into heavy atoms:
               1          2
     1  C   -0.113910  -0.366545
     2  C   -0.059873   0.344203
     3  C    0.004149  -0.312474
     4  C   -0.070125   0.837653
     5  C    0.004159  -0.312489
     6  C   -0.059862   0.344195
     7  Cl  -0.074593   0.008085
     8  Cl  -0.047450   0.002017
     9  Cl  -0.074588   0.008085
    11  Cl  -0.507907   0.447268
 Charge=             -1.0000 electrons
 Dipole moment (field-independent basis, Debye):
    X=              0.0006    Y=              8.1361    Z=              0.0000  Tot=              8.1361
 N-N= 3.025458417785D+02 E-N=-4.365769451825D+02  KE=-1.370422917133D+02
 Symmetry A'   KE=-1.054209331759D+02
 Symmetry A"   KE=-3.162135853742D+01
 Symmetry A'   SP= 1.000000000000D+00
 Symmetry A"   SP=-9.992007221626D-16
 1\1\GINC-SH02-01N39\FOpt\UAM1\ZDO\C6H2Cl4(1-,2)\JLAPIER\09-Dec-2025\0\
 \# opt am1 SCF=XQC\\4-Chloro-Benzene Anion Radical (1235)\\-1,2\C,-3.1
 916323829,0.1899373434,0.\C,-1.9842659907,0.9127883808,0.\C,-0.7551665
 632,0.2463250064,0.\C,-0.7162716416,-1.1499605037,0.\C,-1.9066040057,-
 1.8808912402,0.\C,-3.1366774885,-1.2162026727,0.\Cl,-4.583954498,-2.13
 18836786,0.\Cl,-4.6905735798,1.0013070379,0.\Cl,-2.0089402633,2.625234
 9107,0.\H,0.185907497,0.8129996294,0.\Cl,0.9799426809,-2.0680951874,0.
 \H,-1.8664637643,-2.9793890261,0.\\Version=ES64L-G16RevB.01\State=2-A'
 \HF=-0.0275735\S2=1.039817\S2-1=0.\S2A=0.814174\RMSD=9.486e-09\RMSF=1.
 219e-04\Dipole=-2.8151652,1.5235674,0.\PG=CS [SG(C6H2Cl4)]\\@


 ...THE PHYSICISTS HAVE MADE THEIR UNIVERSE, AND IF YOU DO NOT LIKE
 IT, YOU MUST MAKE YOUR OWN.
                               -- E. R. HARRISON IN "COSMOLOGY" (1980)
 Job cpu time:       0 days  0 hours  0 minutes 12.0 seconds.
 Elapsed time:       0 days  0 hours  0 minutes 31.0 seconds.
 File lengths (MBytes):  RWF=     15 Int=      0 D2E=      0 Chk=      2 Scr=      1
 Normal termination of Gaussian 16 at Tue Dec  9 09:59:12 2025.
