 Entering Gaussian System, Link 0=g16
 Initial command:
 /share/software/user/restricted/gaussian/g16.B01/l1.exe "/home/users/jlapier/Chloroaromatics/Gau-5439.inp" -scrdir="/home/users/jlapier/Chloroaromatics/"
 Entering Link 1 = /share/software/user/restricted/gaussian/g16.B01/l1.exe PID=      5440.
  
 Copyright (c) 1988-2017, Gaussian, Inc.  All Rights Reserved.
  
 This is part of the Gaussian(R) 16 program.  It is based on
 the Gaussian(R) 09 system (copyright 2009, Gaussian, Inc.),
 the Gaussian(R) 03 system (copyright 2003, Gaussian, Inc.),
 the Gaussian(R) 98 system (copyright 1998, Gaussian, Inc.),
 the Gaussian(R) 94 system (copyright 1995, Gaussian, Inc.),
 the Gaussian 92(TM) system (copyright 1992, Gaussian, Inc.),
 the Gaussian 90(TM) system (copyright 1990, Gaussian, Inc.),
 the Gaussian 88(TM) system (copyright 1988, Gaussian, Inc.),
 the Gaussian 86(TM) system (copyright 1986, Carnegie Mellon
 University), and the Gaussian 82(TM) system (copyright 1983,
 Carnegie Mellon University). Gaussian is a federally registered
 trademark of Gaussian, Inc.
  
 This software contains proprietary and confidential information,
 including trade secrets, belonging to Gaussian, Inc.
  
 This software is provided under written license and may be
 used, copied, transmitted, or stored only in accord with that
 written license.
  
 The following legend is applicable only to US Government
 contracts under FAR:
  
                    RESTRICTED RIGHTS LEGEND
  
 Use, reproduction and disclosure by the US Government is
 subject to restrictions as set forth in subparagraphs (a)
 and (c) of the Commercial Computer Software - Restricted
 Rights clause in FAR 52.227-19.
  
 Gaussian, Inc.
 340 Quinnipiac St., Bldg. 40, Wallingford CT 06492
  
  
 ---------------------------------------------------------------
 Warning -- This program may not be used in any manner that
 competes with the business of Gaussian, Inc. or will provide
 assistance to any competitor of Gaussian, Inc.  The licensee
 of this program is prohibited from giving any competitor of
 Gaussian, Inc. access to this program.  By using this program,
 the user acknowledges that Gaussian, Inc. is engaged in the
 business of creating and licensing software in the field of
 computational chemistry and represents and warrants to the
 licensee that it is not a competitor of Gaussian, Inc. and that
 it will not use this program in any manner prohibited above.
 ---------------------------------------------------------------
  

 Cite this work as:
 Gaussian 16, Revision B.01,
 M. J. Frisch, G. W. Trucks, H. B. Schlegel, G. E. Scuseria, 
 M. A. Robb, J. R. Cheeseman, G. Scalmani, V. Barone, 
 G. A. Petersson, H. Nakatsuji, X. Li, M. Caricato, A. V. Marenich, 
 J. Bloino, B. G. Janesko, R. Gomperts, B. Mennucci, H. P. Hratchian, 
 J. V. Ortiz, A. F. Izmaylov, J. L. Sonnenberg, D. Williams-Young, 
 F. Ding, F. Lipparini, F. Egidi, J. Goings, B. Peng, A. Petrone, 
 T. Henderson, D. Ranasinghe, V. G. Zakrzewski, J. Gao, N. Rega, 
 G. Zheng, W. Liang, M. Hada, M. Ehara, K. Toyota, R. Fukuda, 
 J. Hasegawa, M. Ishida, T. Nakajima, Y. Honda, O. Kitao, H. Nakai, 
 T. Vreven, K. Throssell, J. A. Montgomery, Jr., J. E. Peralta, 
 F. Ogliaro, M. J. Bearpark, J. J. Heyd, E. N. Brothers, K. N. Kudin, 
 V. N. Staroverov, T. A. Keith, R. Kobayashi, J. Normand, 
 K. Raghavachari, A. P. Rendell, J. C. Burant, S. S. Iyengar, 
 J. Tomasi, M. Cossi, J. M. Millam, M. Klene, C. Adamo, R. Cammi, 
 J. W. Ochterski, R. L. Martin, K. Morokuma, O. Farkas, 
 J. B. Foresman, and D. J. Fox, Gaussian, Inc., Wallingford CT, 2016.
 
 ******************************************
 Gaussian 16:  ES64L-G16RevB.01 20-Dec-2017
                10-Dec-2025 
 ******************************************
 %mem=2GB
 %nprocshare=1
 Will use up to    1 processors via shared memory.
 %chk=geometry_chks/1235-_235-ClBzNeutralRadical.chk
 -----------------
 # opt am1 SCF=XQC
 -----------------
 1/18=20,19=15,26=1,38=1/1,3;
 2/9=110,12=2,17=6,18=5,40=1/2;
 3/5=2,25=1,41=700000,71=1/1,2,3;
 4/35=1/1;
 5/5=2,8=3,13=1,35=1,38=5/2,8;
 6/7=2,8=2,9=2,10=2,28=1/1;
 7//1,2,3,16;
 1/18=20,19=15,26=1/3(2);
 2/9=110/2;
 99//99;
 2/9=110/2;
 3/5=2,25=1,41=700000,71=1,135=20/1,2,3;
 4/5=5,16=3,35=1/1;
 5/5=2,8=3,13=1,35=1,38=5/2,8;
 7//1,2,3,16;
 1/18=20,19=15,26=1/3(-5);
 2/9=110/2;
 6/7=2,8=2,9=2,10=2,19=2,28=1/1;
 99/9=1/99;
 --------------------------------
 Neutral Radical (removed 1) _235
 --------------------------------
 Symbolic Z-matrix:
 Charge =  0 Multiplicity = 2
 C                    -3.20928   0.19943   0. 
 C                    -2.0115    0.93555   0. 
 C                    -0.77511   0.2663    0. 
 C                    -0.7365   -1.13907   0. 
 C                    -1.93429  -1.87519   0. 
 C                    -3.17067  -1.20594   0. 
 Cl                   -4.76193   1.03987   0. 
 Cl                   -2.05998   2.7004    0. 
 H                     0.72905   1.19071   0. 
 Cl                    0.81614  -1.97951   0. 
 H                    -1.8858   -3.64003   0. 
 
 Add virtual bond connecting atoms H11        and C5         Dist= 3.34D+00.
 Add virtual bond connecting atoms H9         and C3         Dist= 3.34D+00.

 GradGradGradGradGradGradGradGradGradGradGradGradGradGradGradGradGradGrad
 Berny optimization.
 Initialization pass.
                           ----------------------------
                           !    Initial Parameters    !
                           ! (Angstroms and Degrees)  !
 --------------------------                            --------------------------
 ! Name  Definition              Value          Derivative Info.                !
 --------------------------------------------------------------------------------
 ! R1    R(1,2)                  1.4059         estimate D2E/DX2                !
 ! R2    R(1,6)                  1.4059         estimate D2E/DX2                !
 ! R3    R(1,7)                  1.7655         estimate D2E/DX2                !
 ! R4    R(2,3)                  1.4059         estimate D2E/DX2                !
 ! R5    R(2,8)                  1.7655         estimate D2E/DX2                !
 ! R6    R(3,4)                  1.4059         estimate D2E/DX2                !
 ! R7    R(3,9)                  1.7655         estimate D2E/DX2                !
 ! R8    R(4,5)                  1.4059         estimate D2E/DX2                !
 ! R9    R(4,10)                 1.7655         estimate D2E/DX2                !
 ! R10   R(5,6)                  1.4059         estimate D2E/DX2                !
 ! R11   R(5,11)                 1.7655         estimate D2E/DX2                !
 ! A1    A(2,1,6)              119.9999         estimate D2E/DX2                !
 ! A2    A(2,1,7)              119.9999         estimate D2E/DX2                !
 ! A3    A(6,1,7)              120.0001         estimate D2E/DX2                !
 ! A4    A(1,2,3)              120.0            estimate D2E/DX2                !
 ! A5    A(1,2,8)              120.0001         estimate D2E/DX2                !
 ! A6    A(3,2,8)              119.9999         estimate D2E/DX2                !
 ! A7    A(2,3,4)              120.0001         estimate D2E/DX2                !
 ! A8    A(2,3,9)              120.0            estimate D2E/DX2                !
 ! A9    A(4,3,9)              119.9999         estimate D2E/DX2                !
 ! A10   A(3,4,5)              119.9997         estimate D2E/DX2                !
 ! A11   A(3,4,10)             120.0003         estimate D2E/DX2                !
 ! A12   A(5,4,10)             120.0            estimate D2E/DX2                !
 ! A13   A(4,5,6)              120.0            estimate D2E/DX2                !
 ! A14   A(4,5,11)             119.9996         estimate D2E/DX2                !
 ! A15   A(6,5,11)             120.0004         estimate D2E/DX2                !
 ! A16   A(1,6,5)              120.0003         estimate D2E/DX2                !
 ! D1    D(6,1,2,3)              0.0            estimate D2E/DX2                !
 ! D2    D(6,1,2,8)            180.0            estimate D2E/DX2                !
 ! D3    D(7,1,2,3)            180.0            estimate D2E/DX2                !
 ! D4    D(7,1,2,8)              0.0            estimate D2E/DX2                !
 ! D5    D(2,1,6,5)              0.0            estimate D2E/DX2                !
 ! D6    D(7,1,6,5)            180.0            estimate D2E/DX2                !
 ! D7    D(1,2,3,4)              0.0            estimate D2E/DX2                !
 ! D8    D(1,2,3,9)            180.0            estimate D2E/DX2                !
 ! D9    D(8,2,3,4)            180.0            estimate D2E/DX2                !
 ! D10   D(8,2,3,9)              0.0            estimate D2E/DX2                !
 ! D11   D(2,3,4,5)              0.0            estimate D2E/DX2                !
 ! D12   D(2,3,4,10)           180.0            estimate D2E/DX2                !
 ! D13   D(9,3,4,5)            180.0            estimate D2E/DX2                !
 ! D14   D(9,3,4,10)             0.0            estimate D2E/DX2                !
 ! D15   D(3,4,5,6)              0.0            estimate D2E/DX2                !
 ! D16   D(3,4,5,11)           180.0            estimate D2E/DX2                !
 ! D17   D(10,4,5,6)           180.0            estimate D2E/DX2                !
 ! D18   D(10,4,5,11)            0.0            estimate D2E/DX2                !
 ! D19   D(4,5,6,1)              0.0            estimate D2E/DX2                !
 ! D20   D(11,5,6,1)           180.0            estimate D2E/DX2                !
 --------------------------------------------------------------------------------
 Trust Radius=3.00D-01 FncErr=1.00D-07 GrdErr=1.00D-07 EigMax=2.50D+02 EigMin=1.00D-04
 Number of steps in this run=     57 maximum allowed number of steps=    100.
 GradGradGradGradGradGradGradGradGradGradGradGradGradGradGradGradGradGrad

                          Input orientation:                          
 ---------------------------------------------------------------------
 Center     Atomic      Atomic             Coordinates (Angstroms)
 Number     Number       Type             X           Y           Z
 ---------------------------------------------------------------------
      1          6           0       -3.209280    0.199430    0.000000
      2          6           0       -2.011500    0.935550    0.000000
      3          6           0       -0.775110    0.266300    0.000000
      4          6           0       -0.736500   -1.139070    0.000000
      5          6           0       -1.934290   -1.875190    0.000000
      6          6           0       -3.170670   -1.205940    0.000000
      7         17           0       -4.761930    1.039870    0.000000
      8         17           0       -2.059980    2.700400    0.000000
      9          1           0        0.729050    1.190710    0.000000
     10         17           0        0.816140   -1.979510    0.000000
     11          1           0       -1.885800   -3.640030    0.000000
 ---------------------------------------------------------------------
                    Distance matrix (angstroms):
                    1          2          3          4          5
     1  C    0.000000
     2  C    1.405898   0.000000
     3  C    2.435088   1.405900   0.000000
     4  C    2.811801   2.435092   1.405900   0.000000
     5  C    2.435087   2.811800   2.435093   1.405907   0.000000
     6  C    1.405900   2.435088   2.811796   2.435088   1.405892
     7  Cl   1.765520   2.752408   4.061175   4.577321   4.061173
     8  Cl   2.752406   1.765516   2.752405   4.061173   4.577316
     9  H    4.061167   2.752403   1.765512   2.752401   4.061173
    10  Cl   4.577312   4.061173   2.752406   1.765511   2.752408
    11  H    4.061164   4.577306   4.061163   2.752397   1.765506
                    6          7          8          9         10
     6  C    0.000000
     7  Cl   2.752412   0.000000
     8  Cl   4.061173   3.171418   0.000000
     9  H    4.577308   5.493051   3.171412   0.000000
    10  Cl   4.061165   6.342832   5.493052   3.171416   0.000000
    11  H    2.752396   5.493049   6.342822   5.493040   3.171404
                   11
    11  H    0.000000
 Stoichiometry    C6H2Cl3(2)
 Framework group  CS[SG(C6H2Cl3)]
 Deg. of freedom    19
 Full point group                 CS      NOp   2
 Largest Abelian subgroup         CS      NOp   2
 Largest concise Abelian subgroup C1      NOp   1
                         Standard orientation:                         
 ---------------------------------------------------------------------
 Center     Atomic      Atomic             Coordinates (Angstroms)
 Number     Number       Type             X           Y           Z
 ---------------------------------------------------------------------
      1          6           0        0.524616   -1.138644    0.000000
      2          6           0       -0.692928   -0.435696    0.000000
      3          6           0       -0.692928    0.970205    0.000000
      4          6           0        0.524616    1.673157    0.000000
      5          6           0        1.742165    0.970200    0.000000
      6          6           0        1.742160   -0.435692    0.000000
      7         17           0        0.524616   -2.904164    0.000000
      8         17           0       -2.221911   -1.318451    0.000000
      9          1           0       -2.221906    1.852961    0.000000
     10         17           0        0.524622    3.438668    0.000000
     11          1           0        3.271135    1.852959    0.000000
 ---------------------------------------------------------------------
 Rotational constants (GHZ):           1.8580806           0.5750017           0.4391136
 Standard basis: VSTO-6G (5D, 7F)
 There are    29 symmetry adapted cartesian basis functions of A'  symmetry.
 There are     9 symmetry adapted cartesian basis functions of A"  symmetry.
 There are    29 symmetry adapted basis functions of A'  symmetry.
 There are     9 symmetry adapted basis functions of A"  symmetry.
    38 basis functions,   228 primitive gaussians,    38 cartesian basis functions
    24 alpha electrons       23 beta electrons
       nuclear repulsion energy       239.2473858783 Hartrees.
 Integral buffers will be    131072 words long.
 Regular integral format.
 Two-electron integral symmetry is turned off.
 Do NDO integrals.
 One-electron integrals computed using PRISM.
 NBasis=    38 RedAO= T EigKep=  1.00D+00  NBF=    29     9
 NBsUse=    38 1.00D-06 EigRej= -1.00D+00 NBFU=    29     9
 Simple Huckel Guess.
 Initial guess orbital symmetries:
 Alpha Orbitals:
       Occupied  (A') (A') (A') (A') (A') (A') (A') (A') (A') (A")
                 (A') (A') (A') (A') (A") (A") (A') (A") (A') (A')
                 (A') (A") (A") (A')
       Virtual   (A") (A') (A") (A') (A") (A') (A') (A') (A') (A')
                 (A') (A') (A') (A')
 Beta  Orbitals:
       Occupied  (A') (A') (A') (A') (A') (A') (A') (A') (A') (A")
                 (A') (A') (A') (A') (A") (A") (A') (A") (A') (A')
                 (A') (A") (A")
       Virtual   (A') (A") (A') (A") (A') (A") (A') (A') (A') (A')
                 (A') (A') (A') (A') (A')
 The electronic state of the initial guess is 2-A'.
 Initial guess <Sx>= 0.0000 <Sy>= 0.0000 <Sz>= 0.5000 <S**2>= 0.7500 S= 0.5000
 Keep J ints in memory in canonical form, NReq=863588.
 Overlap will be assumed to be unity.
 Requested convergence on RMS density matrix=1.00D-08 within  32 cycles.
 Requested convergence on MAX density matrix=1.00D-06.
 Requested convergence on             energy=1.00D-06.
 No special actions if energy rises.
 Fock symm off for IB=2 I1=    1 I=   30 J=   22 Cut=1.00D-07 Err=2.54D-03
 Fock matrix is not symmetric: symmetry in diagonalization turned off.
 Rare condition: small coef for last iteration:  0.000D+00
 Rare condition: small coef for last iteration:  0.000D+00
 Rare condition: small coef for last iteration:  0.000D+00
 Rare condition: small coef for last iteration:  0.000D+00
 Rare condition: small coef for last iteration:  0.000D+00
 Rare condition: small coef for last iteration:  0.000D+00
 Rare condition: small coef for last iteration:  0.000D+00
 Rare condition: small coef for last iteration:  0.000D+00
 Rare condition: small coef for last iteration:  0.000D+00
 Rare condition: small coef for last iteration:  0.000D+00
 Rare condition: small coef for last iteration:  0.000D+00
 Rare condition: small coef for last iteration:  0.000D+00
 Rare condition: small coef for last iteration:  0.000D+00
 >>>>>>>>>> Convergence criterion not met.
 SCF Done:  E(UAM1) =  0.354375115501     A.U. after   33 cycles
            NFock= 32  Conv=0.51D-03     -V/T= 1.0032
 <Sx>= 0.0000 <Sy>= 0.0000 <Sz>= 0.5000 <S**2>= 1.3903 S= 0.7807
 <L.S>=  0.00000000000    
 Annihilation of the first spin contaminant:
 S**2 before annihilation     1.3903,   after     1.2443
 Keep J ints in memory in canonical form, NReq=863988.
 LinEq1:  Iter=  0 NonCon=     1 RMS=3.36D-04 Max=3.28D-03 NDo=     1
 AX will form     1 AO Fock derivatives at one time.
 LinEq1:  Iter=  1 NonCon=     1 RMS=5.52D-05 Max=3.38D-04 NDo=     1
 LinEq1:  Iter=  2 NonCon=     1 RMS=1.10D-05 Max=1.16D-04 NDo=     1
 LinEq1:  Iter=  3 NonCon=     1 RMS=2.23D-06 Max=2.25D-05 NDo=     1
 LinEq1:  Iter=  4 NonCon=     1 RMS=5.15D-07 Max=4.09D-06 NDo=     1
 LinEq1:  Iter=  5 NonCon=     1 RMS=1.35D-07 Max=1.26D-06 NDo=     1
 LinEq1:  Iter=  6 NonCon=     1 RMS=3.39D-08 Max=2.52D-07 NDo=     1
 LinEq1:  Iter=  7 NonCon=     1 RMS=7.62D-09 Max=8.11D-08 NDo=     1
 LinEq1:  Iter=  8 NonCon=     1 RMS=1.92D-09 Max=2.74D-08 NDo=     1
 LinEq1:  Iter=  9 NonCon=     0 RMS=4.43D-10 Max=3.47D-09 NDo=     1
 Linear equations converged to 2.610D-09 2.610D-08 after     9 iterations.
 Gradient too large for Newton-Raphson -- use scaled steepest descent instead.
     Accept linear search using points  4 and  5.
 Gradient too large for Newton-Raphson -- use scaled steepest descent instead.
 LinEq1:  Iter=  0 NonCon=     1 RMS=6.73D-04 Max=5.96D-03 NDo=     1
 LinEq1:  Iter=  1 NonCon=     1 RMS=3.00D-04 Max=2.88D-03 NDo=     1
 LinEq1:  Iter=  2 NonCon=     1 RMS=3.82D-05 Max=2.97D-04 NDo=     1
 LinEq1:  Iter=  3 NonCon=     1 RMS=1.11D-05 Max=1.08D-04 NDo=     1
 LinEq1:  Iter=  4 NonCon=     1 RMS=2.13D-06 Max=1.94D-05 NDo=     1
 LinEq1:  Iter=  5 NonCon=     1 RMS=6.02D-07 Max=5.61D-06 NDo=     1
 LinEq1:  Iter=  6 NonCon=     1 RMS=1.29D-07 Max=1.14D-06 NDo=     1
 LinEq1:  Iter=  7 NonCon=     1 RMS=3.96D-08 Max=4.52D-07 NDo=     1
 LinEq1:  Iter=  8 NonCon=     1 RMS=6.41D-09 Max=4.39D-08 NDo=     1
 LinEq1:  Iter=  9 NonCon=     0 RMS=1.06D-09 Max=8.18D-09 NDo=     1
 Linear equations converged to 2.610D-09 2.610D-08 after     9 iterations.
     Minimum is close to point  3 DX= -2.72D-02 DF= -3.52D-06 DXR=  5.74D-02 DFR=  3.31D-03 which will be used.
 LinEq1:  Iter=  0 NonCon=     1 RMS=2.80D-04 Max=2.56D-03 NDo=     1
 LinEq1:  Iter=  1 NonCon=     1 RMS=9.42D-05 Max=8.81D-04 NDo=     1
 LinEq1:  Iter=  2 NonCon=     1 RMS=1.97D-05 Max=1.66D-04 NDo=     1
 LinEq1:  Iter=  3 NonCon=     1 RMS=3.62D-06 Max=2.79D-05 NDo=     1
 LinEq1:  Iter=  4 NonCon=     1 RMS=8.88D-07 Max=8.01D-06 NDo=     1
 LinEq1:  Iter=  5 NonCon=     1 RMS=1.99D-07 Max=1.96D-06 NDo=     1
 LinEq1:  Iter=  6 NonCon=     1 RMS=4.65D-08 Max=5.37D-07 NDo=     1
 LinEq1:  Iter=  7 NonCon=     1 RMS=8.09D-09 Max=5.27D-08 NDo=     1
 LinEq1:  Iter=  8 NonCon=     0 RMS=1.21D-09 Max=9.62D-09 NDo=     1
 Linear equations converged to 2.610D-09 2.610D-08 after     8 iterations.
     Accept linear search using points  1 and  2.
     Minimum is close to point  2 DX= -5.00D-02 DF= -2.04D-07 DXR=  5.27D-02 DFR=  2.88D-03 which will be used.
 LinEq1:  Iter=  0 NonCon=     1 RMS=1.15D-05 Max=1.47D-04 NDo=     1
 LinEq1:  Iter=  1 NonCon=     1 RMS=2.04D-06 Max=1.71D-05 NDo=     1
 LinEq1:  Iter=  2 NonCon=     1 RMS=3.05D-07 Max=3.58D-06 NDo=     1
 LinEq1:  Iter=  3 NonCon=     1 RMS=7.23D-08 Max=6.57D-07 NDo=     1
 LinEq1:  Iter=  4 NonCon=     1 RMS=1.78D-08 Max=1.41D-07 NDo=     1
 LinEq1:  Iter=  5 NonCon=     1 RMS=3.07D-09 Max=2.22D-08 NDo=     1
 LinEq1:  Iter=  6 NonCon=     0 RMS=6.89D-10 Max=4.92D-09 NDo=     1
 Linear equations converged to 1.378D-09 1.378D-08 after     6 iterations.
     Minimum is close to point  2 DX=  8.42D-03 DF= -2.37D-11 DXR=  8.35D-03 DFR=  6.97D-05 which will be used.
 LinEq1:  Iter=  0 NonCon=     1 RMS=2.00D-07 Max=1.34D-06 NDo=     1
 LinEq1:  Iter=  1 NonCon=     1 RMS=6.11D-08 Max=5.51D-07 NDo=     1
 LinEq1:  Iter=  2 NonCon=     1 RMS=1.39D-08 Max=9.64D-08 NDo=     1
 LinEq1:  Iter=  3 NonCon=     1 RMS=3.80D-09 Max=3.40D-08 NDo=     1
 LinEq1:  Iter=  4 NonCon=     1 RMS=6.61D-10 Max=6.79D-09 NDo=     1
 LinEq1:  Iter=  5 NonCon=     1 RMS=1.17D-10 Max=9.69D-10 NDo=     1
 LinEq1:  Iter=  6 NonCon=     0 RMS=2.53D-11 Max=1.82D-10 NDo=     1
 Linear equations converged to 3.311D-11 3.311D-10 after     6 iterations.
 SCF Done:  E(UAM1) =  0.339967020457     a.u. after    8 cycles
            Convg  =    0.3880D-07                    60 Fock formations.
              S**2 =  1.8389                  -V/T =  1.0030
 <Sx>= 0.0000 <Sy>= 0.0000 <Sz>= 0.5000 <S**2>= 1.8389 S= 0.9453
 <L.S>=  0.00000000000    
 Annihilation of the first spin contaminant:
 S**2 before annihilation     1.8389,   after     2.4215

 **********************************************************************

            Population analysis using the SCF Density.

 **********************************************************************

 Orbital symmetries:
 Alpha Orbitals:
       Occupied  (A') (A') (A') (A') (A') (A') (A') (A') (A') (A')
                 (A') (A") (A') (A") (A") (A') (A') (A') (A') (A")
                 (A') (A') (A") (A")
       Virtual   (A') (A") (A') (A") (A') (A') (A') (A") (A') (A')
                 (A') (A') (A') (A')
 Beta  Orbitals:
       Occupied  (A') (A') (A') (A') (A') (A') (A') (A') (A') (A')
                 (A') (A") (A') (A") (A") (A') (A') (A') (A') (A")
                 (A') (A") (A")
       Virtual   (A') (A") (A') (A") (A') (A') (A') (A') (A") (A')
                 (A') (A') (A') (A') (A')
 The electronic state is 2-A'.
 Alpha  occ. eigenvalues --   -1.44343  -1.38887  -1.37733  -1.35900  -1.13566
 Alpha  occ. eigenvalues --   -1.12001  -0.85501  -0.83042  -0.65230  -0.62317
 Alpha  occ. eigenvalues --   -0.60103  -0.55707  -0.54109  -0.50262  -0.47477
 Alpha  occ. eigenvalues --   -0.47085  -0.45357  -0.44720  -0.44494  -0.43998
 Alpha  occ. eigenvalues --   -0.43377  -0.40112  -0.38524  -0.36927
 Alpha virt. eigenvalues --   -0.02061  -0.00376   0.00411   0.01149   0.01771
 Alpha virt. eigenvalues --    0.02727   0.04476   0.07860   0.13032   0.13458
 Alpha virt. eigenvalues --    0.15106   0.16229   0.16589   0.17948
  Beta  occ. eigenvalues --   -1.44175  -1.38794  -1.37704  -1.35865  -1.13743
  Beta  occ. eigenvalues --   -1.11194  -0.85658  -0.82814  -0.63611  -0.62019
  Beta  occ. eigenvalues --   -0.60653  -0.55525  -0.54600  -0.49715  -0.47239
  Beta  occ. eigenvalues --   -0.46519  -0.45731  -0.44742  -0.44443  -0.43883
  Beta  occ. eigenvalues --   -0.41452  -0.38417  -0.37179
  Beta virt. eigenvalues --   -0.02677  -0.00841   0.00841   0.01178   0.01914
  Beta virt. eigenvalues --    0.02211   0.03756   0.04669   0.08016   0.13112
  Beta virt. eigenvalues --    0.13576   0.15372   0.15971   0.16595   0.18603
          Condensed to atoms (all electrons):
               1          2          3          4          5          6
     1  C    4.041347   0.000000   0.000000   0.000000   0.000000   0.000000
     2  C    0.000000   4.037301   0.000000   0.000000   0.000000   0.000000
     3  C    0.000000   0.000000   4.132213   0.000000   0.000000   0.000000
     4  C    0.000000   0.000000   0.000000   4.026252   0.000000   0.000000
     5  C    0.000000   0.000000   0.000000   0.000000   4.139722   0.000000
     6  C    0.000000   0.000000   0.000000   0.000000   0.000000   4.004819
     7  Cl   0.000000   0.000000   0.000000   0.000000   0.000000   0.000000
     8  Cl   0.000000   0.000000   0.000000   0.000000   0.000000   0.000000
     9  H    0.000000   0.000000   0.000000   0.000000   0.000000   0.000000
    10  Cl   0.000000   0.000000   0.000000   0.000000   0.000000   0.000000
    11  H    0.000000   0.000000   0.000000   0.000000   0.000000   0.000000
               7          8          9         10         11
     1  C    0.000000   0.000000   0.000000   0.000000   0.000000
     2  C    0.000000   0.000000   0.000000   0.000000   0.000000
     3  C    0.000000   0.000000   0.000000   0.000000   0.000000
     4  C    0.000000   0.000000   0.000000   0.000000   0.000000
     5  C    0.000000   0.000000   0.000000   0.000000   0.000000
     6  C    0.000000   0.000000   0.000000   0.000000   0.000000
     7  Cl   6.996375   0.000000   0.000000   0.000000   0.000000
     8  Cl   0.000000   7.002318   0.000000   0.000000   0.000000
     9  H    0.000000   0.000000   0.793429   0.000000   0.000000
    10  Cl   0.000000   0.000000   0.000000   7.022415   0.000000
    11  H    0.000000   0.000000   0.000000   0.000000   0.803809
          Atomic-Atomic Spin Densities.
               1          2          3          4          5          6
     1  C   -0.565675   0.000000   0.000000   0.000000   0.000000   0.000000
     2  C    0.000000   0.558177   0.000000   0.000000   0.000000   0.000000
     3  C    0.000000   0.000000  -0.931885   0.000000   0.000000   0.000000
     4  C    0.000000   0.000000   0.000000   0.575897   0.000000   0.000000
     5  C    0.000000   0.000000   0.000000   0.000000  -0.964024   0.000000
     6  C    0.000000   0.000000   0.000000   0.000000   0.000000   1.479672
     7  Cl   0.000000   0.000000   0.000000   0.000000   0.000000   0.000000
     8  Cl   0.000000   0.000000   0.000000   0.000000   0.000000   0.000000
     9  H    0.000000   0.000000   0.000000   0.000000   0.000000   0.000000
    10  Cl   0.000000   0.000000   0.000000   0.000000   0.000000   0.000000
    11  H    0.000000   0.000000   0.000000   0.000000   0.000000   0.000000
               7          8          9         10         11
     1  C    0.000000   0.000000   0.000000   0.000000   0.000000
     2  C    0.000000   0.000000   0.000000   0.000000   0.000000
     3  C    0.000000   0.000000   0.000000   0.000000   0.000000
     4  C    0.000000   0.000000   0.000000   0.000000   0.000000
     5  C    0.000000   0.000000   0.000000   0.000000   0.000000
     6  C    0.000000   0.000000   0.000000   0.000000   0.000000
     7  Cl   0.004051   0.000000   0.000000   0.000000   0.000000
     8  Cl   0.000000   0.001672   0.000000   0.000000   0.000000
     9  H    0.000000   0.000000   0.411943   0.000000   0.000000
    10  Cl   0.000000   0.000000   0.000000  -0.001323   0.000000
    11  H    0.000000   0.000000   0.000000   0.000000   0.431496
 Mulliken charges and spin densities:
               1          2
     1  C   -0.041347  -0.565675
     2  C   -0.037301   0.558177
     3  C   -0.132213  -0.931885
     4  C   -0.026252   0.575897
     5  C   -0.139722  -0.964024
     6  C   -0.004819   1.479672
     7  Cl   0.003625   0.004051
     8  Cl  -0.002318   0.001672
     9  H    0.206571   0.411943
    10  Cl  -0.022415  -0.001323
    11  H    0.196191   0.431496
 Sum of Mulliken charges =  -0.00000   1.00000
 Mulliken charges and spin densities with hydrogens summed into heavy atoms:
               1          2
     1  C   -0.041347  -0.565675
     2  C   -0.037301   0.558177
     3  C    0.074358  -0.519941
     4  C   -0.026252   0.575897
     5  C    0.056469  -0.532528
     6  C   -0.004819   1.479672
     7  Cl   0.003625   0.004051
     8  Cl  -0.002318   0.001672
    10  Cl  -0.022415  -0.001323
 Charge=             -0.0000 electrons
 Dipole moment (field-independent basis, Debye):
    X=              0.0663    Y=              1.7889    Z=              0.0000  Tot=              1.7901
 N-N= 2.392473858783D+02 E-N=-3.318269822332D+02  KE=-1.118233996871D+02
 Symmetry A'   KE=-8.584003668146D+01
 Symmetry A"   KE=-2.598336300564D+01
 Symmetry A'   SP= 1.000000000000D+00
 Symmetry A"   SP= 1.332267629550D-15
 Calling FoFJK, ICntrl=      2127 FMM=F ISym2X=1 I1Cent= 0 IOpClX= 1 NMat=1 NMatS=1 NMatT=0.
 ***** Axes restored to original set *****
 -------------------------------------------------------------------
 Center     Atomic                   Forces (Hartrees/Bohr)
 Number     Number              X              Y              Z
 -------------------------------------------------------------------
      1        6          -0.051257081   -0.003355649    0.000000000
      2        6           0.019496139    0.030321223    0.000000000
      3        6           0.055750553    0.034773876    0.000000000
      4        6           0.023143722   -0.012726939    0.000000000
      5        6          -0.028603481   -0.066956660    0.000000000
      6        6           0.067645384    0.013714428   -0.000000000
      7       17           0.033929768   -0.021001698   -0.000000000
      8       17           0.003596852   -0.040162087    0.000000000
      9        1          -0.085900645   -0.052702010   -0.000000000
     10       17          -0.035065138    0.018802680    0.000000000
     11        1          -0.002736073    0.099292837   -0.000000000
 -------------------------------------------------------------------
 Cartesian Forces:  Max     0.099292837 RMS     0.036449478

 GradGradGradGradGradGradGradGradGradGradGradGradGradGradGradGradGradGrad
 Berny optimization.
 FormGI is forming the generalized inverse of G from B-inverse, IUseBI=4.
 Internal  Forces:  Max     0.100779049 RMS     0.025847209
 Search for a local minimum.
 Step number   1 out of a maximum of   57
 All quantities printed in internal units (Hartrees-Bohrs-Radians)
 Mixed Optimization -- RFO/linear search
 Second derivative matrix not updated -- first step.
 ITU=  0
     Eigenvalues ---    0.02011   0.02011   0.02011   0.02011   0.02011
     Eigenvalues ---    0.02011   0.02011   0.02011   0.06524   0.06524
     Eigenvalues ---    0.16000   0.16000   0.23314   0.23491   0.25000
     Eigenvalues ---    0.25000   0.25000   0.25000   0.29033   0.29033
     Eigenvalues ---    0.29033   0.41085   0.41442   0.44656   0.44657
     Eigenvalues ---    0.44657   0.44657
 RFO step:  Lambda=-1.27818869D-01 EMin= 2.01065650D-02
 Linear search not attempted -- first point.
 Maximum step size (   0.300) exceeded in Quadratic search.
    -- Step size scaled by   0.391
 Iteration  1 RMS(Cart)=  0.04743888 RMS(Int)=  0.00060062
 Iteration  2 RMS(Cart)=  0.00059447 RMS(Int)=  0.00001935
 Iteration  3 RMS(Cart)=  0.00000004 RMS(Int)=  0.00001935
 ClnCor:  largest displacement from symmetrization is 4.11D-11 for atom     9.
 Variable       Old X    -DE/DX   Delta X   Delta X   Delta X     New X
                                 (Linear)    (Quad)   (Total)
    R1        2.65676  -0.00220   0.00000  -0.00102  -0.00102   2.65575
    R2        2.65677  -0.02984   0.00000  -0.02036  -0.02033   2.63644
    R3        3.33635  -0.03984   0.00000  -0.03722  -0.03722   3.29913
    R4        2.65677  -0.02123   0.00000  -0.01390  -0.01392   2.64284
    R5        3.33634  -0.04025   0.00000  -0.03760  -0.03760   3.29874
    R6        2.65677  -0.02160   0.00000  -0.01463  -0.01466   2.64211
    R7        3.33633  -0.10078   0.00000  -0.20393  -0.20393   3.13241
    R8        2.65678  -0.02532   0.00000  -0.01770  -0.01771   2.63907
    R9        3.33633  -0.03979   0.00000  -0.03717  -0.03717   3.29916
   R10        2.65675  -0.05308   0.00000  -0.03664  -0.03662   2.62013
   R11        3.33632  -0.09933   0.00000  -0.20099  -0.20099   3.13533
    A1        2.09439  -0.01693   0.00000  -0.01687  -0.01684   2.07755
    A2        2.09439   0.01233   0.00000   0.01243   0.01242   2.10681
    A3        2.09440   0.00460   0.00000   0.00444   0.00442   2.09882
    A4        2.09439  -0.00679   0.00000  -0.00545  -0.00547   2.08892
    A5        2.09440   0.00755   0.00000   0.00702   0.00704   2.10143
    A6        2.09439  -0.00076   0.00000  -0.00158  -0.00156   2.09283
    A7        2.09440   0.00840   0.00000   0.01043   0.01038   2.10477
    A8        2.09440  -0.00433   0.00000  -0.00539  -0.00536   2.08903
    A9        2.09439  -0.00407   0.00000  -0.00504  -0.00501   2.08938
   A10        2.09439  -0.00695   0.00000  -0.00785  -0.00789   2.08650
   A11        2.09440   0.00374   0.00000   0.00420   0.00421   2.09861
   A12        2.09440   0.00322   0.00000   0.00366   0.00367   2.09807
   A13        2.09439  -0.00159   0.00000  -0.00352  -0.00350   2.09089
   A14        2.09439   0.00081   0.00000   0.00178   0.00177   2.09616
   A15        2.09440   0.00078   0.00000   0.00174   0.00173   2.09613
   A16        2.09440   0.02386   0.00000   0.02326   0.02333   2.11773
    D1        0.00000  -0.00000   0.00000  -0.00000   0.00000   0.00000
    D2        3.14159  -0.00000   0.00000  -0.00000   0.00000   3.14159
    D3        3.14159   0.00000   0.00000   0.00000   0.00000   3.14159
    D4        0.00000   0.00000   0.00000   0.00000   0.00000   0.00000
    D5        0.00000   0.00000   0.00000   0.00000   0.00000   0.00000
    D6        3.14159  -0.00000   0.00000   0.00000   0.00000   3.14159
    D7        0.00000  -0.00000   0.00000  -0.00000   0.00000   0.00000
    D8        3.14159  -0.00000   0.00000  -0.00000   0.00000   3.14159
    D9        3.14159  -0.00000   0.00000  -0.00000   0.00000   3.14159
   D10        0.00000  -0.00000   0.00000  -0.00000   0.00000   0.00000
   D11        0.00000   0.00000   0.00000   0.00000   0.00000   0.00000
   D12        3.14159   0.00000   0.00000   0.00000   0.00000   3.14159
   D13        3.14159   0.00000   0.00000   0.00000   0.00000   3.14159
   D14        0.00000   0.00000   0.00000   0.00000   0.00000   0.00000
   D15        0.00000  -0.00000   0.00000  -0.00000   0.00000   0.00000
   D16        3.14159  -0.00000   0.00000  -0.00000   0.00000   3.14159
   D17        3.14159   0.00000   0.00000   0.00000   0.00000   3.14159
   D18        0.00000  -0.00000   0.00000  -0.00000   0.00000   0.00000
   D19        0.00000  -0.00000   0.00000  -0.00000   0.00000   0.00000
   D20        3.14159   0.00000   0.00000   0.00000   0.00000   3.14159
         Item               Value     Threshold  Converged?
 Maximum Force            0.100779     0.000450     NO 
 RMS     Force            0.025847     0.000300     NO 
 Maximum Displacement     0.216359     0.001800     NO 
 RMS     Displacement     0.047930     0.001200     NO 
 Predicted change in Energy=-4.593155D-02
 GradGradGradGradGradGradGradGradGradGradGradGradGradGradGradGradGradGrad

                          Input orientation:                          
 ---------------------------------------------------------------------
 Center     Atomic      Atomic             Coordinates (Angstroms)
 Number     Number       Type             X           Y           Z
 ---------------------------------------------------------------------
      1          6           0       -3.199811    0.195235    0.000000
      2          6           0       -2.002288    0.930745    0.000000
      3          6           0       -0.776224    0.257944    0.000000
      4          6           0       -0.731360   -1.139481    0.000000
      5          6           0       -1.923546   -1.866811    0.000000
      6          6           0       -3.138395   -1.198556    0.000000
      7         17           0       -4.745122    1.007591    0.000000
      8         17           0       -2.037464    2.676009    0.000000
      9          1           0        0.636332    1.125305    0.000000
     10         17           0        0.804325   -1.969923    0.000000
     11          1           0       -1.886318   -3.525538    0.000000
 ---------------------------------------------------------------------
                    Distance matrix (angstroms):
                    1          2          3          4          5
     1  C    0.000000
     2  C    1.405360   0.000000
     3  C    2.424398   1.398532   0.000000
     4  C    2.806193   2.429216   1.398145   0.000000
     5  C    2.425054   2.798664   2.414732   1.396537   0.000000
     6  C    1.395143   2.413433   2.775111   2.407760   1.386515
     7  Cl   1.745826   2.743910   4.039074   4.551945   4.027839
     8  Cl   2.739579   1.745619   2.727227   4.032849   4.544249
     9  H    3.947281   2.645784   1.657598   2.645721   3.937732
    10  Cl   4.552034   4.036204   2.731579   1.745841   2.729819
    11  H    3.945810   4.457791   3.942974   2.650886   1.659144
                    6          7          8          9         10
     6  C    0.000000
     7  Cl   2.729223   0.000000
     8  Cl   4.027940   3.180413   0.000000
     9  H    4.432707   5.382742   3.090934   0.000000
    10  Cl   4.017468   6.297773   5.446140   3.099783   0.000000
    11  H    2.642450   5.359292   6.203388   5.290946   3.107974
                   11
    11  H    0.000000
 Stoichiometry    C6H2Cl3(2)
 Framework group  CS[SG(C6H2Cl3)]
 Deg. of freedom    19
 Full point group                 CS      NOp   2
 Largest Abelian subgroup         CS      NOp   2
 Largest concise Abelian subgroup C1      NOp   1
                         Standard orientation:                         
 ---------------------------------------------------------------------
 Center     Atomic      Atomic             Coordinates (Angstroms)
 Number     Number       Type             X           Y           Z
 ---------------------------------------------------------------------
      1          6           0        1.242230   -0.165058   -0.000000
      2          6           0        0.000000   -0.822249    0.000000
      3          6           0       -1.180389   -0.072199    0.000000
      4          6           0       -1.135536    1.325226    0.000000
      5          6           0        0.100843    1.974597   -0.000000
      6          6           0        1.270332    1.229802   -0.000000
      7         17           0        2.732258   -1.074851   -0.000000
      8         17           0       -0.076830   -2.566177    0.000000
      9          1           0       -2.645666   -0.847180    0.000000
     10         17           0       -2.614798    2.252450    0.000000
     11          1           0        0.170076    3.632296   -0.000000
 ---------------------------------------------------------------------
 Rotational constants (GHZ):           1.8738632           0.5846402           0.4456109
 Standard basis: VSTO-6G (5D, 7F)
 There are    29 symmetry adapted cartesian basis functions of A'  symmetry.
 There are     9 symmetry adapted cartesian basis functions of A"  symmetry.
 There are    29 symmetry adapted basis functions of A'  symmetry.
 There are     9 symmetry adapted basis functions of A"  symmetry.
    38 basis functions,   228 primitive gaussians,    38 cartesian basis functions
    24 alpha electrons       23 beta electrons
       nuclear repulsion energy       240.5797068660 Hartrees.
 Integral buffers will be    131072 words long.
 Regular integral format.
 Two-electron integral symmetry is turned off.
 Do NDO integrals.
 One-electron integrals computed using PRISM.
 NBasis=    38 RedAO= T EigKep=  1.00D+00  NBF=    29     9
 NBsUse=    38 1.00D-06 EigRej= -1.00D+00 NBFU=    29     9
 Initial guess from the checkpoint file:  "geometry_chks/1235-_235-ClBzNeutralRadical.chk"
 B after Tr=    -0.000000    0.000000   -0.000000
         Rot=    0.874809    0.000000   -0.000000   -0.484467 Ang= -57.96 deg.
 Initial guess orbital symmetries:
 Alpha Orbitals:
       Occupied  (A') (A') (A') (A') (A') (A') (A') (A') (A') (A')
                 (A') (A") (A') (A") (A") (A') (A') (A') (A') (A")
                 (A') (A') (A") (A")
       Virtual   (A') (A") (A') (A") (A') (A') (A') (A") (A') (A')
                 (A') (A') (A') (A')
 Beta  Orbitals:
       Occupied  (A') (A') (A') (A') (A') (A') (A') (A') (A') (A')
                 (A') (A") (A') (A") (A") (A') (A') (A') (A') (A")
                 (A') (A") (A")
       Virtual   (A') (A") (A') (A") (A') (A') (A') (A') (A") (A')
                 (A') (A') (A') (A') (A')
 Initial guess <Sx>= 0.0000 <Sy>= 0.0000 <Sz>= 0.5000 <S**2>= 1.8389 S= 0.9453
 Keep J ints in memory in canonical form, NReq=863588.
 Overlap will be assumed to be unity.
 Requested convergence on RMS density matrix=1.00D-08 within  32 cycles.
 Requested convergence on MAX density matrix=1.00D-06.
 Requested convergence on             energy=1.00D-06.
 No special actions if energy rises.
 Fock symm off for IB=2 I1=    1 I=   30 J=   22 Cut=1.00D-07 Err=4.64D-03
 Fock matrix is not symmetric: symmetry in diagonalization turned off.
 SCF Done:  E(UAM1) =  0.287253357023     A.U. after   20 cycles
            NFock= 19  Conv=0.54D-08     -V/T= 1.0026
 <Sx>= 0.0000 <Sy>= 0.0000 <Sz>= 0.5000 <S**2>= 1.4021 S= 0.7853
 <L.S>=  0.00000000000    
 Annihilation of the first spin contaminant:
 S**2 before annihilation     1.4021,   after     1.2029
 QCSCF skips out because SCF is already converged.
 Calling FoFJK, ICntrl=      2127 FMM=F ISym2X=1 I1Cent= 0 IOpClX= 1 NMat=1 NMatS=1 NMatT=0.
 ***** Axes restored to original set *****
 -------------------------------------------------------------------
 Center     Atomic                   Forces (Hartrees/Bohr)
 Number     Number              X              Y              Z
 -------------------------------------------------------------------
      1        6          -0.046652292    0.001434701    0.000000000
      2        6           0.014921804    0.026897771   -0.000000000
      3        6           0.082699735    0.052417294    0.000000000
      4        6           0.023904854   -0.010169791   -0.000000000
      5        6          -0.021398528   -0.105182235    0.000000000
      6        6           0.047069827    0.011286998   -0.000000000
      7       17           0.026725256   -0.015822067   -0.000000000
      8       17           0.002410876   -0.030463357    0.000000000
      9        1          -0.100754718   -0.061627498   -0.000000000
     10       17          -0.026154107    0.014162737    0.000000000
     11        1          -0.002772706    0.117065445   -0.000000000
 -------------------------------------------------------------------
 Cartesian Forces:  Max     0.117065445 RMS     0.041813072

 GradGradGradGradGradGradGradGradGradGradGradGradGradGradGradGradGradGrad
 Berny optimization.
 Using GEDIIS/GDIIS optimizer.
 FormGI is forming the generalized inverse of G from B-inverse, IUseBI=4.
 Internal  Forces:  Max     0.118107663 RMS     0.026489158
 Search for a local minimum.
 Step number   2 out of a maximum of   57
 All quantities printed in internal units (Hartrees-Bohrs-Radians)
 Mixed Optimization -- RFO/linear search
 Update second derivatives using D2CorX and points    1    2
 DE= -5.27D-02 DEPred=-4.59D-02 R= 1.15D+00
 TightC=F SS=  1.41D+00  RLast= 3.00D-01 DXNew= 5.0454D-01 9.0000D-01
 Trust test= 1.15D+00 RLast= 3.00D-01 DXMaxT set to 5.05D-01
 ITU=  1  0
 Use linear search instead of GDIIS.
     Eigenvalues ---   -0.25497   0.02011   0.02011   0.02011   0.02011
     Eigenvalues ---    0.02011   0.02011   0.02011   0.02011   0.04949
     Eigenvalues ---    0.06539   0.16000   0.16001   0.23261   0.23727
     Eigenvalues ---    0.24978   0.25000   0.25000   0.25225   0.29028
     Eigenvalues ---    0.29033   0.34068   0.41286   0.41631   0.44563
     Eigenvalues ---    0.44656   0.44657
 RFO step:  Lambda=-2.90809913D-01 EMin=-2.54973914D-01
 Skip linear search -- no minimum in search direction.
 Maximum step size (   0.505) exceeded in Quadratic search.
    -- Step size scaled by   0.457
 Iteration  1 RMS(Cart)=  0.03833358 RMS(Int)=  0.02949154
 Iteration  2 RMS(Cart)=  0.02880540 RMS(Int)=  0.00005126
 Iteration  3 RMS(Cart)=  0.00001072 RMS(Int)=  0.00005090
 Iteration  4 RMS(Cart)=  0.00000000 RMS(Int)=  0.00005090
 ClnCor:  largest displacement from symmetrization is 6.34D-10 for atom    11.
 Variable       Old X    -DE/DX   Delta X   Delta X   Delta X     New X
                                 (Linear)    (Quad)   (Total)
    R1        2.65575   0.00319   0.00000   0.02793   0.02785   2.68360
    R2        2.63644  -0.01679   0.00000   0.04689   0.04688   2.68332
    R3        3.29913  -0.03102   0.00000   0.01765   0.01765   3.31678
    R4        2.64284  -0.01052   0.00000   0.04132   0.04126   2.68410
    R5        3.29874  -0.03051   0.00000   0.02371   0.02371   3.32246
    R6        2.64211  -0.00952   0.00000   0.04969   0.04970   2.69181
    R7        3.13241  -0.11811   0.00000  -0.34171  -0.34171   2.79069
    R8        2.63907  -0.01032   0.00000   0.06349   0.06357   2.70264
    R9        3.29916  -0.02974   0.00000   0.02639   0.02639   3.32555
   R10        2.62013  -0.03167   0.00000   0.07429   0.07435   2.69449
   R11        3.13533  -0.11710   0.00000  -0.34413  -0.34413   2.79119
    A1        2.07755  -0.01419   0.00000  -0.00104  -0.00114   2.07641
    A2        2.10681   0.00968   0.00000  -0.00451  -0.00446   2.10236
    A3        2.09882   0.00450   0.00000   0.00555   0.00560   2.10442
    A4        2.08892  -0.00413   0.00000   0.01027   0.01012   2.09904
    A5        2.10143   0.00503   0.00000  -0.00919  -0.00911   2.09232
    A6        2.09283  -0.00090   0.00000  -0.00108  -0.00100   2.09183
    A7        2.10477   0.00677   0.00000  -0.00238  -0.00243   2.10234
    A8        2.08903  -0.00370   0.00000  -0.00068  -0.00065   2.08838
    A9        2.08938  -0.00306   0.00000   0.00306   0.00308   2.09246
   A10        2.08650  -0.00518   0.00000   0.00706   0.00715   2.09365
   A11        2.09861   0.00256   0.00000  -0.00540  -0.00545   2.09317
   A12        2.09807   0.00262   0.00000  -0.00166  -0.00170   2.09636
   A13        2.09089  -0.00430   0.00000  -0.02134  -0.02119   2.06970
   A14        2.09616   0.00238   0.00000   0.01258   0.01251   2.10866
   A15        2.09613   0.00192   0.00000   0.00876   0.00869   2.10482
   A16        2.11773   0.02102   0.00000   0.00743   0.00750   2.12523
    D1       -0.00000  -0.00000   0.00000   0.00000   0.00000   0.00000
    D2        3.14159  -0.00000   0.00000   0.00000   0.00000   3.14159
    D3        3.14159   0.00000   0.00000   0.00000   0.00000   3.14159
    D4        0.00000   0.00000   0.00000   0.00000  -0.00000   0.00000
    D5        0.00000   0.00000   0.00000  -0.00000  -0.00000   0.00000
    D6        3.14159  -0.00000   0.00000  -0.00000   0.00000   3.14159
    D7        0.00000  -0.00000   0.00000   0.00000  -0.00000   0.00000
    D8        3.14159  -0.00000   0.00000  -0.00000   0.00000   3.14159
    D9        3.14159   0.00000   0.00000   0.00000   0.00000   3.14159
   D10        0.00000  -0.00000   0.00000  -0.00000   0.00000   0.00000
   D11       -0.00000   0.00000   0.00000  -0.00000   0.00000   0.00000
   D12        3.14159   0.00000   0.00000  -0.00000   0.00000   3.14159
   D13        3.14159   0.00000   0.00000   0.00000   0.00000   3.14159
   D14       -0.00000   0.00000   0.00000   0.00000   0.00000   0.00000
   D15        0.00000   0.00000   0.00000   0.00000  -0.00000   0.00000
   D16        3.14159  -0.00000   0.00000   0.00000   0.00000   3.14159
   D17        3.14159   0.00000   0.00000  -0.00000   0.00000   3.14159
   D18        0.00000  -0.00000   0.00000  -0.00000  -0.00000   0.00000
   D19       -0.00000  -0.00000   0.00000  -0.00000   0.00000   0.00000
   D20        3.14159   0.00000   0.00000  -0.00000   0.00000   3.14159
         Item               Value     Threshold  Converged?
 Maximum Force            0.118108     0.000450     NO 
 RMS     Force            0.026489     0.000300     NO 
 Maximum Displacement     0.245693     0.001800     NO 
 RMS     Displacement     0.062241     0.001200     NO 
 Predicted change in Energy=-9.965081D-02
 GradGradGradGradGradGradGradGradGradGradGradGradGradGradGradGradGradGrad

                          Input orientation:                          
 ---------------------------------------------------------------------
 Center     Atomic      Atomic             Coordinates (Angstroms)
 Number     Number       Type             X           Y           Z
 ---------------------------------------------------------------------
      1          6           0       -3.207394    0.201038   -0.000000
      2          6           0       -1.993808    0.938526    0.000000
      3          6           0       -0.744944    0.261936    0.000000
      4          6           0       -0.695036   -1.161636    0.000000
      5          6           0       -1.908353   -1.918783   -0.000000
      6          6           0       -3.149978   -1.217750   -0.000000
      7         17           0       -4.753400    1.031985   -0.000000
      8         17           0       -2.036936    2.696165    0.000000
      9          1           0        0.508832    1.042255    0.000000
     10         17           0        0.859908   -1.985692    0.000000
     11          1           0       -1.878760   -3.395523   -0.000000
 ---------------------------------------------------------------------
                    Distance matrix (angstroms):
                    1          2          3          4          5
     1  C    0.000000
     2  C    1.420099   0.000000
     3  C    2.463203   1.420364   0.000000
     4  C    2.858116   2.469309   1.424447   0.000000
     5  C    2.486192   2.858586   2.471650   1.430178   0.000000
     6  C    1.419950   2.446682   2.823767   2.455583   1.425861
     7  Cl   1.755166   2.761175   4.081751   4.613274   4.098942
     8  Cl   2.756017   1.758168   2.755851   4.084523   4.616739
     9  H    3.810247   2.504788   1.476771   2.511262   3.822372
    10  Cl   4.617872   4.085920   2.761771   1.759807   2.769070
    11  H    3.834126   4.335575   3.829170   2.528132   1.477036
                    6          7          8          9         10
     6  C    0.000000
     7  Cl   2.762656   0.000000
     8  Cl   4.069102   3.185698   0.000000
     9  H    4.300525   5.262242   3.035845   0.000000
    10  Cl   4.082760   6.373037   5.505587   3.048231   0.000000
    11  H    2.521644   5.278862   6.093741   5.039292   3.080248
                   11
    11  H    0.000000
 Stoichiometry    C6H2Cl3(2)
 Framework group  CS[SG(C6H2Cl3)]
 Deg. of freedom    19
 Full point group                 CS      NOp   2
 Largest Abelian subgroup         CS      NOp   2
 Largest concise Abelian subgroup C1      NOp   1
                         Standard orientation:                         
 ---------------------------------------------------------------------
 Center     Atomic      Atomic             Coordinates (Angstroms)
 Number     Number       Type             X           Y           Z
 ---------------------------------------------------------------------
      1          6           0        1.261328   -0.176892    0.000000
      2          6           0        0.000000   -0.829373   -0.000000
      3          6           0       -1.199497   -0.068690   -0.000000
      4          6           0       -1.151613    1.354951   -0.000000
      5          6           0        0.110794    2.027065    0.000000
      6          6           0        1.301394    1.242493    0.000000
      7         17           0        2.746677   -1.111956    0.000000
      8         17           0       -0.077569   -2.585830   -0.000000
      9          1           0       -2.503859   -0.761145   -0.000000
     10         17           0       -2.646353    2.283754   -0.000000
     11          1           0        0.182594    3.502355    0.000000
 ---------------------------------------------------------------------
 Rotational constants (GHZ):           1.8548079           0.5701784           0.4361144
 Standard basis: VSTO-6G (5D, 7F)
 There are    29 symmetry adapted cartesian basis functions of A'  symmetry.
 There are     9 symmetry adapted cartesian basis functions of A"  symmetry.
 There are    29 symmetry adapted basis functions of A'  symmetry.
 There are     9 symmetry adapted basis functions of A"  symmetry.
    38 basis functions,   228 primitive gaussians,    38 cartesian basis functions
    24 alpha electrons       23 beta electrons
       nuclear repulsion energy       239.3473197441 Hartrees.
 Integral buffers will be    131072 words long.
 Regular integral format.
 Two-electron integral symmetry is turned off.
 Do NDO integrals.
 One-electron integrals computed using PRISM.
 NBasis=    38 RedAO= T EigKep=  1.00D+00  NBF=    29     9
 NBsUse=    38 1.00D-06 EigRej= -1.00D+00 NBFU=    29     9
 Initial guess from the checkpoint file:  "geometry_chks/1235-_235-ClBzNeutralRadical.chk"
 B after Tr=    -0.000000   -0.000000   -0.000000
         Rot=    0.999998    0.000000   -0.000000    0.001948 Ang=   0.22 deg.
 Initial guess orbital symmetries:
 Alpha Orbitals:
       Occupied  (A') (A') (A') (A') (A') (A') (A') (A') (A') (A')
                 (A') (A") (A') (A") (A") (A') (A') (A') (A') (A")
                 (A') (A') (A") (A")
       Virtual   (A") (A') (A") (A') (A') (A') (A') (A") (A') (A')
                 (A') (A') (A') (A')
 Beta  Orbitals:
       Occupied  (A') (A') (A') (A') (A') (A') (A') (A') (A') (A')
                 (A') (A") (A') (A") (A") (A') (A') (A') (A') (A")
                 (A') (A") (A")
       Virtual   (A') (A") (A') (A") (A') (A') (A') (A') (A") (A')
                 (A') (A') (A') (A') (A')
 Initial guess <Sx>= 0.0000 <Sy>= 0.0000 <Sz>= 0.5000 <S**2>= 1.4021 S= 0.7853
 Keep J ints in memory in canonical form, NReq=863588.
 Overlap will be assumed to be unity.
 Requested convergence on RMS density matrix=1.00D-08 within  32 cycles.
 Requested convergence on MAX density matrix=1.00D-06.
 Requested convergence on             energy=1.00D-06.
 No special actions if energy rises.
 Fock symm off for IB=2 I1=    1 I=   30 J=   15 Cut=1.00D-07 Err=3.83D-03
 Fock matrix is not symmetric: symmetry in diagonalization turned off.
 SCF Done:  E(UAM1) =  0.217167596267     A.U. after   19 cycles
            NFock= 18  Conv=0.46D-08     -V/T= 1.0019
 <Sx>= 0.0000 <Sy>= 0.0000 <Sz>= 0.5000 <S**2>= 1.4584 S= 0.8071
 <L.S>=  0.00000000000    
 Annihilation of the first spin contaminant:
 S**2 before annihilation     1.4584,   after     1.2299
 QCSCF skips out because SCF is already converged.
 Calling FoFJK, ICntrl=      2127 FMM=F ISym2X=1 I1Cent= 0 IOpClX= 1 NMat=1 NMatS=1 NMatT=0.
 ***** Axes restored to original set *****
 -------------------------------------------------------------------
 Center     Atomic                   Forces (Hartrees/Bohr)
 Number     Number              X              Y              Z
 -------------------------------------------------------------------
      1        6          -0.028124115   -0.014355518    0.000000000
      2        6           0.015171034    0.008086386    0.000000000
      3        6           0.064788514    0.036637557    0.000000000
      4        6          -0.005829427   -0.000646735    0.000000000
      5        6          -0.021332171   -0.069588149    0.000000000
      6        6           0.076614008    0.023638323   -0.000000000
      7       17           0.032821253   -0.020299232    0.000000000
      8       17           0.003315047   -0.038299560   -0.000000000
      9        1          -0.099378610   -0.061764728   -0.000000000
     10       17          -0.035530412    0.018408880   -0.000000000
     11        1          -0.002515121    0.118182775   -0.000000000
 -------------------------------------------------------------------
 Cartesian Forces:  Max     0.118182775 RMS     0.039245084

 GradGradGradGradGradGradGradGradGradGradGradGradGradGradGradGradGradGrad
 Berny optimization.
 Using GEDIIS/GDIIS optimizer.
 FormGI is forming the generalized inverse of G from B-inverse, IUseBI=4.
 Internal  Forces:  Max     0.118209444 RMS     0.031283017
 Search for a local minimum.
 Step number   3 out of a maximum of   57
 All quantities printed in internal units (Hartrees-Bohrs-Radians)
 Mixed Optimization -- RFO/linear search
 Update second derivatives using D2CorX and points    2    3
 DE= -7.01D-02 DEPred=-9.97D-02 R= 7.03D-01
 TightC=F SS=  1.41D+00  RLast= 5.05D-01 DXNew= 8.4853D-01 1.5136D+00
 Trust test= 7.03D-01 RLast= 5.05D-01 DXMaxT set to 8.49D-01
 ITU=  1  1  0
 Use linear search instead of GDIIS.
     Eigenvalues ---    0.00576   0.02011   0.02011   0.02011   0.02011
     Eigenvalues ---    0.02011   0.02011   0.02011   0.02011   0.06514
     Eigenvalues ---    0.15997   0.16000   0.18176   0.23283   0.24365
     Eigenvalues ---    0.25000   0.25000   0.25020   0.26806   0.29031
     Eigenvalues ---    0.29048   0.40064   0.41386   0.44019   0.44652
     Eigenvalues ---    0.44656   0.82415
 RFO step:  Lambda=-1.44392835D-01 EMin= 5.75834038D-03
 Quartic linear search produced a step of  1.57591.
 Iteration  1 RMS(Cart)=  0.06793360 RMS(Int)=  0.13897318
 Iteration  2 RMS(Cart)=  0.04072351 RMS(Int)=  0.09771202
 Iteration  3 RMS(Cart)=  0.04036854 RMS(Int)=  0.05645697
 Iteration  4 RMS(Cart)=  0.04037051 RMS(Int)=  0.01521155
 Iteration  5 RMS(Cart)=  0.01487955 RMS(Int)=  0.00034891
 Iteration  6 RMS(Cart)=  0.00000137 RMS(Int)=  0.00034891
 Iteration  7 RMS(Cart)=  0.00000000 RMS(Int)=  0.00034891
 ClnCor:  largest displacement from symmetrization is 2.15D-08 for atom     8.
 Variable       Old X    -DE/DX   Delta X   Delta X   Delta X     New X
                                 (Linear)    (Quad)   (Total)
    R1        2.68360  -0.02157   0.04389  -0.02039   0.02350   2.70710
    R2        2.68332  -0.04883   0.07387  -0.12014  -0.04576   2.63756
    R3        3.31678  -0.03852   0.02781  -0.17623  -0.14841   3.16837
    R4        2.68410  -0.03799   0.06501  -0.08675  -0.02222   2.66188
    R5        3.32246  -0.03837   0.03737  -0.18096  -0.14359   3.17887
    R6        2.69181  -0.04063   0.07833  -0.09438  -0.01654   2.67527
    R7        2.79069  -0.11701  -0.53851  -0.33803  -0.87654   1.91415
    R8        2.70264  -0.04703   0.10018  -0.11523  -0.01505   2.68759
    R9        3.32555  -0.04001   0.04159  -0.18114  -0.13955   3.18600
   R10        2.69449  -0.06924   0.11718  -0.20825  -0.09058   2.60390
   R11        2.79119  -0.11821  -0.54232  -0.32739  -0.86971   1.92148
    A1        2.07641  -0.01319  -0.00180  -0.07132  -0.07268   2.00373
    A2        2.10236   0.01048  -0.00702   0.05613   0.04888   2.15124
    A3        2.10442   0.00271   0.00883   0.01519   0.02380   2.12822
    A4        2.09904  -0.00584   0.01594  -0.02895  -0.01355   2.08548
    A5        2.09232   0.00687  -0.01436   0.03562   0.02153   2.11385
    A6        2.09183  -0.00102  -0.00158  -0.00667  -0.00798   2.08385
    A7        2.10234   0.00195  -0.00383   0.04352   0.03865   2.14099
    A8        2.08838  -0.00108  -0.00102  -0.02107  -0.02158   2.06681
    A9        2.09246  -0.00087   0.00486  -0.02245  -0.01708   2.07539
   A10        2.09365   0.00011   0.01127  -0.03681  -0.02611   2.06754
   A11        2.09317   0.00056  -0.00859   0.02080   0.01250   2.10567
   A12        2.09636  -0.00067  -0.00269   0.01601   0.01361   2.10997
   A13        2.06970  -0.00361  -0.03340  -0.00336  -0.03634   2.03336
   A14        2.10866   0.00201   0.01971   0.00043   0.01993   2.12859
   A15        2.10482   0.00160   0.01369   0.00293   0.01641   2.12123
   A16        2.12523   0.02058   0.01182   0.09692   0.11003   2.23526
    D1        0.00000  -0.00000   0.00000  -0.00000  -0.00000   0.00000
    D2        3.14159  -0.00000   0.00000  -0.00000   0.00000   3.14159
    D3        3.14159   0.00000   0.00000   0.00000   0.00000   3.14159
    D4        0.00000  -0.00000   0.00000  -0.00000   0.00000   0.00000
    D5        0.00000   0.00000   0.00000   0.00000   0.00000   0.00000
    D6        3.14159  -0.00000   0.00000   0.00000   0.00000   3.14159
    D7       -0.00000  -0.00000   0.00000  -0.00000   0.00000   0.00000
    D8        3.14159  -0.00000   0.00000  -0.00000   0.00000   3.14159
    D9        3.14159   0.00000   0.00000  -0.00000   0.00000   3.14159
   D10       -0.00000  -0.00000   0.00000   0.00000   0.00000   0.00000
   D11        0.00000   0.00000   0.00000   0.00000  -0.00000   0.00000
   D12        3.14159  -0.00000   0.00000   0.00000   0.00000   3.14159
   D13        3.14159   0.00000   0.00000   0.00000   0.00000   3.14159
   D14       -0.00000   0.00000   0.00000   0.00000   0.00000   0.00000
   D15        0.00000   0.00000   0.00000  -0.00000   0.00000   0.00000
   D16        3.14159  -0.00000   0.00000  -0.00000   0.00000   3.14159
   D17        3.14159   0.00000   0.00000   0.00000   0.00000   3.14159
   D18        0.00000  -0.00000   0.00000  -0.00000  -0.00000   0.00000
   D19       -0.00000  -0.00000   0.00000  -0.00000   0.00000   0.00000
   D20        3.14159   0.00000   0.00000   0.00000   0.00000   3.14159
         Item               Value     Threshold  Converged?
 Maximum Force            0.118209     0.000450     NO 
 RMS     Force            0.031283     0.000300     NO 
 Maximum Displacement     0.864517     0.001800     NO 
 RMS     Displacement     0.190367     0.001200     NO 
 Predicted change in Energy=-2.230877D-01
 GradGradGradGradGradGradGradGradGradGradGradGradGradGradGradGradGradGrad

                          Input orientation:                          
 ---------------------------------------------------------------------
 Center     Atomic      Atomic             Coordinates (Angstroms)
 Number     Number       Type             X           Y           Z
 ---------------------------------------------------------------------
      1          6           0       -3.186959    0.194820   -0.000000
      2          6           0       -1.958576    0.931861    0.000000
      3          6           0       -0.733151    0.237236    0.000000
      4          6           0       -0.656016   -1.176355    0.000000
      5          6           0       -1.867550   -1.921256   -0.000000
      6          6           0       -3.037217   -1.192860   -0.000000
      7         17           0       -4.696726    0.923990   -0.000000
      8         17           0       -1.954157    2.614040    0.000000
      9          1           0        0.125538    0.774518    0.000000
     10         17           0        0.839140   -1.955434    0.000000
     11          1           0       -1.874194   -2.938040   -0.000000
 ---------------------------------------------------------------------
                    Distance matrix (angstroms):
                    1          2          3          4          5
     1  C    0.000000
     2  C    1.432534   0.000000
     3  C    2.454174   1.408606   0.000000
     4  C    2.878506   2.478152   1.415694   0.000000
     5  C    2.493716   2.854569   2.438432   1.422214   0.000000
     6  C    1.395735   2.382835   2.711806   2.381258   1.377927
     7  Cl   1.676629   2.738161   4.022631   4.553986   4.012439
     8  Cl   2.715222   1.682185   2.672088   4.006528   4.536123
     9  H    3.362839   2.090045   1.012926   2.101602   3.352551
    10  Cl   4.564325   4.020409   2.698129   1.685958   2.706905
    11  H    3.396787   3.870821   3.374071   2.141843   1.016806
                    6          7          8          9         10
     6  C    0.000000
     7  Cl   2.689800   0.000000
     8  Cl   3.957967   3.221483   0.000000
     9  H    3.724727   4.824580   2.776504   0.000000
    10  Cl   3.950653   6.239944   5.355615   2.821678   0.000000
    11  H    2.097207   4.783510   5.552656   4.216873   2.885775
                   11
    11  H    0.000000
 Stoichiometry    C6H2Cl3(2)
 Framework group  CS[SG(C6H2Cl3)]
 Deg. of freedom    19
 Full point group                 CS      NOp   2
 Largest Abelian subgroup         CS      NOp   2
 Largest concise Abelian subgroup C1      NOp   1
                         Standard orientation:                         
 ---------------------------------------------------------------------
 Center     Atomic      Atomic             Coordinates (Angstroms)
 Number     Number       Type             X           Y           Z
 ---------------------------------------------------------------------
      1          6           0        1.275358   -0.200727    0.000000
      2          6           0        0.000000   -0.853120    0.000000
      3          6           0       -1.175712   -0.077316   -0.000000
      4          6           0       -1.157197    1.338257   -0.000000
      5          6           0        0.101882    1.999630    0.000000
      6          6           0        1.219682    1.193897    0.000000
      7         17           0        2.732429   -1.030203    0.000000
      8         17           0       -0.118024   -2.531160   -0.000000
      9          1           0       -2.068728   -0.555375   -0.000000
     10         17           0       -2.596319    2.216540   -0.000000
     11          1           0        0.177185    3.013643    0.000000
 ---------------------------------------------------------------------
 Rotational constants (GHZ):           1.8973604           0.5990635           0.4553070
 Standard basis: VSTO-6G (5D, 7F)
 There are    29 symmetry adapted cartesian basis functions of A'  symmetry.
 There are     9 symmetry adapted cartesian basis functions of A"  symmetry.
 There are    29 symmetry adapted basis functions of A'  symmetry.
 There are     9 symmetry adapted basis functions of A"  symmetry.
    38 basis functions,   228 primitive gaussians,    38 cartesian basis functions
    24 alpha electrons       23 beta electrons
       nuclear repulsion energy       243.9905416805 Hartrees.
 Integral buffers will be    131072 words long.
 Regular integral format.
 Two-electron integral symmetry is turned off.
 Do NDO integrals.
 One-electron integrals computed using PRISM.
 NBasis=    38 RedAO= T EigKep=  1.00D+00  NBF=    29     9
 NBsUse=    38 1.00D-06 EigRej= -1.00D+00 NBFU=    29     9
 Initial guess from the checkpoint file:  "geometry_chks/1235-_235-ClBzNeutralRadical.chk"
 B after Tr=    -0.000000   -0.000000    0.000000
         Rot=    0.999997   -0.000000    0.000000   -0.002591 Ang=  -0.30 deg.
 Initial guess orbital symmetries:
 Alpha Orbitals:
       Occupied  (A') (A') (A') (A') (A') (A') (A') (A') (A') (A')
                 (A') (A') (A") (A") (A') (A") (A') (A') (A') (A')
                 (A") (A') (A") (A")
       Virtual   (A") (A") (A') (A') (A') (A') (A') (A") (A') (A')
                 (A') (A') (A') (A')
 Beta  Orbitals:
       Occupied  (A') (A') (A') (A') (A') (A') (A') (A') (A') (A')
                 (A') (A') (A") (A") (A') (A") (A') (A') (A') (A")
                 (A') (A") (A")
       Virtual   (A') (A") (A") (A') (A') (A') (A') (A') (A") (A')
                 (A') (A') (A') (A') (A')
 Initial guess <Sx>= 0.0000 <Sy>= 0.0000 <Sz>= 0.5000 <S**2>= 1.4584 S= 0.8071
 Keep J ints in memory in canonical form, NReq=863588.
 Overlap will be assumed to be unity.
 Requested convergence on RMS density matrix=1.00D-08 within  32 cycles.
 Requested convergence on MAX density matrix=1.00D-06.
 Requested convergence on             energy=1.00D-06.
 No special actions if energy rises.
 Fock symm off for IB=2 I1=    1 I=   30 J=   13 Cut=1.00D-07 Err=1.37D-03
 Fock matrix is not symmetric: symmetry in diagonalization turned off.
 SCF Done:  E(UAM1) =  0.998363554218E-01 A.U. after   16 cycles
            NFock= 15  Conv=0.94D-08     -V/T= 1.0009
 <Sx>= 0.0000 <Sy>= 0.0000 <Sz>= 0.5000 <S**2>= 1.3718 S= 0.7735
 <L.S>=  0.00000000000    
 Annihilation of the first spin contaminant:
 S**2 before annihilation     1.3718,   after     1.1005
 QCSCF skips out because SCF is already converged.
 Calling FoFJK, ICntrl=      2127 FMM=F ISym2X=1 I1Cent= 0 IOpClX= 1 NMat=1 NMatS=1 NMatT=0.
 ***** Axes restored to original set *****
 -------------------------------------------------------------------
 Center     Atomic                   Forces (Hartrees/Bohr)
 Number     Number              X              Y              Z
 -------------------------------------------------------------------
      1        6           0.009657550   -0.012692538    0.000000000
      2        6          -0.012820135   -0.016391198    0.000000000
      3        6          -0.051796750   -0.039105985    0.000000000
      4        6          -0.019184347    0.009079150    0.000000000
      5        6          -0.002483600    0.061595864   -0.000000000
      6        6           0.015328646    0.023238054   -0.000000000
      7       17           0.001037148   -0.000032469   -0.000000000
      8       17          -0.001037351    0.001840745   -0.000000000
      9        1           0.062912566    0.038751091   -0.000000000
     10       17          -0.001657863    0.000546888   -0.000000000
     11        1           0.000044135   -0.066829602   -0.000000000
 -------------------------------------------------------------------
 Cartesian Forces:  Max     0.066829602 RMS     0.024531776

 GradGradGradGradGradGradGradGradGradGradGradGradGradGradGradGradGradGrad
 Berny optimization.
 Using GEDIIS/GDIIS optimizer.
 FormGI is forming the generalized inverse of G from B-inverse, IUseBI=4.
 Internal  Forces:  Max     0.073887535 RMS     0.015478831
 Search for a local minimum.
 Step number   4 out of a maximum of   57
 All quantities printed in internal units (Hartrees-Bohrs-Radians)
 Mixed Optimization -- RFO/linear search
 Update second derivatives using D2CorX and points    3    4
 DE= -1.17D-01 DEPred=-2.23D-01 R= 5.26D-01
 TightC=F SS=  1.41D+00  RLast= 1.27D+00 DXNew= 1.4270D+00 3.8243D+00
 Trust test= 5.26D-01 RLast= 1.27D+00 DXMaxT set to 1.43D+00
 ITU=  1  1  1  0
 Use linear search instead of GDIIS.
     Eigenvalues ---    0.02011   0.02011   0.02011   0.02011   0.02011
     Eigenvalues ---    0.02011   0.02011   0.02011   0.06483   0.09560
     Eigenvalues ---    0.16000   0.16000   0.20964   0.23947   0.24291
     Eigenvalues ---    0.25000   0.25004   0.25051   0.26261   0.29036
     Eigenvalues ---    0.29046   0.38830   0.41480   0.43671   0.44654
     Eigenvalues ---    0.44676   0.58094
 RFO step:  Lambda=-1.63021552D-02 EMin= 2.01065636D-02
 Quartic linear search produced a step of -0.17596.
 Iteration  1 RMS(Cart)=  0.05535822 RMS(Int)=  0.00980022
 Iteration  2 RMS(Cart)=  0.00963370 RMS(Int)=  0.00022804
 Iteration  3 RMS(Cart)=  0.00000822 RMS(Int)=  0.00022796
 Iteration  4 RMS(Cart)=  0.00000000 RMS(Int)=  0.00022796
 ClnCor:  largest displacement from symmetrization is 8.75D-09 for atom    10.
 Variable       Old X    -DE/DX   Delta X   Delta X   Delta X     New X
                                 (Linear)    (Quad)   (Total)
    R1        2.70710  -0.01485  -0.00414  -0.01690  -0.02106   2.68604
    R2        2.63756  -0.02131   0.00805  -0.09651  -0.08812   2.54944
    R3        3.16837  -0.00095   0.02611  -0.12244  -0.09633   3.07204
    R4        2.66188  -0.00120   0.00391  -0.04096  -0.03739   2.62449
    R5        3.17887   0.00184   0.02527  -0.11907  -0.09380   3.08507
    R6        2.67527  -0.00655   0.00291  -0.05248  -0.04989   2.62539
    R7        1.91415   0.07389   0.15424   0.11019   0.26443   2.17858
    R8        2.68759  -0.00799   0.00265  -0.06629  -0.06362   2.62398
    R9        3.18600  -0.00172   0.02456  -0.12421  -0.09965   3.08635
   R10        2.60390  -0.01102   0.01594  -0.14275  -0.12646   2.47744
   R11        1.92148   0.06683   0.15303   0.06516   0.21819   2.13968
    A1        2.00373   0.00005   0.01279  -0.05932  -0.04626   1.95747
    A2        2.15124  -0.00070  -0.00860   0.04077   0.03203   2.18327
    A3        2.12822   0.00064  -0.00419   0.01855   0.01423   2.14245
    A4        2.08548   0.00195   0.00239  -0.01586  -0.01387   2.07161
    A5        2.11385  -0.00263  -0.00379   0.01710   0.01351   2.12736
    A6        2.08385   0.00068   0.00140  -0.00124   0.00036   2.08422
    A7        2.14099  -0.00924  -0.00680   0.01672   0.00925   2.15024
    A8        2.06681   0.00512   0.00380  -0.00638  -0.00225   2.06456
    A9        2.07539   0.00412   0.00300  -0.01034  -0.00700   2.06839
   A10        2.06754   0.00730   0.00459  -0.01480  -0.01054   2.05701
   A11        2.10567  -0.00320  -0.00220   0.00932   0.00729   2.11296
   A12        2.10997  -0.00410  -0.00239   0.00548   0.00325   2.11322
   A13        2.03336  -0.00903   0.00639  -0.02871  -0.02200   2.01136
   A14        2.12859   0.00405  -0.00351   0.01136   0.00770   2.13629
   A15        2.12123   0.00498  -0.00289   0.01735   0.01430   2.13553
   A16        2.23526   0.00896  -0.01936   0.10197   0.08342   2.31868
    D1       -0.00000  -0.00000   0.00000  -0.00000   0.00000   0.00000
    D2        3.14159  -0.00000   0.00000  -0.00000   0.00000   3.14159
    D3        3.14159   0.00000   0.00000   0.00000   0.00000   3.14159
    D4       -0.00000   0.00000   0.00000   0.00000   0.00000   0.00000
    D5        0.00000   0.00000   0.00000   0.00000   0.00000   0.00000
    D6        3.14159  -0.00000   0.00000  -0.00000   0.00000   3.14159
    D7        0.00000   0.00000   0.00000   0.00000  -0.00000   0.00000
    D8        3.14159  -0.00000   0.00000  -0.00000   0.00000   3.14159
    D9        3.14159   0.00000   0.00000   0.00000   0.00000   3.14159
   D10       -0.00000  -0.00000   0.00000  -0.00000   0.00000   0.00000
   D11       -0.00000   0.00000   0.00000  -0.00000   0.00000   0.00000
   D12        3.14159  -0.00000   0.00000  -0.00000   0.00000   3.14159
   D13        3.14159   0.00000   0.00000   0.00000   0.00000   3.14159
   D14       -0.00000   0.00000   0.00000   0.00000   0.00000   0.00000
   D15        0.00000  -0.00000   0.00000  -0.00000   0.00000   0.00000
   D16        3.14159  -0.00000   0.00000  -0.00000   0.00000   3.14159
   D17        3.14159   0.00000   0.00000  -0.00000   0.00000   3.14159
   D18       -0.00000  -0.00000   0.00000  -0.00000   0.00000   0.00000
   D19       -0.00000   0.00000   0.00000   0.00000   0.00000   0.00000
   D20        3.14159   0.00000   0.00000   0.00000   0.00000   3.14159
         Item               Value     Threshold  Converged?
 Maximum Force            0.073888     0.000450     NO 
 RMS     Force            0.015479     0.000300     NO 
 Maximum Displacement     0.176708     0.001800     NO 
 RMS     Displacement     0.060712     0.001200     NO 
 Predicted change in Energy=-2.686284D-02
 GradGradGradGradGradGradGradGradGradGradGradGradGradGradGradGradGradGrad

                          Input orientation:                          
 ---------------------------------------------------------------------
 Center     Atomic      Atomic             Coordinates (Angstroms)
 Number     Number       Type             X           Y           Z
 ---------------------------------------------------------------------
      1          6           0       -3.180680    0.192123   -0.000000
      2          6           0       -1.964218    0.927357    0.000000
      3          6           0       -0.763364    0.229665    0.000000
      4          6           0       -0.689609   -1.157670    0.000000
      5          6           0       -1.881061   -1.870770   -0.000000
      6          6           0       -2.969769   -1.140393   -0.000000
      7         17           0       -4.668559    0.847084   -0.000000
      8         17           0       -1.943142    2.559769    0.000000
      9          1           0        0.219047    0.832942    0.000000
     10         17           0        0.752171   -1.924935    0.000000
     11          1           0       -1.910686   -3.002651   -0.000000
 ---------------------------------------------------------------------
                    Distance matrix (angstroms):
                    1          2          3          4          5
     1  C    0.000000
     2  C    1.421390   0.000000
     3  C    2.417607   1.388821   0.000000
     4  C    2.833263   2.443761   1.389294   0.000000
     5  C    2.438142   2.799363   2.379301   1.388550   0.000000
     6  C    1.349104   2.299287   2.597167   2.280225   1.311006
     7  Cl   1.625656   2.705532   3.953701   4.455455   3.893183
     8  Cl   2.671563   1.632548   2.611754   3.923098   4.430974
     9  H    3.459595   2.185306   1.152856   2.188194   3.423524
    10  Cl   4.466459   3.938825   2.634227   1.633226   2.633790
    11  H    3.437945   3.930373   3.429900   2.212461   1.132268
                    6          7          8          9         10
     6  C    0.000000
     7  Cl   2.614565   0.000000
     8  Cl   3.839942   3.218880   0.000000
     9  H    3.750013   4.887627   2.767128   0.000000
    10  Cl   3.803728   6.088383   5.232331   2.808933   0.000000
    11  H    2.142350   4.735643   5.562515   4.387202   2.872679
                   11
    11  H    0.000000
 Stoichiometry    C6H2Cl3(2)
 Framework group  CS[SG(C6H2Cl3)]
 Deg. of freedom    19
 Full point group                 CS      NOp   2
 Largest Abelian subgroup         CS      NOp   2
 Largest concise Abelian subgroup C1      NOp   1
                         Standard orientation:                         
 ---------------------------------------------------------------------
 Center     Atomic      Atomic             Coordinates (Angstroms)
 Number     Number       Type             X           Y           Z
 ---------------------------------------------------------------------
      1          6           0        1.260322   -0.203249    0.000000
      2          6           0        0.000000   -0.860470    0.000000
      3          6           0       -1.154565   -0.088587    0.000000
      4          6           0       -1.140865    1.300639    0.000000
      5          6           0        0.093103    1.937344    0.000000
      6          6           0        1.133688    1.139898    0.000000
      7         17           0        2.704032   -0.950548    0.000000
      8         17           0       -0.123767   -2.488320    0.000000
      9          1           0       -2.172996   -0.628842    0.000000
     10         17           0       -2.531501    2.157119    0.000000
     11          1           0        0.193902    3.065117    0.000000
 ---------------------------------------------------------------------
 Rotational constants (GHZ):           1.9409196           0.6301934           0.4757296
 Standard basis: VSTO-6G (5D, 7F)
 There are    29 symmetry adapted cartesian basis functions of A'  symmetry.
 There are     9 symmetry adapted cartesian basis functions of A"  symmetry.
 There are    29 symmetry adapted basis functions of A'  symmetry.
 There are     9 symmetry adapted basis functions of A"  symmetry.
    38 basis functions,   228 primitive gaussians,    38 cartesian basis functions
    24 alpha electrons       23 beta electrons
       nuclear repulsion energy       246.8576527197 Hartrees.



 Warning!  Cl atom    7 may be hypervalent but has no d functions.
 Warning!  Cl atom    8 may be hypervalent but has no d functions.
 Warning!  Cl atom   10 may be hypervalent but has no d functions.



 Integral buffers will be    131072 words long.
 Regular integral format.
 Two-electron integral symmetry is turned off.
 Do NDO integrals.
 One-electron integrals computed using PRISM.
 NBasis=    38 RedAO= T EigKep=  1.00D+00  NBF=    29     9
 NBsUse=    38 1.00D-06 EigRej= -1.00D+00 NBFU=    29     9
 Initial guess from the checkpoint file:  "geometry_chks/1235-_235-ClBzNeutralRadical.chk"
 B after Tr=     0.000000    0.000000    0.000000
         Rot=    0.999994   -0.000000    0.000000   -0.003325 Ang=  -0.38 deg.
 Initial guess orbital symmetries:
 Alpha Orbitals:
       Occupied  (A') (A') (A') (A') (A') (A') (A') (A') (A') (A')
                 (A') (A') (A") (A') (A") (A') (A") (A') (A') (A')
                 (A") (A') (A") (A")
       Virtual   (A") (A") (A') (A') (A') (A") (A') (A') (A') (A')
[...]
    R7        2.08301  -0.00006  -0.00017  -0.00009  -0.00026   2.08275
    R8        2.67371   0.00002  -0.00008   0.00009   0.00001   2.67372
    R9        3.19446   0.00007   0.00019   0.00017   0.00036   3.19481
   R10        2.58402  -0.00000   0.00004  -0.00006  -0.00002   2.58401
   R11        2.07363   0.00003  -0.00013   0.00017   0.00004   2.07367
    A1        1.99809   0.00006   0.00006   0.00022   0.00028   1.99837
    A2        2.15059  -0.00001   0.00004  -0.00009  -0.00005   2.15054
    A3        2.13451  -0.00005  -0.00010  -0.00013  -0.00023   2.13427
    A4        2.09224  -0.00002   0.00002  -0.00010  -0.00008   2.09216
    A5        2.10738   0.00002   0.00013   0.00001   0.00014   2.10751
    A6        2.08357  -0.00000  -0.00015   0.00009  -0.00006   2.08351
    A7        2.11358  -0.00001  -0.00013  -0.00002  -0.00015   2.11343
    A8        2.08224  -0.00002   0.00004  -0.00016  -0.00012   2.08212
    A9        2.08736   0.00003   0.00009   0.00018   0.00027   2.08763
   A10        2.10155   0.00000   0.00021  -0.00005   0.00016   2.10172
   A11        2.09088   0.00003  -0.00006   0.00015   0.00009   2.09097
   A12        2.09076  -0.00004  -0.00015  -0.00011  -0.00025   2.09050
   A13        1.99670  -0.00000  -0.00002  -0.00001  -0.00003   1.99667
   A14        2.14052  -0.00002  -0.00015  -0.00005  -0.00020   2.14031
   A15        2.14597   0.00003   0.00017   0.00006   0.00023   2.14620
   A16        2.26421  -0.00003  -0.00014  -0.00005  -0.00019   2.26402
    D1        0.00000  -0.00000   0.00000  -0.00000  -0.00000   0.00000
    D2        3.14159  -0.00000  -0.00000  -0.00000   0.00000   3.14159
    D3        3.14159   0.00000  -0.00000   0.00000   0.00000   3.14159
    D4       -0.00000  -0.00000   0.00000  -0.00000   0.00000   0.00000
    D5        0.00000   0.00000   0.00000   0.00000   0.00000   0.00000
    D6        3.14159  -0.00000  -0.00000  -0.00000   0.00000   3.14159
    D7       -0.00000  -0.00000   0.00000  -0.00000   0.00000   0.00000
    D8        3.14159  -0.00000  -0.00000  -0.00000   0.00000   3.14159
    D9        3.14159   0.00000  -0.00000   0.00000   0.00000   3.14159
   D10        0.00000  -0.00000   0.00000  -0.00000   0.00000   0.00000
   D11        0.00000   0.00000   0.00000   0.00000   0.00000   0.00000
   D12        3.14159  -0.00000  -0.00000   0.00000   0.00000   3.14159
   D13        3.14159   0.00000  -0.00000   0.00000   0.00000   3.14159
   D14       -0.00000   0.00000   0.00000   0.00000   0.00000   0.00000
   D15        0.00000  -0.00000   0.00000  -0.00000  -0.00000   0.00000
   D16        3.14159  -0.00000  -0.00000  -0.00000   0.00000   3.14159
   D17        3.14159   0.00000  -0.00000   0.00000   0.00000   3.14159
   D18        0.00000  -0.00000   0.00000  -0.00000   0.00000   0.00000
   D19       -0.00000  -0.00000   0.00000  -0.00000   0.00000   0.00000
   D20        3.14159   0.00000  -0.00000   0.00000   0.00000   3.14159
         Item               Value     Threshold  Converged?
 Maximum Force            0.000126     0.000450     YES
 RMS     Force            0.000032     0.000300     YES
 Maximum Displacement     0.000628     0.001800     YES
 RMS     Displacement     0.000150     0.001200     YES
 Predicted change in Energy=-9.240665D-08
 Optimization completed.
    -- Stationary point found.
                           ----------------------------
                           !   Optimized Parameters   !
                           ! (Angstroms and Degrees)  !
 --------------------------                            --------------------------
 ! Name  Definition              Value          Derivative Info.                !
 --------------------------------------------------------------------------------
 ! R1    R(1,2)                  1.4205         -DE/DX =   -0.0001              !
 ! R2    R(1,6)                  1.3765         -DE/DX =    0.0                 !
 ! R3    R(1,7)                  1.6781         -DE/DX =    0.0                 !
 ! R4    R(2,3)                  1.4068         -DE/DX =    0.0001              !
 ! R5    R(2,8)                  1.6881         -DE/DX =    0.0                 !
 ! R6    R(3,4)                  1.4065         -DE/DX =    0.0                 !
 ! R7    R(3,9)                  1.1023         -DE/DX =   -0.0001              !
 ! R8    R(4,5)                  1.4149         -DE/DX =    0.0                 !
 ! R9    R(4,10)                 1.6904         -DE/DX =    0.0001              !
 ! R10   R(5,6)                  1.3674         -DE/DX =    0.0                 !
 ! R11   R(5,11)                 1.0973         -DE/DX =    0.0                 !
 ! A1    A(2,1,6)              114.4821         -DE/DX =    0.0001              !
 ! A2    A(2,1,7)              123.2195         -DE/DX =    0.0                 !
 ! A3    A(6,1,7)              122.2984         -DE/DX =    0.0                 !
 ! A4    A(1,2,3)              119.8765         -DE/DX =    0.0                 !
 ! A5    A(1,2,8)              120.7439         -DE/DX =    0.0                 !
 ! A6    A(3,2,8)              119.3796         -DE/DX =    0.0                 !
 ! A7    A(2,3,4)              121.0993         -DE/DX =    0.0                 !
 ! A8    A(2,3,9)              119.3036         -DE/DX =    0.0                 !
 ! A9    A(4,3,9)              119.5971         -DE/DX =    0.0                 !
 ! A10   A(3,4,5)              120.4102         -DE/DX =    0.0                 !
 ! A11   A(3,4,10)             119.7983         -DE/DX =    0.0                 !
 ! A12   A(5,4,10)             119.7915         -DE/DX =    0.0                 !
 ! A13   A(4,5,6)              114.4023         -DE/DX =    0.0                 !
 ! A14   A(4,5,11)             122.6427         -DE/DX =    0.0                 !
 ! A15   A(6,5,11)             122.955          -DE/DX =    0.0                 !
 ! A16   A(1,6,5)              129.7296         -DE/DX =    0.0                 !
 ! D1    D(6,1,2,3)              0.0            -DE/DX =    0.0                 !
 ! D2    D(6,1,2,8)            180.0            -DE/DX =    0.0                 !
 ! D3    D(7,1,2,3)            180.0            -DE/DX =    0.0                 !
 ! D4    D(7,1,2,8)              0.0            -DE/DX =    0.0                 !
 ! D5    D(2,1,6,5)              0.0            -DE/DX =    0.0                 !
 ! D6    D(7,1,6,5)            180.0            -DE/DX =    0.0                 !
 ! D7    D(1,2,3,4)              0.0            -DE/DX =    0.0                 !
 ! D8    D(1,2,3,9)            180.0            -DE/DX =    0.0                 !
 ! D9    D(8,2,3,4)            180.0            -DE/DX =    0.0                 !
 ! D10   D(8,2,3,9)              0.0            -DE/DX =    0.0                 !
 ! D11   D(2,3,4,5)              0.0            -DE/DX =    0.0                 !
 ! D12   D(2,3,4,10)           180.0            -DE/DX =    0.0                 !
 ! D13   D(9,3,4,5)            180.0            -DE/DX =    0.0                 !
 ! D14   D(9,3,4,10)             0.0            -DE/DX =    0.0                 !
 ! D15   D(3,4,5,6)              0.0            -DE/DX =    0.0                 !
 ! D16   D(3,4,5,11)           180.0            -DE/DX =    0.0                 !
 ! D17   D(10,4,5,6)           180.0            -DE/DX =    0.0                 !
 ! D18   D(10,4,5,11)            0.0            -DE/DX =    0.0                 !
 ! D19   D(4,5,6,1)              0.0            -DE/DX =    0.0                 !
 ! D20   D(11,5,6,1)           180.0            -DE/DX =    0.0                 !
 --------------------------------------------------------------------------------
 GradGradGradGradGradGradGradGradGradGradGradGradGradGradGradGradGradGrad

                          Input orientation:                          
 ---------------------------------------------------------------------
 Center     Atomic      Atomic             Coordinates (Angstroms)
 Number     Number       Type             X           Y           Z
 ---------------------------------------------------------------------
      1          6           0       -3.181115    0.193320   -0.000000
      2          6           0       -1.964321    0.926324    0.000000
      3          6           0       -0.734574    0.243022    0.000000
      4          6           0       -0.684488   -1.162554    0.000000
      5          6           0       -1.878424   -1.921742   -0.000000
      6          6           0       -3.023317   -1.174066   -0.000000
      7         17           0       -4.693057    0.921471   -0.000000
      8         17           0       -1.973782    2.614418    0.000000
      9          1           0        0.203884    0.821221    0.000000
     10         17           0        0.811421   -1.949841    0.000000
     11          1           0       -1.882095   -3.019052   -0.000000
 ---------------------------------------------------------------------
                    Distance matrix (angstroms):
                    1          2          3          4          5
     1  C    0.000000
     2  C    1.420522   0.000000
     3  C    2.447046   1.406833   0.000000
     4  C    2.841046   2.449772   1.406468   0.000000
     5  C    2.484047   2.849360   2.448386   1.414867   0.000000
     6  C    1.376460   2.352256   2.691929   2.338858   1.367406
     7  Cl   1.678145   2.728740   4.016202   4.517940   4.000752
     8  Cl   2.705434   1.688121   2.675660   3.990965   4.537162
     9  H    3.442744   2.170752   1.102279   2.173608   3.443814
    10  Cl   4.531389   3.997132   2.683048   1.690433   2.689992
    11  H    3.465081   3.946232   3.458024   2.209263   1.097316
                    6          7          8          9         10
     6  C    0.000000
     7  Cl   2.679422   0.000000
     8  Cl   3.931175   3.203206   0.000000
     9  H    3.794206   4.897967   2.820955   0.000000
    10  Cl   3.912422   6.208358   5.346945   2.836879   0.000000
    11  H    2.169416   4.840375   5.634216   4.370241   2.897972
                   11
    11  H    0.000000
 Stoichiometry    C6H2Cl3(2)
 Framework group  CS[SG(C6H2Cl3)]
 Deg. of freedom    19
 Full point group                 CS      NOp   2
 Largest Abelian subgroup         CS      NOp   2
 Largest concise Abelian subgroup C1      NOp   1
                         Standard orientation:                         
 ---------------------------------------------------------------------
 Center     Atomic      Atomic             Coordinates (Angstroms)
 Number     Number       Type             X           Y           Z
 ---------------------------------------------------------------------
      1          6           0        1.261157   -0.191276   -0.000000
      2          6           0        0.000000   -0.845009   -0.000000
      3          6           0       -1.183559   -0.084504    0.000000
      4          6           0       -1.143704    1.321400    0.000000
      5          6           0        0.096315    2.002724   -0.000000
      6          6           0        1.191079    1.183399   -0.000000
      7         17           0        2.723466   -1.014575   -0.000000
      8         17           0       -0.098454   -2.530256    0.000000
      9          1           0       -2.157055   -0.601539    0.000000
     10         17           0       -2.586235    2.202688    0.000000
     11          1           0        0.170113    3.097555   -0.000000
 ---------------------------------------------------------------------
 Rotational constants (GHZ):           1.9110634           0.6037594           0.4588087

 **********************************************************************

            Population analysis using the SCF Density.

 **********************************************************************

 Orbital symmetries:
 Alpha Orbitals:
       Occupied  (A') (A') (A') (A') (A') (A') (A') (A') (A') (A')
                 (A') (A') (A") (A') (A") (A') (A") (A') (A') (A')
                 (A") (A') (A") (A")
       Virtual   (A") (A") (A') (A') (A') (A") (A') (A') (A') (A')
                 (A') (A') (A') (A')
 Beta  Orbitals:
       Occupied  (A') (A') (A') (A') (A') (A') (A') (A') (A') (A')
                 (A') (A') (A") (A') (A") (A') (A") (A') (A') (A')
                 (A") (A") (A")
       Virtual   (A') (A") (A") (A') (A') (A') (A") (A') (A') (A')
                 (A') (A') (A') (A') (A')
 The electronic state is 2-A'.
 Alpha  occ. eigenvalues --   -1.48310  -1.41553  -1.40174  -1.37886  -1.16977
 Alpha  occ. eigenvalues --   -1.15658  -0.89576  -0.87534  -0.69173  -0.64988
 Alpha  occ. eigenvalues --   -0.64164  -0.59165  -0.57551  -0.52987  -0.51911
 Alpha  occ. eigenvalues --   -0.51512  -0.49068  -0.47254  -0.45050  -0.44729
 Alpha  occ. eigenvalues --   -0.44574  -0.40488  -0.38755  -0.36374
 Alpha virt. eigenvalues --   -0.01452  -0.00491   0.02108   0.03183   0.04426
 Alpha virt. eigenvalues --    0.06909   0.11508   0.12188   0.13021   0.13949
 Alpha virt. eigenvalues --    0.15349   0.16434   0.16818   0.17506
  Beta  occ. eigenvalues --   -1.47657  -1.41381  -1.40075  -1.37563  -1.16831
  Beta  occ. eigenvalues --   -1.14628  -0.89186  -0.85211  -0.68848  -0.64077
  Beta  occ. eigenvalues --   -0.63302  -0.58949  -0.57174  -0.52376  -0.51334
  Beta  occ. eigenvalues --   -0.51238  -0.48739  -0.46271  -0.44802  -0.44649
  Beta  occ. eigenvalues --   -0.44197  -0.38597  -0.36675
  Beta virt. eigenvalues --   -0.01751  -0.01607   0.00781   0.02908   0.04083
  Beta virt. eigenvalues --    0.05039   0.07626   0.11795   0.12312   0.13328
  Beta virt. eigenvalues --    0.14095   0.15466   0.16232   0.17659   0.18795
          Condensed to atoms (all electrons):
               1          2          3          4          5          6
     1  C    4.059581   0.000000   0.000000   0.000000   0.000000   0.000000
     2  C    0.000000   4.057502   0.000000   0.000000   0.000000   0.000000
     3  C    0.000000   0.000000   4.125513   0.000000   0.000000   0.000000
     4  C    0.000000   0.000000   0.000000   4.058761   0.000000   0.000000
     5  C    0.000000   0.000000   0.000000   0.000000   4.104836   0.000000
     6  C    0.000000   0.000000   0.000000   0.000000   0.000000   4.041622
     7  Cl   0.000000   0.000000   0.000000   0.000000   0.000000   0.000000
     8  Cl   0.000000   0.000000   0.000000   0.000000   0.000000   0.000000
     9  H    0.000000   0.000000   0.000000   0.000000   0.000000   0.000000
    10  Cl   0.000000   0.000000   0.000000   0.000000   0.000000   0.000000
    11  H    0.000000   0.000000   0.000000   0.000000   0.000000   0.000000
               7          8          9         10         11
     1  C    0.000000   0.000000   0.000000   0.000000   0.000000
     2  C    0.000000   0.000000   0.000000   0.000000   0.000000
     3  C    0.000000   0.000000   0.000000   0.000000   0.000000
     4  C    0.000000   0.000000   0.000000   0.000000   0.000000
     5  C    0.000000   0.000000   0.000000   0.000000   0.000000
     6  C    0.000000   0.000000   0.000000   0.000000   0.000000
     7  Cl   6.943692   0.000000   0.000000   0.000000   0.000000
     8  Cl   0.000000   6.969210   0.000000   0.000000   0.000000
     9  H    0.000000   0.000000   0.832742   0.000000   0.000000
    10  Cl   0.000000   0.000000   0.000000   6.984229   0.000000
    11  H    0.000000   0.000000   0.000000   0.000000   0.822312
          Atomic-Atomic Spin Densities.
               1          2          3          4          5          6
     1  C   -0.505584   0.000000   0.000000   0.000000   0.000000   0.000000
     2  C    0.000000   0.502488   0.000000   0.000000   0.000000   0.000000
     3  C    0.000000   0.000000  -0.484254   0.000000   0.000000   0.000000
     4  C    0.000000   0.000000   0.000000   0.510485   0.000000   0.000000
     5  C    0.000000   0.000000   0.000000   0.000000  -0.514783   0.000000
     6  C    0.000000   0.000000   0.000000   0.000000   0.000000   1.399281
     7  Cl   0.000000   0.000000   0.000000   0.000000   0.000000   0.000000
     8  Cl   0.000000   0.000000   0.000000   0.000000   0.000000   0.000000
     9  H    0.000000   0.000000   0.000000   0.000000   0.000000   0.000000
    10  Cl   0.000000   0.000000   0.000000   0.000000   0.000000   0.000000
    11  H    0.000000   0.000000   0.000000   0.000000   0.000000   0.000000
               7          8          9         10         11
     1  C    0.000000   0.000000   0.000000   0.000000   0.000000
     2  C    0.000000   0.000000   0.000000   0.000000   0.000000
     3  C    0.000000   0.000000   0.000000   0.000000   0.000000
     4  C    0.000000   0.000000   0.000000   0.000000   0.000000
     5  C    0.000000   0.000000   0.000000   0.000000   0.000000
     6  C    0.000000   0.000000   0.000000   0.000000   0.000000
     7  Cl  -0.001889   0.000000   0.000000   0.000000   0.000000
     8  Cl   0.000000   0.016967   0.000000   0.000000   0.000000
     9  H    0.000000   0.000000   0.027968   0.000000   0.000000
    10  Cl   0.000000   0.000000   0.000000   0.014958   0.000000
    11  H    0.000000   0.000000   0.000000   0.000000   0.034363
 Mulliken charges and spin densities:
               1          2
     1  C   -0.059581  -0.505584
     2  C   -0.057502   0.502488
     3  C   -0.125513  -0.484254
     4  C   -0.058761   0.510485
     5  C   -0.104836  -0.514783
     6  C   -0.041622   1.399281
     7  Cl   0.056308  -0.001889
     8  Cl   0.030790   0.016967
     9  H    0.167258   0.027968
    10  Cl   0.015771   0.014958
    11  H    0.177688   0.034363
 Sum of Mulliken charges =   0.00000   1.00000
 Mulliken charges and spin densities with hydrogens summed into heavy atoms:
               1          2
     1  C   -0.059581  -0.505584
     2  C   -0.057502   0.502488
     3  C    0.041745  -0.456286
     4  C   -0.058761   0.510485
     5  C    0.072851  -0.480420
     6  C   -0.041622   1.399281
     7  Cl   0.056308  -0.001889
     8  Cl   0.030790   0.016967
    10  Cl   0.015771   0.014958
 Charge=             -0.0000 electrons
 Dipole moment (field-independent basis, Debye):
    X=             -0.7298    Y=              0.3541    Z=              0.0000  Tot=              0.8111
 N-N= 2.441831893914D+02 E-N=-3.406344672899D+02  KE=-1.121649727762D+02
 Symmetry A'   KE=-8.620132337793D+01
 Symmetry A"   KE=-2.596364939828D+01
 Symmetry A'   SP= 1.000000000000D+00
 Symmetry A"   SP= 4.662936703426D-15
 1\1\GINC-SH02-01N39\FOpt\UAM1\ZDO\C6H2Cl3(2)\JLAPIER\10-Dec-2025\0\\# 
 opt am1 SCF=XQC\\Neutral Radical (removed 1) _235\\0,2\C,-3.1811154527
 ,0.193319501,0.\C,-1.9643213315,0.9263235045,0.\C,-0.7345743642,0.2430
 216158,0.\C,-0.684488192,-1.1625544798,0.\C,-1.8784243726,-1.921741926
 9,0.\C,-3.0233174721,-1.1740655131,0.\Cl,-4.6930570311,0.9214705281,0.
 \Cl,-1.9737822057,2.6144183775,0.\H,0.2038842985,0.8212211754,0.\Cl,0.
 8114210031,-1.9498407681,0.\H,-1.8820948797,-3.0190520144,0.\\Version=
 ES64L-G16RevB.01\State=2-A'\HF=0.0876032\S2=1.303713\S2-1=0.\S2A=1.021
 627\RMSD=3.401e-09\RMSF=6.236e-05\Dipole=0.2954243,-0.1206777,0.\PG=CS
  [SG(C6H2Cl3)]\\@


 CHARLIE BROWN.."I CAN'T GET THAT STUPID KITE IN THE
 AIR... I CAN'T... I C A N N O T..."
 LUCY.."OH COME NOW CHARLIE BROWN...THAT'S NO WAY TO TALK...
 THE TROUBLE WITH YOU IS YOU DON'T BELIEVE IN YOURSELF... YOU
 DON'T BELIEVE IN YOUR OWN ABILITIES...  YOU'VE GOT TO SAY TO
 YOURSELF...'I BELIEVE I CAN FLY THIS KITE.'... GO AHEAD SAY
 IT...."
 CHARLIE BROWN.."I BELIEVE THAT I CAN FLY THIS STUPID
 KITE.....I BELIEVE THAT I CAN FLY THIS KITE........
 I  A C T U A L L Y  B E L I E V E  T H A T  I  C A N ******"
 LUCY.."I'LL BET YOU TEN-TO-ONE YOU'RE WRONG......."    SCHULZ
 Job cpu time:       0 days  0 hours  0 minutes  7.3 seconds.
 Elapsed time:       0 days  0 hours  0 minutes 12.7 seconds.
 File lengths (MBytes):  RWF=     10 Int=      0 D2E=      0 Chk=      2 Scr=      1
 Normal termination of Gaussian 16 at Wed Dec 10 10:38:07 2025.
