 Entering Gaussian System, Link 0=g16
 Initial command:
 /share/software/user/restricted/gaussian/g16.B01/l1.exe "/home/users/jlapier/Chloroaromatics/Gau-10470.inp" -scrdir="/home/users/jlapier/Chloroaromatics/"
 Entering Link 1 = /share/software/user/restricted/gaussian/g16.B01/l1.exe PID=     10471.
  
 Copyright (c) 1988-2017, Gaussian, Inc.  All Rights Reserved.
  
 This is part of the Gaussian(R) 16 program.  It is based on
 the Gaussian(R) 09 system (copyright 2009, Gaussian, Inc.),
 the Gaussian(R) 03 system (copyright 2003, Gaussian, Inc.),
 the Gaussian(R) 98 system (copyright 1998, Gaussian, Inc.),
 the Gaussian(R) 94 system (copyright 1995, Gaussian, Inc.),
 the Gaussian 92(TM) system (copyright 1992, Gaussian, Inc.),
 the Gaussian 90(TM) system (copyright 1990, Gaussian, Inc.),
 the Gaussian 88(TM) system (copyright 1988, Gaussian, Inc.),
 the Gaussian 86(TM) system (copyright 1986, Carnegie Mellon
 University), and the Gaussian 82(TM) system (copyright 1983,
 Carnegie Mellon University). Gaussian is a federally registered
 trademark of Gaussian, Inc.
  
 This software contains proprietary and confidential information,
 including trade secrets, belonging to Gaussian, Inc.
  
 This software is provided under written license and may be
 used, copied, transmitted, or stored only in accord with that
 written license.
  
 The following legend is applicable only to US Government
 contracts under FAR:
  
                    RESTRICTED RIGHTS LEGEND
  
 Use, reproduction and disclosure by the US Government is
 subject to restrictions as set forth in subparagraphs (a)
 and (c) of the Commercial Computer Software - Restricted
 Rights clause in FAR 52.227-19.
  
 Gaussian, Inc.
 340 Quinnipiac St., Bldg. 40, Wallingford CT 06492
  
  
 ---------------------------------------------------------------
 Warning -- This program may not be used in any manner that
 competes with the business of Gaussian, Inc. or will provide
 assistance to any competitor of Gaussian, Inc.  The licensee
 of this program is prohibited from giving any competitor of
 Gaussian, Inc. access to this program.  By using this program,
 the user acknowledges that Gaussian, Inc. is engaged in the
 business of creating and licensing software in the field of
 computational chemistry and represents and warrants to the
 licensee that it is not a competitor of Gaussian, Inc. and that
 it will not use this program in any manner prohibited above.
 ---------------------------------------------------------------
  

 Cite this work as:
 Gaussian 16, Revision B.01,
 M. J. Frisch, G. W. Trucks, H. B. Schlegel, G. E. Scuseria, 
 M. A. Robb, J. R. Cheeseman, G. Scalmani, V. Barone, 
 G. A. Petersson, H. Nakatsuji, X. Li, M. Caricato, A. V. Marenich, 
 J. Bloino, B. G. Janesko, R. Gomperts, B. Mennucci, H. P. Hratchian, 
 J. V. Ortiz, A. F. Izmaylov, J. L. Sonnenberg, D. Williams-Young, 
 F. Ding, F. Lipparini, F. Egidi, J. Goings, B. Peng, A. Petrone, 
 T. Henderson, D. Ranasinghe, V. G. Zakrzewski, J. Gao, N. Rega, 
 G. Zheng, W. Liang, M. Hada, M. Ehara, K. Toyota, R. Fukuda, 
 J. Hasegawa, M. Ishida, T. Nakajima, Y. Honda, O. Kitao, H. Nakai, 
 T. Vreven, K. Throssell, J. A. Montgomery, Jr., J. E. Peralta, 
 F. Ogliaro, M. J. Bearpark, J. J. Heyd, E. N. Brothers, K. N. Kudin, 
 V. N. Staroverov, T. A. Keith, R. Kobayashi, J. Normand, 
 K. Raghavachari, A. P. Rendell, J. C. Burant, S. S. Iyengar, 
 J. Tomasi, M. Cossi, J. M. Millam, M. Klene, C. Adamo, R. Cammi, 
 J. W. Ochterski, R. L. Martin, K. Morokuma, O. Farkas, 
 J. B. Foresman, and D. J. Fox, Gaussian, Inc., Wallingford CT, 2016.
 
 ******************************************
 Gaussian 16:  ES64L-G16RevB.01 20-Dec-2017
                 8-Dec-2025 
 ******************************************
 %mem=2GB
 %nprocshare=1
 Will use up to    1 processors via shared memory.
 %chk=geometry_chks/123_56ClBzAnionIntermediate.chk
 ---------------------------
 # opt am1 SCF(maxcyc=10000)
 ---------------------------
 1/18=20,19=15,26=1,38=1/1,3;
 2/9=110,12=2,17=6,18=5,40=1/2;
 3/5=2,25=1,41=700000,71=1/1,2,3;
 4/35=1/1;
 5/5=2,7=10000,35=1,38=5/2;
 6/7=2,8=2,9=2,10=2,28=1/1;
 7//1,2,3,16;
 1/18=20,19=15,26=1/3(2);
 2/9=110/2;
 99//99;
 2/9=110/2;
 3/5=2,25=1,41=700000,71=1,135=20/1,2,3;
 4/5=5,16=3,35=1/1;
 5/5=2,7=10000,35=1,38=5/2;
 7//1,2,3,16;
 1/18=20,19=15,26=1/3(-5);
 2/9=110/2;
 6/7=2,8=2,9=2,10=2,19=2,28=1/1;
 99/9=1/99;
 -------------------------------------
 Anion Intermediate (removed 4) 123_56
 -------------------------------------
 Symbolic Z-matrix:
 Charge = -1 Multiplicity = 1
 C                    -3.20928   0.19943   0. 
 C                    -2.0115    0.93555   0. 
 C                    -0.77511   0.2663    0. 
 C                    -0.7365   -1.13907   0. 
 C                    -1.93429  -1.87519   0. 
 C                    -3.17067  -1.20594   0. 
 Cl                   -4.67483  -2.13035   0. 
 Cl                   -4.76193   1.03987   0. 
 Cl                    0.81614  -1.97951   0. 
 Cl                   -2.05998   2.7004    0. 
 Cl                    0.72905   1.19071   0. 
 

 GradGradGradGradGradGradGradGradGradGradGradGradGradGradGradGradGradGrad
 Berny optimization.
 Initialization pass.
                           ----------------------------
                           !    Initial Parameters    !
                           ! (Angstroms and Degrees)  !
 --------------------------                            --------------------------
 ! Name  Definition              Value          Derivative Info.                !
 --------------------------------------------------------------------------------
 ! R1    R(1,2)                  1.4059         estimate D2E/DX2                !
 ! R2    R(1,6)                  1.4059         estimate D2E/DX2                !
 ! R3    R(1,8)                  1.7655         estimate D2E/DX2                !
 ! R4    R(2,3)                  1.4059         estimate D2E/DX2                !
 ! R5    R(2,10)                 1.7655         estimate D2E/DX2                !
 ! R6    R(3,4)                  1.4059         estimate D2E/DX2                !
 ! R7    R(3,11)                 1.7655         estimate D2E/DX2                !
 ! R8    R(4,5)                  1.4059         estimate D2E/DX2                !
 ! R9    R(4,9)                  1.7655         estimate D2E/DX2                !
 ! R10   R(5,6)                  1.4059         estimate D2E/DX2                !
 ! R11   R(6,7)                  1.7655         estimate D2E/DX2                !
 ! A1    A(2,1,6)              119.9999         estimate D2E/DX2                !
 ! A2    A(2,1,8)              119.9999         estimate D2E/DX2                !
 ! A3    A(6,1,8)              120.0001         estimate D2E/DX2                !
 ! A4    A(1,2,3)              120.0            estimate D2E/DX2                !
 ! A5    A(1,2,10)             120.0001         estimate D2E/DX2                !
 ! A6    A(3,2,10)             119.9999         estimate D2E/DX2                !
 ! A7    A(2,3,4)              120.0001         estimate D2E/DX2                !
 ! A8    A(2,3,11)             120.0            estimate D2E/DX2                !
 ! A9    A(4,3,11)             119.9999         estimate D2E/DX2                !
 ! A10   A(3,4,5)              119.9997         estimate D2E/DX2                !
 ! A11   A(3,4,9)              120.0003         estimate D2E/DX2                !
 ! A12   A(5,4,9)              120.0            estimate D2E/DX2                !
 ! A13   A(4,5,6)              120.0            estimate D2E/DX2                !
 ! A14   A(1,6,5)              120.0003         estimate D2E/DX2                !
 ! A15   A(1,6,7)              119.9999         estimate D2E/DX2                !
 ! A16   A(5,6,7)              119.9998         estimate D2E/DX2                !
 ! D1    D(6,1,2,3)              0.0            estimate D2E/DX2                !
 ! D2    D(6,1,2,10)           180.0            estimate D2E/DX2                !
 ! D3    D(8,1,2,3)            180.0            estimate D2E/DX2                !
 ! D4    D(8,1,2,10)             0.0            estimate D2E/DX2                !
 ! D5    D(2,1,6,5)              0.0            estimate D2E/DX2                !
 ! D6    D(2,1,6,7)            180.0            estimate D2E/DX2                !
 ! D7    D(8,1,6,5)            180.0            estimate D2E/DX2                !
 ! D8    D(8,1,6,7)              0.0            estimate D2E/DX2                !
 ! D9    D(1,2,3,4)              0.0            estimate D2E/DX2                !
 ! D10   D(1,2,3,11)           180.0            estimate D2E/DX2                !
 ! D11   D(10,2,3,4)           180.0            estimate D2E/DX2                !
 ! D12   D(10,2,3,11)            0.0            estimate D2E/DX2                !
 ! D13   D(2,3,4,5)              0.0            estimate D2E/DX2                !
 ! D14   D(2,3,4,9)            180.0            estimate D2E/DX2                !
 ! D15   D(11,3,4,5)           180.0            estimate D2E/DX2                !
 ! D16   D(11,3,4,9)             0.0            estimate D2E/DX2                !
 ! D17   D(3,4,5,6)              0.0            estimate D2E/DX2                !
 ! D18   D(9,4,5,6)            180.0            estimate D2E/DX2                !
 ! D19   D(4,5,6,1)              0.0            estimate D2E/DX2                !
 ! D20   D(4,5,6,7)            180.0            estimate D2E/DX2                !
 --------------------------------------------------------------------------------
 Trust Radius=3.00D-01 FncErr=1.00D-07 GrdErr=1.00D-07 EigMax=2.50D+02 EigMin=1.00D-04
 Number of steps in this run=     57 maximum allowed number of steps=    100.
 GradGradGradGradGradGradGradGradGradGradGradGradGradGradGradGradGradGrad

                          Input orientation:                          
 ---------------------------------------------------------------------
 Center     Atomic      Atomic             Coordinates (Angstroms)
 Number     Number       Type             X           Y           Z
 ---------------------------------------------------------------------
      1          6           0       -3.209280    0.199430    0.000000
      2          6           0       -2.011500    0.935550    0.000000
      3          6           0       -0.775110    0.266300    0.000000
      4          6           0       -0.736500   -1.139070    0.000000
      5          6           0       -1.934290   -1.875190    0.000000
      6          6           0       -3.170670   -1.205940    0.000000
      7         17           0       -4.674830   -2.130350    0.000000
      8         17           0       -4.761930    1.039870    0.000000
      9         17           0        0.816140   -1.979510    0.000000
     10         17           0       -2.059980    2.700400    0.000000
     11         17           0        0.729050    1.190710    0.000000
 ---------------------------------------------------------------------
                    Distance matrix (angstroms):
                    1          2          3          4          5
     1  C    0.000000
     2  C    1.405898   0.000000
     3  C    2.435088   1.405900   0.000000
     4  C    2.811801   2.435092   1.405900   0.000000
     5  C    2.435087   2.811800   2.435093   1.405907   0.000000
     6  C    1.405900   2.435088   2.811796   2.435088   1.405892
     7  Cl   2.752401   4.061166   4.577308   4.061167   2.752393
     8  Cl   1.765520   2.752408   4.061175   4.577321   4.061173
     9  Cl   4.577312   4.061173   2.752406   1.765511   2.752408
    10  Cl   2.752406   1.765516   2.752405   4.061173   4.577316
    11  Cl   4.061167   2.752403   1.765512   2.752401   4.061173
                    6          7          8          9         10
     6  C    0.000000
     7  Cl   1.765512   0.000000
     8  Cl   2.752412   3.171416   0.000000
     9  Cl   4.061165   5.493041   6.342832   0.000000
    10  Cl   4.061173   5.493049   3.171418   5.493052   0.000000
    11  Cl   4.577308   6.342819   5.493051   3.171416   3.171412
                   11
    11  Cl   0.000000
 Stoichiometry    C6Cl5(1-)
 Framework group  CS[SG(C6Cl5)]
 Deg. of freedom    19
 Full point group                 CS      NOp   2
 Largest Abelian subgroup         CS      NOp   2
 Largest concise Abelian subgroup C1      NOp   1
                         Standard orientation:                         
 ---------------------------------------------------------------------
 Center     Atomic      Atomic             Coordinates (Angstroms)
 Number     Number       Type             X           Y           Z
 ---------------------------------------------------------------------
      1          6           0       -0.385875   -1.183113   -0.000000
      2          6           0        0.831669   -0.480165   -0.000000
      3          6           0        0.831669    0.925735    0.000000
      4          6           0       -0.385875    1.628687    0.000000
      5          6           0       -1.603424    0.925731    0.000000
      6          6           0       -1.603419   -0.480161   -0.000000
      7         17           0       -3.132397   -1.362917   -0.000000
      8         17           0       -0.385874   -2.948633   -0.000000
      9         17           0       -0.385880    3.394199    0.000000
     10         17           0        2.360652   -1.362921   -0.000000
     11         17           0        2.360647    1.808491    0.000000
 ---------------------------------------------------------------------
 Rotational constants (GHZ):           0.6973090           0.4487110           0.2730234
 Standard basis: VSTO-6G (5D, 7F)
 There are    33 symmetry adapted cartesian basis functions of A'  symmetry.
 There are    11 symmetry adapted cartesian basis functions of A"  symmetry.
 There are    33 symmetry adapted basis functions of A'  symmetry.
 There are    11 symmetry adapted basis functions of A"  symmetry.
    44 basis functions,   264 primitive gaussians,    44 cartesian basis functions
    30 alpha electrons       30 beta electrons
       nuclear repulsion energy       349.2651906274 Hartrees.
 Integral buffers will be    131072 words long.
 Regular integral format.
 Two-electron integral symmetry is turned off.
 Do NDO integrals.
 One-electron integrals computed using PRISM.
 NBasis=    44 RedAO= T EigKep=  1.00D+00  NBF=    33    11
 NBsUse=    44 1.00D-06 EigRej= -1.00D+00 NBFU=    33    11
 Simple Huckel Guess.
 Initial guess orbital symmetries:
       Occupied  (A') (A') (A') (A') (A') (A') (A') (A') (A') (A')
                 (A') (A") (A') (A') (A") (A') (A') (A") (A') (A")
                 (A") (A') (A') (A') (A") (A') (A') (A") (A") (A')
       Virtual   (A") (A") (A") (A') (A') (A') (A') (A') (A') (A')
                 (A') (A') (A') (A')
 The electronic state of the initial guess is 1-A'.
 Keep J ints in memory in canonical form, NReq=865421.
 Overlap will be assumed to be unity.
 Requested convergence on RMS density matrix=1.00D-08 within**** cycles.
 Requested convergence on MAX density matrix=1.00D-06.
 Requested convergence on             energy=1.00D-06.
 No special actions if energy rises.
 Fock symm off for IB=2 I1=    1 I=   34 J=   33 Cut=1.00D-07 Err=9.57D-03
 Fock matrix is not symmetric: symmetry in diagonalization turned off.
 SCF Done:  E(RAM1) =  0.625917516345E-02 A.U. after   15 cycles
            NFock= 14  Conv=0.80D-08     -V/T= 1.0000

 **********************************************************************

            Population analysis using the SCF Density.

 **********************************************************************

 Orbital symmetries:
       Occupied  (A') (A') (A') (A') (A') (A') (A') (A') (A') (A')
                 (A') (A') (A') (A') (A") (A') (A") (A') (A") (A")
                 (A") (A') (A') (A') (A') (A') (A") (A") (A") (A')
       Virtual   (A") (A') (A") (A') (A') (A') (A') (A") (A') (A')
                 (A') (A') (A') (A')
 The electronic state is 1-A'.
 Alpha  occ. eigenvalues --   -1.30054  -1.24842  -1.24262  -1.22973  -1.22327
 Alpha  occ. eigenvalues --   -1.19879  -0.98612  -0.96170  -0.71384  -0.69846
 Alpha  occ. eigenvalues --   -0.53133  -0.48334  -0.47437  -0.43239  -0.42247
 Alpha  occ. eigenvalues --   -0.40059  -0.36425  -0.35627  -0.34815  -0.33014
 Alpha  occ. eigenvalues --   -0.32555  -0.32510  -0.31820  -0.30651  -0.29826
 Alpha  occ. eigenvalues --   -0.28439  -0.27816  -0.20613  -0.19048  -0.14689
 Alpha virt. eigenvalues --    0.13717   0.14922   0.15251   0.16389   0.16999
 Alpha virt. eigenvalues --    0.19258   0.20126   0.24972   0.28978   0.29019
 Alpha virt. eigenvalues --    0.30499   0.31216   0.34482   0.36930
          Condensed to atoms (all electrons):
               1          2          3          4          5          6
     1  C    4.033088   0.000000   0.000000   0.000000   0.000000   0.000000
     2  C    0.000000   4.109126   0.000000   0.000000   0.000000   0.000000
     3  C    0.000000   0.000000   4.033095   0.000000   0.000000   0.000000
     4  C    0.000000   0.000000   0.000000   4.041531   0.000000   0.000000
     5  C    0.000000   0.000000   0.000000   0.000000   4.314217   0.000000
     6  C    0.000000   0.000000   0.000000   0.000000   0.000000   4.041534
     7  Cl   0.000000   0.000000   0.000000   0.000000   0.000000   0.000000
     8  Cl   0.000000   0.000000   0.000000   0.000000   0.000000   0.000000
     9  Cl   0.000000   0.000000   0.000000   0.000000   0.000000   0.000000
    10  Cl   0.000000   0.000000   0.000000   0.000000   0.000000   0.000000
    11  Cl   0.000000   0.000000   0.000000   0.000000   0.000000   0.000000
               7          8          9         10         11
     1  C    0.000000   0.000000   0.000000   0.000000   0.000000
     2  C    0.000000   0.000000   0.000000   0.000000   0.000000
     3  C    0.000000   0.000000   0.000000   0.000000   0.000000
     4  C    0.000000   0.000000   0.000000   0.000000   0.000000
     5  C    0.000000   0.000000   0.000000   0.000000   0.000000
     6  C    0.000000   0.000000   0.000000   0.000000   0.000000
     7  Cl   7.090257   0.000000   0.000000   0.000000   0.000000
     8  Cl   0.000000   7.087753   0.000000   0.000000   0.000000
     9  Cl   0.000000   0.000000   7.090253   0.000000   0.000000
    10  Cl   0.000000   0.000000   0.000000   7.071397   0.000000
    11  Cl   0.000000   0.000000   0.000000   0.000000   7.087749
 Mulliken charges:
               1
     1  C   -0.033088
     2  C   -0.109126
     3  C   -0.033095
     4  C   -0.041531
     5  C   -0.314217
     6  C   -0.041534
     7  Cl  -0.090257
     8  Cl  -0.087753
     9  Cl  -0.090253
    10  Cl  -0.071397
    11  Cl  -0.087749
 Sum of Mulliken charges =  -1.00000
 Mulliken charges with hydrogens summed into heavy atoms:
               1
     1  C   -0.033088
     2  C   -0.109126
     3  C   -0.033095
     4  C   -0.041531
     5  C   -0.314217
     6  C   -0.041534
     7  Cl  -0.090257
     8  Cl  -0.087753
     9  Cl  -0.090253
    10  Cl  -0.071397
    11  Cl  -0.087749
 Charge=             -1.0000 electrons
 Dipole moment (field-independent basis, Debye):
    X=              3.9652    Y=             -2.2892    Z=              0.0000  Tot=              4.5786
 N-N= 3.492651906274D+02 E-N=-5.056582151317D+02  KE=-1.576067541890D+02
 Symmetry A'   KE=-1.203412812652D+02
 Symmetry A"   KE=-3.726547292375D+01
 Calling FoFJK, ICntrl=      2127 FMM=F ISym2X=1 I1Cent= 0 IOpClX= 0 NMat=1 NMatS=1 NMatT=0.
 ***** Axes restored to original set *****
 -------------------------------------------------------------------
 Center     Atomic                   Forces (Hartrees/Bohr)
 Number     Number              X              Y              Z
 -------------------------------------------------------------------
      1        6          -0.020878260    0.004985808   -0.000000000
      2        6          -0.000486778    0.017711696   -0.000000000
      3        6           0.020571742    0.006119587   -0.000000000
      4        6          -0.011907032   -0.008029501   -0.000000000
      5        6          -0.000292933    0.011049778   -0.000000000
      6        6           0.012319445   -0.007360961    0.000000000
      7       17           0.027031094    0.015337245    0.000000000
      8       17           0.025094673   -0.010733292    0.000000000
      9       17          -0.027833975    0.013830817    0.000000000
     10       17           0.000846416   -0.030818538    0.000000000
     11       17          -0.024464392   -0.012092638    0.000000000
 -------------------------------------------------------------------
 Cartesian Forces:  Max     0.030818538 RMS     0.013642457

 GradGradGradGradGradGradGradGradGradGradGradGradGradGradGradGradGradGrad
 Berny optimization.
 FormGI is forming the generalized inverse of G from B-inverse, IUseBI=4.
 Internal  Forces:  Max     0.031061888 RMS     0.012523669
 Search for a local minimum.
 Step number   1 out of a maximum of   57
 All quantities printed in internal units (Hartrees-Bohrs-Radians)
 Mixed Optimization -- RFO/linear search
 Second derivative matrix not updated -- first step.
 ITU=  0
     Eigenvalues ---    0.02011   0.02011   0.02011   0.02011   0.02011
     Eigenvalues ---    0.02011   0.02011   0.02011   0.25000   0.25000
     Eigenvalues ---    0.25000   0.25000   0.25000   0.25000   0.25000
     Eigenvalues ---    0.25000   0.29033   0.29033   0.29033   0.29033
     Eigenvalues ---    0.29033   0.41211   0.41599   0.44656   0.44657
     Eigenvalues ---    0.44657   0.44657
 RFO step:  Lambda=-2.13190757D-02 EMin= 2.01067220D-02
 Linear search not attempted -- first point.
 Iteration  1 RMS(Cart)=  0.05167634 RMS(Int)=  0.00028723
 Iteration  2 RMS(Cart)=  0.00033246 RMS(Int)=  0.00002330
 Iteration  3 RMS(Cart)=  0.00000013 RMS(Int)=  0.00002330
 ClnCor:  largest displacement from symmetrization is 5.83D-10 for atom    11.
 Variable       Old X    -DE/DX   Delta X   Delta X   Delta X     New X
                                 (Linear)    (Quad)   (Total)
    R1        2.65676  -0.01494   0.00000  -0.03088  -0.03092   2.62585
    R2        2.65677  -0.01242   0.00000  -0.02654  -0.02654   2.63023
    R3        3.33635  -0.02718   0.00000  -0.08721  -0.08721   3.24914
    R4        2.65677  -0.01494   0.00000  -0.03088  -0.03091   2.62585
    R5        3.33634  -0.03083   0.00000  -0.09893  -0.09893   3.23742
    R6        2.65677  -0.01242   0.00000  -0.02654  -0.02654   2.63022
    R7        3.33633  -0.02717   0.00000  -0.08719  -0.08719   3.24914
    R8        2.65678  -0.02888   0.00000  -0.06277  -0.06274   2.59404
    R9        3.33633  -0.03106   0.00000  -0.09967  -0.09967   3.23666
   R10        2.65675  -0.02887   0.00000  -0.06275  -0.06272   2.59403
   R11        3.33633  -0.03106   0.00000  -0.09966  -0.09966   3.23667
    A1        2.09439  -0.00434   0.00000  -0.01386  -0.01390   2.08050
    A2        2.09439  -0.00201   0.00000  -0.00848  -0.00846   2.08593
    A3        2.09440   0.00635   0.00000   0.02234   0.02236   2.11676
    A4        2.09439  -0.00341   0.00000  -0.00863  -0.00870   2.08570
    A5        2.09440   0.00171   0.00000   0.00431   0.00435   2.09875
    A6        2.09439   0.00171   0.00000   0.00432   0.00435   2.09874
    A7        2.09440  -0.00434   0.00000  -0.01386  -0.01390   2.08050
    A8        2.09440  -0.00201   0.00000  -0.00848  -0.00846   2.08593
    A9        2.09439   0.00635   0.00000   0.02234   0.02236   2.11675
   A10        2.09439   0.01075   0.00000   0.03806   0.03808   2.13248
   A11        2.09440  -0.00356   0.00000  -0.01235  -0.01236   2.08204
   A12        2.09440  -0.00719   0.00000  -0.02571  -0.02572   2.06867
   A13        2.09439  -0.00941   0.00000  -0.03976  -0.03967   2.05472
   A14        2.09440   0.01074   0.00000   0.03805   0.03808   2.13248
   A15        2.09439  -0.00356   0.00000  -0.01234  -0.01236   2.08203
   A16        2.09439  -0.00718   0.00000  -0.02570  -0.02572   2.06867
    D1       -0.00000   0.00000   0.00000   0.00000   0.00000   0.00000
    D2        3.14159   0.00000   0.00000   0.00000   0.00000   3.14159
    D3        3.14159  -0.00000   0.00000  -0.00000   0.00000   3.14159
    D4        0.00000   0.00000   0.00000   0.00000   0.00000   0.00000
    D5        0.00000  -0.00000   0.00000  -0.00000  -0.00000   0.00000
    D6        3.14159  -0.00000   0.00000  -0.00000   0.00000   3.14159
    D7        3.14159   0.00000   0.00000   0.00000   0.00000   3.14159
    D8       -0.00000   0.00000   0.00000   0.00000   0.00000   0.00000
    D9       -0.00000   0.00000   0.00000   0.00000   0.00000   0.00000
   D10        3.14159   0.00000   0.00000   0.00000   0.00000   3.14159
   D11        3.14159  -0.00000   0.00000  -0.00000   0.00000   3.14159
   D12        0.00000  -0.00000   0.00000  -0.00000   0.00000   0.00000
   D13        0.00000  -0.00000   0.00000  -0.00000   0.00000   0.00000
   D14        3.14159   0.00000   0.00000   0.00000   0.00000   3.14159
   D15        3.14159  -0.00000   0.00000  -0.00000   0.00000   3.14159
   D16       -0.00000   0.00000   0.00000   0.00000   0.00000   0.00000
   D17       -0.00000   0.00000   0.00000   0.00000   0.00000   0.00000
   D18        3.14159  -0.00000   0.00000  -0.00000   0.00000   3.14159
   D19        0.00000   0.00000   0.00000   0.00000   0.00000   0.00000
   D20        3.14159   0.00000   0.00000   0.00000   0.00000   3.14159
         Item               Value     Threshold  Converged?
 Maximum Force            0.031062     0.000450     NO 
 RMS     Force            0.012524     0.000300     NO 
 Maximum Displacement     0.177938     0.001800     NO 
 RMS     Displacement     0.051682     0.001200     NO 
 Predicted change in Energy=-1.133997D-02
 GradGradGradGradGradGradGradGradGradGradGradGradGradGradGradGradGradGrad

                          Input orientation:                          
 ---------------------------------------------------------------------
 Center     Atomic      Atomic             Coordinates (Angstroms)
 Number     Number       Type             X           Y           Z
 ---------------------------------------------------------------------
      1          6           0       -3.192068    0.199205    0.000000
      2          6           0       -2.011400    0.931899    0.000000
      3          6           0       -0.792285    0.265128   -0.000000
      4          6           0       -0.779453   -1.126667   -0.000000
      5          6           0       -1.934468   -1.868460   -0.000000
      6          6           0       -3.128467   -1.191198    0.000000
      7         17           0       -4.582391   -2.096568    0.000000
      8         17           0       -4.700751    1.023893    0.000000
      9         17           0        0.721979   -1.950851   -0.000000
     10         17           0       -2.058443    2.644420    0.000000
     11         17           0        0.668847    1.171399   -0.000000
 ---------------------------------------------------------------------
                    Distance matrix (angstroms):
                    1          2          3          4          5
     1  C    0.000000
     2  C    1.389538   0.000000
     3  C    2.400687   1.389541   0.000000
     4  C    2.752934   2.399039   1.391854   0.000000
     5  C    2.420082   2.801416   2.420079   1.372704   0.000000
     6  C    1.391857   2.399037   2.752931   2.349900   1.372704
     7  Cl   2.683947   3.972607   4.465703   3.924671   2.657729
     8  Cl   1.719371   2.690924   3.981436   4.472302   4.002253
     9  Cl   4.465703   3.972608   2.683945   1.712769   2.657725
    10  Cl   2.695214   1.713166   2.695215   3.982074   4.514583
    11  Cl   3.981434   2.690926   1.719370   2.716372   4.002248
                    6          7          8          9         10
     6  C    0.000000
     7  Cl   1.712772   0.000000
     8  Cl   2.716377   3.122704   0.000000
     9  Cl   3.924666   5.306371   6.185071   0.000000
    10  Cl   3.982074   5.370966   3.099662   5.370965   0.000000
    11  Cl   4.472298   6.185071   5.371624   3.122702   3.099661
                   11
    11  Cl   0.000000
 Stoichiometry    C6Cl5(1-)
 Framework group  CS[SG(C6Cl5)]
 Deg. of freedom    19
 Full point group                 CS      NOp   2
 Largest Abelian subgroup         CS      NOp   2
 Largest concise Abelian subgroup C1      NOp   1
                         Standard orientation:                         
 ---------------------------------------------------------------------
 Center     Atomic      Atomic             Coordinates (Angstroms)
 Number     Number       Type             X           Y           Z
 ---------------------------------------------------------------------
      1          6           0       -1.200343   -0.259305    0.000000
      2          6           0       -0.000000   -0.959299    0.000000
      3          6           0        1.200344   -0.259300   -0.000000
      4          6           0        1.174950    1.132323   -0.000000
      5          6           0       -0.000001    1.842117   -0.000000
      6          6           0       -1.174950    1.132321    0.000000
      7         17           0       -2.653189    1.997421    0.000000
      8         17           0       -2.685811   -1.125113    0.000000
      9         17           0        2.653182    1.997428   -0.000000
     10         17           0        0.000004   -2.672466    0.000000
     11         17           0        2.685813   -1.125103   -0.000000
 ---------------------------------------------------------------------
 Rotational constants (GHZ):           0.7204687           0.4747426           0.2861730
 Standard basis: VSTO-6G (5D, 7F)
 There are    33 symmetry adapted cartesian basis functions of A'  symmetry.
 There are    11 symmetry adapted cartesian basis functions of A"  symmetry.
 There are    33 symmetry adapted basis functions of A'  symmetry.
 There are    11 symmetry adapted basis functions of A"  symmetry.
    44 basis functions,   264 primitive gaussians,    44 cartesian basis functions
    30 alpha electrons       30 beta electrons
       nuclear repulsion energy       354.1618485984 Hartrees.
 Integral buffers will be    131072 words long.
 Regular integral format.
 Two-electron integral symmetry is turned off.
 Do NDO integrals.
 One-electron integrals computed using PRISM.
 NBasis=    44 RedAO= T EigKep=  1.00D+00  NBF=    33    11
 NBsUse=    44 1.00D-06 EigRej= -1.00D+00 NBFU=    33    11
 Initial guess from the checkpoint file:  "geometry_chks/123_56ClBzAnionIntermediate.chk"
 B after Tr=     0.000000    0.000000   -0.000000
         Rot=    0.866026    0.000000    0.000000    0.500000 Ang=  60.00 deg.
 Initial guess orbital symmetries:
       Occupied  (A') (A') (A') (A') (A') (A') (A') (A') (A') (A')
                 (A') (A') (A') (A') (A") (A') (A") (A') (A") (A")
                 (A") (A') (A') (A') (A') (A') (A") (A") (A") (A')
       Virtual   (A") (A') (A") (A') (A') (A') (A') (A") (A') (A')
                 (A') (A') (A') (A')
 Keep J ints in memory in canonical form, NReq=865421.
 Overlap will be assumed to be unity.
 Requested convergence on RMS density matrix=1.00D-08 within**** cycles.
 Requested convergence on MAX density matrix=1.00D-06.
 Requested convergence on             energy=1.00D-06.
 No special actions if energy rises.
 Fock symm off for IB=2 I1=    1 I=   34 J=    4 Cut=1.00D-07 Err=1.86D-03
 Fock matrix is not symmetric: symmetry in diagonalization turned off.
 SCF Done:  E(RAM1) = -0.225059361503E-02 A.U. after   13 cycles
            NFock= 12  Conv=0.70D-08     -V/T= 1.0000
 Calling FoFJK, ICntrl=      2127 FMM=F ISym2X=1 I1Cent= 0 IOpClX= 0 NMat=1 NMatS=1 NMatT=0.
 ***** Axes restored to original set *****
 -------------------------------------------------------------------
 Center     Atomic                   Forces (Hartrees/Bohr)
 Number     Number              X              Y              Z
 -------------------------------------------------------------------
      1        6          -0.021811858    0.007448006   -0.000000000
      2        6          -0.000558874    0.020415391   -0.000000000
      3        6           0.021368432    0.008637127   -0.000000000
      4        6           0.015183417   -0.008716281    0.000000000
      5        6           0.000314302   -0.011479037    0.000000000
      6        6          -0.014683411   -0.009535853   -0.000000000
      7       17          -0.003022576   -0.001886138    0.000000000
      8       17           0.002206773   -0.001173964    0.000000000
      9       17           0.003123215   -0.001718056    0.000000000
     10       17           0.000019176   -0.000698518    0.000000000
     11       17          -0.002138597   -0.001292677    0.000000000
 -------------------------------------------------------------------
 Cartesian Forces:  Max     0.021811858 RMS     0.008280742

 GradGradGradGradGradGradGradGradGradGradGradGradGradGradGradGradGradGrad
 Berny optimization.
 Using GEDIIS/GDIIS optimizer.
 FormGI is forming the generalized inverse of G from B-inverse, IUseBI=4.
 Internal  Forces:  Max     0.022327967 RMS     0.006990266
 Search for a local minimum.
 Step number   2 out of a maximum of   57
 All quantities printed in internal units (Hartrees-Bohrs-Radians)
 Mixed Optimization -- RFO/linear search
 Update second derivatives using D2CorX and points    1    2
 DE= -8.51D-03 DEPred=-1.13D-02 R= 7.50D-01
 TightC=F SS=  1.41D+00  RLast= 2.53D-01 DXNew= 5.0454D-01 7.5774D-01
 Trust test= 7.50D-01 RLast= 2.53D-01 DXMaxT set to 5.05D-01
 ITU=  1  0
 Use linear search instead of GDIIS.
     Eigenvalues ---    0.02011   0.02011   0.02011   0.02011   0.02011
     Eigenvalues ---    0.02011   0.02011   0.02011   0.23527   0.25000
     Eigenvalues ---    0.25000   0.25000   0.25000   0.25000   0.25000
     Eigenvalues ---    0.25458   0.25554   0.29033   0.29033   0.29033
     Eigenvalues ---    0.29280   0.41028   0.41189   0.44603   0.44657
     Eigenvalues ---    0.44657   0.70688
 RFO step:  Lambda=-2.67729756D-03 EMin= 2.01067248D-02
 Quartic linear search produced a step of -0.18149.
 Iteration  1 RMS(Cart)=  0.01299994 RMS(Int)=  0.00003517
 Iteration  2 RMS(Cart)=  0.00003827 RMS(Int)=  0.00000783
 Iteration  3 RMS(Cart)=  0.00000000 RMS(Int)=  0.00000783
 ClnCor:  largest displacement from symmetrization is 2.96D-10 for atom    10.
 Variable       Old X    -DE/DX   Delta X   Delta X   Delta X     New X
                                 (Linear)    (Quad)   (Total)
    R1        2.62585   0.02233   0.00561   0.03097   0.03659   2.66244
    R2        2.63023   0.01666   0.00482   0.02174   0.02656   2.65679
    R3        3.24914  -0.00250   0.01583  -0.03610  -0.02028   3.22886
    R4        2.62585   0.02233   0.00561   0.03097   0.03659   2.66244
    R5        3.23742  -0.00070   0.01795  -0.03499  -0.01704   3.22038
    R6        2.63022   0.01666   0.00482   0.02175   0.02656   2.65679
    R7        3.24914  -0.00250   0.01583  -0.03610  -0.02027   3.22887
    R8        2.59404   0.01781   0.01139   0.01188   0.02326   2.61729
    R9        3.23666   0.00356   0.01809  -0.02335  -0.00526   3.23141
   R10        2.59403   0.01781   0.01138   0.01189   0.02326   2.61729
   R11        3.23667   0.00356   0.01809  -0.02335  -0.00526   3.23141
    A1        2.08050  -0.00112   0.00252  -0.00770  -0.00516   2.07533
    A2        2.08593   0.00051   0.00154  -0.00153  -0.00000   2.08593
    A3        2.11676   0.00061  -0.00406   0.00923   0.00516   2.12192
    A4        2.08570   0.00172   0.00158   0.00381   0.00541   2.09110
    A5        2.09875  -0.00086  -0.00079  -0.00190  -0.00270   2.09604
    A6        2.09874  -0.00086  -0.00079  -0.00190  -0.00270   2.09604
    A7        2.08050  -0.00112   0.00252  -0.00770  -0.00517   2.07533
    A8        2.08593   0.00051   0.00154  -0.00153  -0.00000   2.08593
    A9        2.11675   0.00061  -0.00406   0.00923   0.00517   2.12192
   A10        2.13248  -0.00286  -0.00691   0.00322  -0.00370   2.12877
   A11        2.08204   0.00143   0.00224   0.00067   0.00292   2.08496
   A12        2.06867   0.00142   0.00467  -0.00389   0.00078   2.06945
   A13        2.05472   0.00624   0.00720   0.00516   0.01232   2.06705
   A14        2.13248  -0.00286  -0.00691   0.00322  -0.00370   2.12877
   A15        2.08203   0.00143   0.00224   0.00068   0.00292   2.08496
   A16        2.06867   0.00142   0.00467  -0.00389   0.00078   2.06945
    D1        0.00000   0.00000   0.00000   0.00000   0.00000   0.00000
    D2        3.14159   0.00000   0.00000   0.00000   0.00000   3.14159
    D3        3.14159  -0.00000   0.00000  -0.00000   0.00000   3.14159
    D4       -0.00000  -0.00000   0.00000  -0.00000   0.00000   0.00000
    D5       -0.00000  -0.00000   0.00000  -0.00000   0.00000   0.00000
    D6        3.14159  -0.00000   0.00000  -0.00000   0.00000   3.14159
    D7        3.14159   0.00000   0.00000   0.00000   0.00000   3.14159
    D8        0.00000   0.00000   0.00000   0.00000   0.00000   0.00000
    D9       -0.00000  -0.00000   0.00000  -0.00000   0.00000   0.00000
   D10        3.14159   0.00000   0.00000   0.00000   0.00000   3.14159
   D11        3.14159  -0.00000   0.00000  -0.00000   0.00000   3.14159
   D12       -0.00000  -0.00000   0.00000  -0.00000   0.00000   0.00000
   D13       -0.00000   0.00000   0.00000  -0.00000   0.00000   0.00000
   D14        3.14159   0.00000   0.00000   0.00000   0.00000   3.14159
   D15        3.14159  -0.00000   0.00000  -0.00000   0.00000   3.14159
   D16        0.00000  -0.00000   0.00000  -0.00000  -0.00000   0.00000
   D17       -0.00000   0.00000   0.00000   0.00000   0.00000   0.00000
   D18        3.14159  -0.00000   0.00000  -0.00000   0.00000   3.14159
   D19        0.00000  -0.00000   0.00000   0.00000   0.00000   0.00000
   D20        3.14159   0.00000   0.00000   0.00000   0.00000   3.14159
         Item               Value     Threshold  Converged?
 Maximum Force            0.022328     0.000450     NO 
 RMS     Force            0.006990     0.000300     NO 
 Maximum Displacement     0.035595     0.001800     NO 
 RMS     Displacement     0.012994     0.001200     NO 
 Predicted change in Energy=-1.793566D-03
 GradGradGradGradGradGradGradGradGradGradGradGradGradGradGradGradGradGrad

                          Input orientation:                          
 ---------------------------------------------------------------------
 Center     Atomic      Atomic             Coordinates (Angstroms)
 Number     Number       Type             X           Y           Z
 ---------------------------------------------------------------------
      1          6           0       -3.210904    0.206049   -0.000000
      2          6           0       -2.011779    0.945715   -0.000000
      3          6           0       -0.773853    0.272997    0.000000
      4          6           0       -0.764352   -1.132882    0.000000
      5          6           0       -1.934314   -1.874131    0.000000
      6          6           0       -3.143206   -1.198232   -0.000000
      7         17           0       -4.589879   -2.109932   -0.000000
      8         17           0       -4.707952    1.029641   -0.000000
      9         17           0        0.730190   -1.963785    0.000000
     10         17           0       -2.058575    2.649222   -0.000000
     11         17           0        0.675722    1.177539    0.000000
 ---------------------------------------------------------------------
                    Distance matrix (angstroms):
                    1          2          3          4          5
     1  C    0.000000
     2  C    1.408903   0.000000
     3  C    2.437971   1.408904   0.000000
     4  C    2.788969   2.424178   1.405911   0.000000
     5  C    2.440662   2.820909   2.440661   1.385013   0.000000
     6  C    1.405912   2.424177   2.788969   2.379751   1.385012
     7  Cl   2.695429   3.997946   4.498934   3.948326   2.666013
     8  Cl   1.708642   2.697479   4.006201   4.497609   4.015589
     9  Cl   4.498933   3.997947   2.695429   1.709987   2.666011
    10  Cl   2.701288   1.704150   2.701288   3.997414   4.525059
    11  Cl   4.006202   2.697480   1.708643   2.722472   4.015591
                    6          7          8          9         10
     6  C    0.000000
     7  Cl   1.709988   0.000000
     8  Cl   2.722471   3.141792   0.000000
     9  Cl   3.948324   5.322075   6.207574   0.000000
    10  Cl   3.997415   5.390458   3.105196   5.390458   0.000000
    11  Cl   4.497610   6.207577   5.385705   3.141796   3.105194
                   11
    11  Cl   0.000000
 Stoichiometry    C6Cl5(1-)
 Framework group  CS[SG(C6Cl5)]
 Deg. of freedom    19
 Full point group                 CS      NOp   2
 Largest Abelian subgroup         CS      NOp   2
 Largest concise Abelian subgroup C1      NOp   1
                         Standard orientation:                         
 ---------------------------------------------------------------------
 Center     Atomic      Atomic             Coordinates (Angstroms)
 Number     Number       Type             X           Y           Z
 ---------------------------------------------------------------------
      1          6           0       -1.218985   -0.267536   -0.000000
      2          6           0        0.000000   -0.973993   -0.000000
      3          6           0        1.218985   -0.267535    0.000000
      4          6           0        1.189875    1.138075    0.000000
      5          6           0       -0.000000    1.846916    0.000000
      6          6           0       -1.189876    1.138075   -0.000000
      7         17           0       -2.661039    2.009703   -0.000000
      8         17           0       -2.692852   -1.131928   -0.000000
      9         17           0        2.661036    2.009707    0.000000
     10         17           0        0.000002   -2.678143   -0.000000
     11         17           0        2.692853   -1.131928    0.000000
 ---------------------------------------------------------------------
 Rotational constants (GHZ):           0.7138021           0.4714230           0.2839146
 Standard basis: VSTO-6G (5D, 7F)
 There are    33 symmetry adapted cartesian basis functions of A'  symmetry.
 There are    11 symmetry adapted cartesian basis functions of A"  symmetry.
 There are    33 symmetry adapted basis functions of A'  symmetry.
 There are    11 symmetry adapted basis functions of A"  symmetry.
    44 basis functions,   264 primitive gaussians,    44 cartesian basis functions
    30 alpha electrons       30 beta electrons
       nuclear repulsion energy       353.2085865723 Hartrees.
 Integral buffers will be    131072 words long.
 Regular integral format.
 Two-electron integral symmetry is turned off.
 Do NDO integrals.
 One-electron integrals computed using PRISM.
 NBasis=    44 RedAO= T EigKep=  1.00D+00  NBF=    33    11
 NBsUse=    44 1.00D-06 EigRej= -1.00D+00 NBFU=    33    11
 Initial guess from the checkpoint file:  "geometry_chks/123_56ClBzAnionIntermediate.chk"
 B after Tr=     0.000000   -0.000000   -0.000000
         Rot=    1.000000   -0.000000    0.000000    0.000001 Ang=   0.00 deg.
 Initial guess orbital symmetries:
       Occupied  (A') (A') (A') (A') (A') (A') (A') (A') (A') (A')
                 (A') (A') (A') (A') (A") (A') (A") (A') (A") (A")
                 (A") (A') (A') (A') (A') (A') (A") (A") (A") (A')
       Virtual   (A") (A") (A') (A') (A') (A') (A') (A") (A') (A')
                 (A') (A') (A') (A')
 Keep J ints in memory in canonical form, NReq=865421.
 Overlap will be assumed to be unity.
 Requested convergence on RMS density matrix=1.00D-08 within**** cycles.
 Requested convergence on MAX density matrix=1.00D-06.
 Requested convergence on             energy=1.00D-06.
 No special actions if energy rises.
 Fock symm off for IB=2 I1=    1 I=   34 J=   13 Cut=1.00D-07 Err=6.42D-04
 Fock matrix is not symmetric: symmetry in diagonalization turned off.
 SCF Done:  E(RAM1) = -0.367702776310E-02 A.U. after   13 cycles
            NFock= 12  Conv=0.21D-08     -V/T= 1.0000
 Calling FoFJK, ICntrl=      2127 FMM=F ISym2X=1 I1Cent= 0 IOpClX= 0 NMat=1 NMatS=1 NMatT=0.
 ***** Axes restored to original set *****
 -------------------------------------------------------------------
 Center     Atomic                   Forces (Hartrees/Bohr)
 Number     Number              X              Y              Z
 -------------------------------------------------------------------
      1        6           0.004761329   -0.001446328   -0.000000000
      2        6           0.000194528   -0.007059922   -0.000000000
      3        6          -0.004674625   -0.001704731   -0.000000000
      4        6          -0.002471953    0.003540204   -0.000000000
      5        6          -0.000058448    0.002119214   -0.000000000
      6        6           0.002273497    0.003670782    0.000000000
      7       17          -0.002279138   -0.000944881    0.000000000
      8       17          -0.000706497    0.000181862    0.000000000
      9       17           0.002328201   -0.000818372    0.000000000
     10       17          -0.000061710    0.002242342    0.000000000
     11       17           0.000694817    0.000219830    0.000000000
 -------------------------------------------------------------------
 Cartesian Forces:  Max     0.007059922 RMS     0.002198174

 GradGradGradGradGradGradGradGradGradGradGradGradGradGradGradGradGradGrad
 Berny optimization.
 Using GEDIIS/GDIIS optimizer.
 FormGI is forming the generalized inverse of G from B-inverse, IUseBI=4.
 Internal  Forces:  Max     0.004219008 RMS     0.001379889
 Search for a local minimum.
 Step number   3 out of a maximum of   57
 All quantities printed in internal units (Hartrees-Bohrs-Radians)
 Mixed Optimization -- RFO/linear search
 Update second derivatives using D2CorX and points    1    2    3
 DE= -1.43D-03 DEPred=-1.79D-03 R= 7.95D-01
 TightC=F SS=  1.41D+00  RLast= 8.18D-02 DXNew= 8.4853D-01 2.4532D-01
 Trust test= 7.95D-01 RLast= 8.18D-02 DXMaxT set to 5.05D-01
 ITU=  1  1  0
 Use linear search instead of GDIIS.
     Eigenvalues ---    0.02011   0.02011   0.02011   0.02011   0.02011
     Eigenvalues ---    0.02011   0.02011   0.02011   0.24132   0.25000
     Eigenvalues ---    0.25000   0.25000   0.25000   0.25000   0.25065
     Eigenvalues ---    0.25369   0.26504   0.29033   0.29033   0.29046
     Eigenvalues ---    0.30171   0.41125   0.41906   0.44657   0.44657
     Eigenvalues ---    0.44865   0.78924
 RFO step:  Lambda=-9.39401751D-05 EMin= 2.01067243D-02
 Quartic linear search produced a step of -0.16025.
 Iteration  1 RMS(Cart)=  0.00369735 RMS(Int)=  0.00000477
 Iteration  2 RMS(Cart)=  0.00000844 RMS(Int)=  0.00000052
 Iteration  3 RMS(Cart)=  0.00000000 RMS(Int)=  0.00000052
 ClnCor:  largest displacement from symmetrization is 1.18D-10 for atom     8.
 Variable       Old X    -DE/DX   Delta X   Delta X   Delta X     New X
                                 (Linear)    (Quad)   (Total)
    R1        2.66244  -0.00422  -0.00586  -0.00140  -0.00726   2.65518
    R2        2.65679  -0.00380  -0.00426  -0.00205  -0.00631   2.65048
    R3        3.22886   0.00071   0.00325   0.00118   0.00443   3.23329
    R4        2.66244  -0.00422  -0.00586  -0.00140  -0.00726   2.65518
    R5        3.22038   0.00224   0.00273   0.00610   0.00883   3.22921
    R6        2.65679  -0.00380  -0.00426  -0.00205  -0.00631   2.65048
    R7        3.22887   0.00071   0.00325   0.00118   0.00443   3.23329
    R8        2.61729  -0.00107  -0.00373   0.00334  -0.00039   2.61691
    R9        3.23141   0.00243   0.00084   0.00835   0.00919   3.24060
   R10        2.61729  -0.00107  -0.00373   0.00334  -0.00039   2.61690
   R11        3.23141   0.00243   0.00084   0.00835   0.00919   3.24060
    A1        2.07533   0.00037   0.00083   0.00037   0.00120   2.07653
    A2        2.08593   0.00011   0.00000   0.00076   0.00076   2.08669
    A3        2.12192  -0.00048  -0.00083  -0.00113  -0.00196   2.11996
    A4        2.09110   0.00078  -0.00087   0.00267   0.00180   2.09291
    A5        2.09604  -0.00039   0.00043  -0.00133  -0.00090   2.09514
    A6        2.09604  -0.00039   0.00043  -0.00133  -0.00090   2.09514
    A7        2.07533   0.00037   0.00083   0.00037   0.00120   2.07653
    A8        2.08593   0.00011   0.00000   0.00076   0.00076   2.08669
    A9        2.12192  -0.00048  -0.00083  -0.00113  -0.00196   2.11996
   A10        2.12877  -0.00069   0.00059  -0.00339  -0.00280   2.12598
   A11        2.08496  -0.00033  -0.00047  -0.00043  -0.00090   2.08406
   A12        2.06945   0.00102  -0.00012   0.00383   0.00370   2.07315
   A13        2.06705  -0.00014  -0.00197   0.00338   0.00140   2.06845
   A14        2.12877  -0.00069   0.00059  -0.00339  -0.00280   2.12598
   A15        2.08496  -0.00032  -0.00047  -0.00043  -0.00090   2.08406
   A16        2.06945   0.00102  -0.00012   0.00382   0.00370   2.07315
    D1       -0.00000   0.00000   0.00000   0.00000   0.00000   0.00000
    D2        3.14159   0.00000   0.00000   0.00000   0.00000   3.14159
    D3        3.14159  -0.00000   0.00000  -0.00000   0.00000   3.14159
    D4        0.00000   0.00000   0.00000   0.00000   0.00000   0.00000
    D5        0.00000  -0.00000   0.00000  -0.00000  -0.00000   0.00000
    D6        3.14159  -0.00000   0.00000  -0.00000   0.00000   3.14159
    D7        3.14159   0.00000   0.00000   0.00000   0.00000   3.14159
    D8       -0.00000   0.00000   0.00000   0.00000   0.00000   0.00000
    D9       -0.00000   0.00000   0.00000   0.00000   0.00000   0.00000
   D10        3.14159   0.00000   0.00000   0.00000   0.00000   3.14159
   D11        3.14159  -0.00000   0.00000  -0.00000   0.00000   3.14159
   D12        0.00000  -0.00000   0.00000  -0.00000  -0.00000   0.00000
   D13       -0.00000  -0.00000   0.00000  -0.00000   0.00000   0.00000
   D14        3.14159   0.00000   0.00000   0.00000   0.00000   3.14159
   D15        3.14159  -0.00000   0.00000  -0.00000   0.00000   3.14159
   D16        0.00000   0.00000   0.00000   0.00000   0.00000   0.00000
   D17        0.00000   0.00000   0.00000   0.00000   0.00000   0.00000
   D18        3.14159  -0.00000   0.00000  -0.00000   0.00000   3.14159
   D19       -0.00000   0.00000   0.00000   0.00000   0.00000   0.00000
   D20        3.14159   0.00000   0.00000   0.00000   0.00000   3.14159
         Item               Value     Threshold  Converged?
 Maximum Force            0.004219     0.000450     NO 
 RMS     Force            0.001380     0.000300     NO 
 Maximum Displacement     0.013612     0.001800     NO 
 RMS     Displacement     0.003702     0.001200     NO 
 Predicted change in Energy=-9.653027D-05
 GradGradGradGradGradGradGradGradGradGradGradGradGradGradGradGradGradGrad

                          Input orientation:                          
 ---------------------------------------------------------------------
 Center     Atomic      Atomic             Coordinates (Angstroms)
 Number     Number       Type             X           Y           Z
 ---------------------------------------------------------------------
      1          6           0       -3.208159    0.204065   -0.000000
      2          6           0       -2.011639    0.940637    0.000000
      3          6           0       -0.776485    0.270866    0.000000
      4          6           0       -0.764066   -1.131653    0.000000
      5          6           0       -1.934373   -1.871971   -0.000000
      6          6           0       -3.143559   -1.197021   -0.000000
      7         17           0       -4.597082   -2.106960   -0.000000
      8         17           0       -4.707146    1.028995   -0.000000
      9         17           0        0.737220   -1.960422    0.000000
     10         17           0       -2.058564    2.648817    0.000000
     11         17           0        0.674952    1.176847    0.000000
 ---------------------------------------------------------------------
                    Distance matrix (angstroms):
                    1          2          3          4          5
     1  C    0.000000
     2  C    1.405061   0.000000
     3  C    2.432592   1.405062   0.000000
     4  C    2.785271   2.418847   1.402574   0.000000
     5  C    2.435663   2.813668   2.435663   1.384807   0.000000
     6  C    1.402575   2.418847   2.785271   2.380391   1.384806
     7  Cl   2.696284   3.996544   4.500113   3.955153   2.673057
     8  Cl   1.710985   2.696955   4.003106   4.496251   4.012962
     9  Cl   4.500114   3.996544   2.696284   1.714852   2.673057
    10  Cl   2.701551   1.708825   2.701551   3.995957   4.522493
    11  Cl   4.003105   2.696955   1.710985   2.720284   4.012962
                    6          7          8          9         10
     6  C    0.000000
     7  Cl   1.714852   0.000000
     8  Cl   2.720284   3.137886   0.000000
     9  Cl   3.955152   5.336314   6.211097   0.000000
    10  Cl   3.995958   5.390871   3.104643   5.390871   0.000000
    11  Cl   4.496251   6.211097   5.384128   3.137886   3.104642
                   11
    11  Cl   0.000000
 Stoichiometry    C6Cl5(1-)
 Framework group  CS[SG(C6Cl5)]
 Deg. of freedom    19
 Full point group                 CS      NOp   2
 Largest Abelian subgroup         CS      NOp   2
 Largest concise Abelian subgroup C1      NOp   1
                         Standard orientation:                         
 ---------------------------------------------------------------------
 Center     Atomic      Atomic             Coordinates (Angstroms)
 Number     Number       Type             X           Y           Z
 ---------------------------------------------------------------------
      1          6           0        0.265060   -1.216296    0.000000
      2          6           0        0.968496   -0.000000    0.000000
      3          6           0        0.265060    1.216296    0.000000
      4          6           0       -1.137272    1.190196    0.000000
      5          6           0       -1.845173    0.000000    0.000000
      6          6           0       -1.137272   -1.190195    0.000000
      7         17           0       -2.006954   -2.668157    0.000000
      8         17           0        1.130841   -2.692064    0.000000
      9         17           0       -2.006954    2.668157    0.000000
     10         17           0        2.677320    0.000000    0.000000
     11         17           0        1.130841    2.692064    0.000000
 ---------------------------------------------------------------------
 Rotational constants (GHZ):           0.7151959           0.4704497           0.2837810
 Standard basis: VSTO-6G (5D, 7F)
 There are    33 symmetry adapted cartesian basis functions of A'  symmetry.
 There are    11 symmetry adapted cartesian basis functions of A"  symmetry.
 There are    33 symmetry adapted basis functions of A'  symmetry.
 There are    11 symmetry adapted basis functions of A"  symmetry.
    44 basis functions,   264 primitive gaussians,    44 cartesian basis functions
    30 alpha electrons       30 beta electrons
       nuclear repulsion energy       353.2079331227 Hartrees.
 Integral buffers will be    131072 words long.
 Regular integral format.
 Two-electron integral symmetry is turned off.
 Do NDO integrals.
 One-electron integrals computed using PRISM.
 NBasis=    44 RedAO= T EigKep=  1.00D+00  NBF=    33    11
 NBsUse=    44 1.00D-06 EigRej= -1.00D+00 NBFU=    33    11
 Initial guess from the checkpoint file:  "geometry_chks/123_56ClBzAnionIntermediate.chk"
 B after Tr=     0.000000   -0.000000    0.000000
         Rot=    0.707107   -0.000000   -0.000000   -0.707107 Ang= -90.00 deg.
 Initial guess orbital symmetries:
       Occupied  (A') (A') (A') (A') (A') (A') (A') (A') (A') (A')
                 (A') (A') (A') (A') (A") (A') (A") (A') (A") (A")
                 (A") (A') (A') (A') (A') (A') (A") (A") (A") (A')
       Virtual   (A") (A") (A') (A') (A') (A') (A') (A") (A') (A')
                 (A') (A') (A') (A')
 Keep J ints in memory in canonical form, NReq=865421.
 Overlap will be assumed to be unity.
 Requested convergence on RMS density matrix=1.00D-08 within**** cycles.
 Requested convergence on MAX density matrix=1.00D-06.
 Requested convergence on             energy=1.00D-06.
 No special actions if energy rises.
 Fock symm off for IB=2 I1=    1 I=   34 J=   16 Cut=1.00D-07 Err=1.85D-04
 Fock matrix is not symmetric: symmetry in diagonalization turned off.
 SCF Done:  E(RAM1) = -0.376780854305E-02 A.U. after   12 cycles
            NFock= 11  Conv=0.47D-08     -V/T= 1.0000
 Calling FoFJK, ICntrl=      2127 FMM=F ISym2X=1 I1Cent= 0 IOpClX= 0 NMat=1 NMatS=1 NMatT=0.
 ***** Axes restored to original set *****
 -------------------------------------------------------------------
 Center     Atomic                   Forces (Hartrees/Bohr)
 Number     Number              X              Y              Z
 -------------------------------------------------------------------
      1        6          -0.000524097    0.000471315   -0.000000000
      2        6           0.000004941   -0.000175629   -0.000000000
      3        6           0.000497422    0.000499631   -0.000000000
      4        6          -0.000768600   -0.000792651    0.000000000
      5        6          -0.000012260    0.000462094    0.000000000
      6        6           0.000810346   -0.000748734    0.000000000
      7       17           0.000273436    0.000099723    0.000000000
      8       17           0.000050268   -0.000017053    0.000000000
      9       17          -0.000278460    0.000084608    0.000000000
     10       17          -0.000003785    0.000136452    0.000000000
     11       17          -0.000049210   -0.000019757    0.000000000
 -------------------------------------------------------------------
 Cartesian Forces:  Max     0.000810346 RMS     0.000342380

 GradGradGradGradGradGradGradGradGradGradGradGradGradGradGradGradGradGrad
 Berny optimization.
 Using GEDIIS/GDIIS optimizer.
 FormGI is forming the generalized inverse of G from B-inverse, IUseBI=4.
 Internal  Forces:  Max     0.000790690 RMS     0.000224715
 Search for a local minimum.
 Step number   4 out of a maximum of   57
 All quantities printed in internal units (Hartrees-Bohrs-Radians)
 Mixed Optimization -- En-DIIS/RFO-DIIS
 Update second derivatives using D2CorX and points    1    2    3    4
 DE= -9.08D-05 DEPred=-9.65D-05 R= 9.40D-01
 TightC=F SS=  1.41D+00  RLast= 2.31D-02 DXNew= 8.4853D-01 6.9371D-02
 Trust test= 9.40D-01 RLast= 2.31D-02 DXMaxT set to 5.05D-01
 ITU=  1  1  1  0
 Use linear search instead of GDIIS.
     Eigenvalues ---    0.02011   0.02011   0.02011   0.02011   0.02011
     Eigenvalues ---    0.02011   0.02011   0.02011   0.23984   0.24805
     Eigenvalues ---    0.25000   0.25000   0.25000   0.25000   0.25118
     Eigenvalues ---    0.25332   0.26355   0.28773   0.29033   0.29033
     Eigenvalues ---    0.30548   0.41122   0.43027   0.44657   0.44657
     Eigenvalues ---    0.50124   0.76212
 RFO step:  Lambda=-3.91848126D-06 EMin= 2.01067237D-02
 Quartic linear search produced a step of -0.07540.
 Iteration  1 RMS(Cart)=  0.00080375 RMS(Int)=  0.00000021
 Iteration  2 RMS(Cart)=  0.00000028 RMS(Int)=  0.00000004
 ClnCor:  largest displacement from symmetrization is 1.22D-10 for atom    11.
 Variable       Old X    -DE/DX   Delta X   Delta X   Delta X     New X
                                 (Linear)    (Quad)   (Total)
    R1        2.65518   0.00014   0.00055  -0.00020   0.00035   2.65553
    R2        2.65048   0.00045   0.00048   0.00040   0.00087   2.65136
    R3        3.23329  -0.00005  -0.00033   0.00019  -0.00014   3.23315
    R4        2.65518   0.00014   0.00055  -0.00020   0.00035   2.65553
    R5        3.22921   0.00014  -0.00067   0.00131   0.00064   3.22985
    R6        2.65048   0.00045   0.00048   0.00040   0.00087   2.65136
    R7        3.23329  -0.00005  -0.00033   0.00019  -0.00014   3.23315
    R8        2.61691  -0.00079   0.00003  -0.00157  -0.00154   2.61537
    R9        3.24060  -0.00028  -0.00069   0.00011  -0.00058   3.24002
   R10        2.61690  -0.00079   0.00003  -0.00157  -0.00154   2.61537
   R11        3.24060  -0.00028  -0.00069   0.00011  -0.00058   3.24002
    A1        2.07653  -0.00026  -0.00009  -0.00069  -0.00078   2.07575
    A2        2.08669   0.00011  -0.00006   0.00043   0.00037   2.08706
    A3        2.11996   0.00014   0.00015   0.00026   0.00041   2.12037
    A4        2.09291  -0.00006  -0.00014   0.00030   0.00017   2.09307
    A5        2.09514   0.00003   0.00007  -0.00015  -0.00008   2.09506
    A6        2.09514   0.00003   0.00007  -0.00015  -0.00008   2.09506
    A7        2.07653  -0.00026  -0.00009  -0.00069  -0.00078   2.07575
    A8        2.08669   0.00011  -0.00006   0.00043   0.00037   2.08706
    A9        2.11996   0.00014   0.00015   0.00026   0.00041   2.12037
   A10        2.12598   0.00029   0.00021   0.00059   0.00080   2.12677
   A11        2.08406  -0.00004   0.00007  -0.00019  -0.00012   2.08394
   A12        2.07315  -0.00024  -0.00028  -0.00040  -0.00068   2.07247
   A13        2.06845  -0.00000  -0.00011  -0.00009  -0.00020   2.06825
   A14        2.12598   0.00029   0.00021   0.00059   0.00080   2.12677
   A15        2.08406  -0.00004   0.00007  -0.00019  -0.00012   2.08394
   A16        2.07315  -0.00024  -0.00028  -0.00040  -0.00068   2.07247
    D1        0.00000  -0.00000   0.00000  -0.00000   0.00000   0.00000
    D2        3.14159   0.00000   0.00000   0.00000   0.00000   3.14159
    D3        3.14159  -0.00000   0.00000  -0.00000   0.00000   3.14159
    D4        0.00000  -0.00000   0.00000  -0.00000   0.00000   0.00000
    D5        0.00000  -0.00000   0.00000  -0.00000   0.00000   0.00000
    D6        3.14159  -0.00000   0.00000  -0.00000   0.00000   3.14159
    D7        3.14159   0.00000   0.00000   0.00000   0.00000   3.14159
    D8        0.00000   0.00000   0.00000   0.00000   0.00000   0.00000
    D9        0.00000   0.00000   0.00000   0.00000   0.00000   0.00000
   D10        3.14159   0.00000   0.00000   0.00000   0.00000   3.14159
   D11        3.14159  -0.00000   0.00000  -0.00000   0.00000   3.14159
   D12        0.00000  -0.00000   0.00000  -0.00000   0.00000   0.00000
   D13        0.00000  -0.00000   0.00000  -0.00000   0.00000   0.00000
   D14        3.14159   0.00000   0.00000   0.00000   0.00000   3.14159
   D15        3.14159  -0.00000   0.00000  -0.00000   0.00000   3.14159
   D16        0.00000  -0.00000   0.00000  -0.00000   0.00000   0.00000
   D17        0.00000  -0.00000   0.00000  -0.00000   0.00000   0.00000
   D18        3.14159  -0.00000   0.00000  -0.00000   0.00000   3.14159
   D19        0.00000   0.00000   0.00000   0.00000   0.00000   0.00000
   D20        3.14159   0.00000   0.00000   0.00000   0.00000   3.14159
         Item               Value     Threshold  Converged?
 Maximum Force            0.000791     0.000450     NO 
 RMS     Force            0.000225     0.000300     YES
 Maximum Displacement     0.002948     0.001800     NO 
 RMS     Displacement     0.000804     0.001200     YES
 Predicted change in Energy=-2.568098D-06
 GradGradGradGradGradGradGradGradGradGradGradGradGradGradGradGradGradGrad

                          Input orientation:                          
 ---------------------------------------------------------------------
 Center     Atomic      Atomic             Coordinates (Angstroms)
 Number     Number       Type             X           Y           Z
 ---------------------------------------------------------------------
      1          6           0       -3.208387    0.204416    0.000000
      2          6           0       -2.011648    0.940984    0.000000
      3          6           0       -0.776277    0.271228    0.000000
      4          6           0       -0.764833   -1.131762    0.000000
      5          6           0       -1.934379   -1.871761    0.000000
      6          6           0       -3.142788   -1.197087    0.000000
      7         17           0       -4.595522   -2.107704    0.000000
      8         17           0       -4.707544    1.028880    0.000000
      9         17           0        0.735704   -1.961250    0.000000
     10         17           0       -2.058583    2.649502    0.000000
     11         17           0        0.675356    1.176754    0.000000
 ---------------------------------------------------------------------
                    Distance matrix (angstroms):
                    1          2          3          4          5
     1  C    0.000000
     2  C    1.405246   0.000000
     3  C    2.433027   1.405246   0.000000
     4  C    2.785018   2.418848   1.403037   0.000000
     5  C    2.435899   2.813805   2.435899   1.383993   0.000000
     6  C    1.403037   2.418847   2.785018   2.378852   1.383993
     7  Cl   2.696302   3.996361   4.499550   3.953055   2.671582
     8  Cl   1.710911   2.697328   4.003611   4.495926   4.012999
     9  Cl   4.499551   3.996361   2.696302   1.714544   2.671582
    10  Cl   2.701943   1.709163   2.701943   3.996467   4.522968
    11  Cl   4.003611   2.697328   1.710911   2.720917   4.012999
                    6          7          8          9         10
     6  C    0.000000
     7  Cl   1.714544   0.000000
     8  Cl   2.720918   3.138585   0.000000
     9  Cl   3.953054   5.333237   6.210461   0.000000
    10  Cl   3.996467   5.391389   3.105384   5.391389   0.000000
    11  Cl   4.495925   6.210461   5.384931   3.138585   3.105384
                   11
    11  Cl   0.000000
 Stoichiometry    C6Cl5(1-)
 Framework group  CS[SG(C6Cl5)]
 Deg. of freedom    19
 Full point group                 CS      NOp   2
 Largest Abelian subgroup         CS      NOp   2
 Largest concise Abelian subgroup C1      NOp   1
                         Standard orientation:                         
 ---------------------------------------------------------------------
 Center     Atomic      Atomic             Coordinates (Angstroms)
 Number     Number       Type             X           Y           Z
 ---------------------------------------------------------------------
      1          6           0        0.265515   -1.216514    0.000000
      2          6           0        0.968942   -0.000000    0.000000
      3          6           0        0.265515    1.216514    0.000000
      4          6           0       -1.137260    1.189426    0.000000
      5          6           0       -1.844863    0.000000    0.000000
      6          6           0       -1.137260   -1.189426    0.000000
      7         17           0       -2.007641   -2.666618    0.000000
      8         17           0        1.130837   -2.692465    0.000000
      9         17           0       -2.007641    2.666618    0.000000
     10         17           0        2.678106   -0.000000    0.000000
     11         17           0        1.130837    2.692465    0.000000
 ---------------------------------------------------------------------
 Rotational constants (GHZ):           0.7148507           0.4706487           0.2837990
 Standard basis: VSTO-6G (5D, 7F)
 There are    33 symmetry adapted cartesian basis functions of A'  symmetry.
 There are    11 symmetry adapted cartesian basis functions of A"  symmetry.
 There are    33 symmetry adapted basis functions of A'  symmetry.
 There are    11 symmetry adapted basis functions of A"  symmetry.
    44 basis functions,   264 primitive gaussians,    44 cartesian basis functions
    30 alpha electrons       30 beta electrons
       nuclear repulsion energy       353.2100119664 Hartrees.
 Integral buffers will be    131072 words long.
 Regular integral format.
 Two-electron integral symmetry is turned off.
 Do NDO integrals.
 One-electron integrals computed using PRISM.
 NBasis=    44 RedAO= T EigKep=  1.00D+00  NBF=    33    11
 NBsUse=    44 1.00D-06 EigRej= -1.00D+00 NBFU=    33    11
 Initial guess from the checkpoint file:  "geometry_chks/123_56ClBzAnionIntermediate.chk"
 B after Tr=    -0.000000    0.000000    0.000000
         Rot=    1.000000   -0.000000   -0.000000   -0.000000 Ang=   0.00 deg.
 Initial guess orbital symmetries:
       Occupied  (A') (A') (A') (A') (A') (A') (A') (A') (A') (A')
                 (A') (A') (A') (A') (A") (A') (A") (A') (A") (A")
                 (A") (A') (A') (A') (A') (A') (A") (A") (A") (A')
       Virtual   (A") (A") (A') (A') (A') (A') (A') (A") (A') (A')
                 (A') (A') (A') (A')
 Keep J ints in memory in canonical form, NReq=865421.
 Overlap will be assumed to be unity.
 Requested convergence on RMS density matrix=1.00D-08 within**** cycles.
 Requested convergence on MAX density matrix=1.00D-06.
 Requested convergence on             energy=1.00D-06.
 No special actions if energy rises.
 Fock symm off for IB=2 I1=    1 I=   34 J=   22 Cut=1.00D-07 Err=3.10D-05
 Fock matrix is not symmetric: symmetry in diagonalization turned off.
 SCF Done:  E(RAM1) = -0.377028860345E-02 A.U. after   10 cycles
            NFock=  9  Conv=0.42D-08     -V/T= 1.0000
 Calling FoFJK, ICntrl=      2127 FMM=F ISym2X=1 I1Cent= 0 IOpClX= 0 NMat=1 NMatS=1 NMatT=0.
 ***** Axes restored to original set *****
 -------------------------------------------------------------------
 Center     Atomic                   Forces (Hartrees/Bohr)
 Number     Number              X              Y              Z
 -------------------------------------------------------------------
      1        6          -0.000170203    0.000202704   -0.000000000
      2        6           0.000005003   -0.000178106   -0.000000000
      3        6           0.000158784    0.000211918    0.000000000
      4        6           0.000021759   -0.000097079   -0.000000000
      5        6          -0.000002447    0.000091128   -0.000000000
      6        6          -0.000016569   -0.000097971    0.000000000
      7       17          -0.000024998    0.000035014    0.000000000
      8       17           0.000121297   -0.000064945   -0.000000000
      9       17           0.000023086    0.000036348    0.000000000
     10       17           0.000001857   -0.000067508    0.000000000
     11       17          -0.000117567   -0.000071502    0.000000000
 -------------------------------------------------------------------
 Cartesian Forces:  Max     0.000211918 RMS     0.000086364

 GradGradGradGradGradGradGradGradGradGradGradGradGradGradGradGradGradGrad
 Berny optimization.
 Using GEDIIS/GDIIS optimizer.
 FormGI is forming the generalized inverse of G from B-inverse, IUseBI=4.
 Internal  Forces:  Max     0.000141463 RMS     0.000051082
 Search for a local minimum.
 Step number   5 out of a maximum of   57
 All quantities printed in internal units (Hartrees-Bohrs-Radians)
 Mixed Optimization -- En-DIIS/RFO-DIIS
 Swapping is turned off.
 Update second derivatives using D2CorX and points    1    2    3    4    5
 DE= -2.48D-06 DEPred=-2.57D-06 R= 9.66D-01
 TightC=F SS=  1.41D+00  RLast= 3.43D-03 DXNew= 8.4853D-01 1.0285D-02
 Trust test= 9.66D-01 RLast= 3.43D-03 DXMaxT set to 5.05D-01
 ITU=  1  1  1  1  0
     Eigenvalues ---    0.02011   0.02011   0.02011   0.02011   0.02011
     Eigenvalues ---    0.02011   0.02011   0.02011   0.20943   0.24903
     Eigenvalues ---    0.25000   0.25000   0.25000   0.25000   0.25129
     Eigenvalues ---    0.26527   0.26827   0.28597   0.29033   0.29033
     Eigenvalues ---    0.30533   0.41121   0.43268   0.44657   0.44657
     Eigenvalues ---    0.55954   0.75497
 En-DIIS/RFO-DIIS/Sim-DIIS IScMMF=       -3 using points:     5    4
 RFO step:  Lambda=-4.40400223D-07.
 DidBck=F Rises=F RFO-DIIS coefs:    1.06591   -0.06591
 Iteration  1 RMS(Cart)=  0.00021484 RMS(Int)=  0.00000002
 Iteration  2 RMS(Cart)=  0.00000003 RMS(Int)=  0.00000001
 ClnCor:  largest displacement from symmetrization is 2.18D-12 for atom    11.
 Variable       Old X    -DE/DX   Delta X   Delta X   Delta X     New X
                                 (Linear)    (Quad)   (Total)
    R1        2.65553  -0.00005   0.00002  -0.00010  -0.00008   2.65545
    R2        2.65136   0.00002   0.00006   0.00007   0.00012   2.65148
    R3        3.23315  -0.00014  -0.00001  -0.00052  -0.00053   3.23263
    R4        2.65553  -0.00005   0.00002  -0.00010  -0.00008   2.65545
    R5        3.22985  -0.00007   0.00004  -0.00023  -0.00019   3.22966
    R6        2.65136   0.00002   0.00006   0.00007   0.00012   2.65148
    R7        3.23315  -0.00014  -0.00001  -0.00052  -0.00053   3.23263
    R8        2.61537   0.00004  -0.00010   0.00005  -0.00005   2.61532
    R9        3.24002   0.00000  -0.00004  -0.00002  -0.00006   3.23996
   R10        2.61537   0.00004  -0.00010   0.00005  -0.00005   2.61532
   R11        3.24002   0.00000  -0.00004  -0.00002  -0.00006   3.23996
    A1        2.07575  -0.00006  -0.00005  -0.00028  -0.00033   2.07542
    A2        2.08706   0.00003   0.00002   0.00012   0.00015   2.08721
    A3        2.12037   0.00003   0.00003   0.00015   0.00018   2.12056
    A4        2.09307   0.00014   0.00001   0.00054   0.00055   2.09362
    A5        2.09506  -0.00007  -0.00001  -0.00027  -0.00028   2.09478
    A6        2.09506  -0.00007  -0.00001  -0.00027  -0.00027   2.09478
    A7        2.07575  -0.00006  -0.00005  -0.00028  -0.00033   2.07542
    A8        2.08706   0.00003   0.00002   0.00012   0.00015   2.08721
    A9        2.12037   0.00003   0.00003   0.00015   0.00018   2.12056
   A10        2.12677  -0.00005   0.00005  -0.00014  -0.00009   2.12669
   A11        2.08394  -0.00005  -0.00001  -0.00020  -0.00021   2.08373
   A12        2.07247   0.00009  -0.00004   0.00034   0.00029   2.07277
   A13        2.06825   0.00007  -0.00001   0.00030   0.00029   2.06854
   A14        2.12677  -0.00005   0.00005  -0.00014  -0.00009   2.12669
   A15        2.08394  -0.00005  -0.00001  -0.00020  -0.00020   2.08373
   A16        2.07247   0.00009  -0.00004   0.00034   0.00029   2.07277
    D1        0.00000   0.00000   0.00000   0.00000   0.00000   0.00000
    D2        3.14159   0.00000   0.00000   0.00000   0.00000   3.14159
    D3        3.14159  -0.00000   0.00000  -0.00000   0.00000   3.14159
    D4        0.00000   0.00000   0.00000   0.00000   0.00000   0.00000
    D5        0.00000  -0.00000   0.00000  -0.00000   0.00000   0.00000
    D6        3.14159  -0.00000   0.00000  -0.00000   0.00000   3.14159
    D7        3.14159  -0.00000   0.00000  -0.00000   0.00000   3.14159
    D8        0.00000  -0.00000   0.00000  -0.00000   0.00000   0.00000
    D9        0.00000   0.00000   0.00000   0.00000   0.00000   0.00000
   D10        3.14159   0.00000   0.00000   0.00000   0.00000   3.14159
   D11        3.14159  -0.00000   0.00000  -0.00000   0.00000   3.14159
   D12        0.00000  -0.00000   0.00000  -0.00000   0.00000   0.00000
   D13        0.00000  -0.00000   0.00000  -0.00000   0.00000   0.00000
   D14        3.14159   0.00000   0.00000   0.00000   0.00000   3.14159
   D15        3.14159  -0.00000   0.00000  -0.00000   0.00000   3.14159
   D16        0.00000   0.00000   0.00000   0.00000   0.00000   0.00000
   D17        0.00000  -0.00000   0.00000  -0.00000   0.00000   0.00000
   D18        3.14159  -0.00000   0.00000  -0.00000   0.00000   3.14159
   D19        0.00000   0.00000   0.00000   0.00000   0.00000   0.00000
   D20        3.14159   0.00000   0.00000   0.00000   0.00000   3.14159
         Item               Value     Threshold  Converged?
 Maximum Force            0.000141     0.000450     YES
 RMS     Force            0.000051     0.000300     YES
 Maximum Displacement     0.000791     0.001800     YES
 RMS     Displacement     0.000215     0.001200     YES
 Predicted change in Energy=-2.202010D-07
 Optimization completed.
    -- Stationary point found.
                           ----------------------------
                           !   Optimized Parameters   !
                           ! (Angstroms and Degrees)  !
 --------------------------                            --------------------------
 ! Name  Definition              Value          Derivative Info.                !
 --------------------------------------------------------------------------------
 ! R1    R(1,2)                  1.4052         -DE/DX =   -0.0001              !
 ! R2    R(1,6)                  1.403          -DE/DX =    0.0                 !
 ! R3    R(1,8)                  1.7109         -DE/DX =   -0.0001              !
 ! R4    R(2,3)                  1.4052         -DE/DX =   -0.0001              !
 ! R5    R(2,10)                 1.7092         -DE/DX =   -0.0001              !
 ! R6    R(3,4)                  1.403          -DE/DX =    0.0                 !
 ! R7    R(3,11)                 1.7109         -DE/DX =   -0.0001              !
 ! R8    R(4,5)                  1.384          -DE/DX =    0.0                 !
 ! R9    R(4,9)                  1.7145         -DE/DX =    0.0                 !
 ! R10   R(5,6)                  1.384          -DE/DX =    0.0                 !
 ! R11   R(6,7)                  1.7145         -DE/DX =    0.0                 !
 ! A1    A(2,1,6)              118.9316         -DE/DX =   -0.0001              !
 ! A2    A(2,1,8)              119.5799         -DE/DX =    0.0                 !
 ! A3    A(6,1,8)              121.4885         -DE/DX =    0.0                 !
 ! A4    A(1,2,3)              119.9242         -DE/DX =    0.0001              !
 ! A5    A(1,2,10)             120.0379         -DE/DX =   -0.0001              !
 ! A6    A(3,2,10)             120.0379         -DE/DX =   -0.0001              !
 ! A7    A(2,3,4)              118.9316         -DE/DX =   -0.0001              !
 ! A8    A(2,3,11)             119.5799         -DE/DX =    0.0                 !
 ! A9    A(4,3,11)             121.4885         -DE/DX =    0.0                 !
 ! A10   A(3,4,5)              121.8551         -DE/DX =    0.0                 !
 ! A11   A(3,4,9)              119.4009         -DE/DX =    0.0                 !
 ! A12   A(5,4,9)              118.744          -DE/DX =    0.0001              !
 ! A13   A(4,5,6)              118.5022         -DE/DX =    0.0001              !
 ! A14   A(1,6,5)              121.8551         -DE/DX =    0.0                 !
 ! A15   A(1,6,7)              119.4009         -DE/DX =    0.0                 !
 ! A16   A(5,6,7)              118.744          -DE/DX =    0.0001              !
 ! D1    D(6,1,2,3)              0.0            -DE/DX =    0.0                 !
 ! D2    D(6,1,2,10)           180.0            -DE/DX =    0.0                 !
 ! D3    D(8,1,2,3)            180.0            -DE/DX =    0.0                 !
 ! D4    D(8,1,2,10)             0.0            -DE/DX =    0.0                 !
 ! D5    D(2,1,6,5)              0.0            -DE/DX =    0.0                 !
 ! D6    D(2,1,6,7)            180.0            -DE/DX =    0.0                 !
 ! D7    D(8,1,6,5)            180.0            -DE/DX =    0.0                 !
 ! D8    D(8,1,6,7)              0.0            -DE/DX =    0.0                 !
 ! D9    D(1,2,3,4)              0.0            -DE/DX =    0.0                 !
 ! D10   D(1,2,3,11)           180.0            -DE/DX =    0.0                 !
 ! D11   D(10,2,3,4)           180.0            -DE/DX =    0.0                 !
 ! D12   D(10,2,3,11)            0.0            -DE/DX =    0.0                 !
 ! D13   D(2,3,4,5)              0.0            -DE/DX =    0.0                 !
 ! D14   D(2,3,4,9)            180.0            -DE/DX =    0.0                 !
 ! D15   D(11,3,4,5)           180.0            -DE/DX =    0.0                 !
 ! D16   D(11,3,4,9)             0.0            -DE/DX =    0.0                 !
 ! D17   D(3,4,5,6)              0.0            -DE/DX =    0.0                 !
 ! D18   D(9,4,5,6)            180.0            -DE/DX =    0.0                 !
 ! D19   D(4,5,6,1)              0.0            -DE/DX =    0.0                 !
 ! D20   D(4,5,6,7)            180.0            -DE/DX =    0.0                 !
 --------------------------------------------------------------------------------
 GradGradGradGradGradGradGradGradGradGradGradGradGradGradGradGradGradGrad

                          Input orientation:                          
 ---------------------------------------------------------------------
 Center     Atomic      Atomic             Coordinates (Angstroms)
 Number     Number       Type             X           Y           Z
 ---------------------------------------------------------------------
      1          6           0       -3.208387    0.204416    0.000000
      2          6           0       -2.011648    0.940984    0.000000
      3          6           0       -0.776277    0.271228    0.000000
      4          6           0       -0.764833   -1.131762    0.000000
      5          6           0       -1.934379   -1.871761    0.000000
      6          6           0       -3.142788   -1.197087    0.000000
      7         17           0       -4.595522   -2.107704    0.000000
      8         17           0       -4.707544    1.028880    0.000000
      9         17           0        0.735704   -1.961250    0.000000
     10         17           0       -2.058583    2.649502    0.000000
     11         17           0        0.675356    1.176754    0.000000
 ---------------------------------------------------------------------
                    Distance matrix (angstroms):
                    1          2          3          4          5
     1  C    0.000000
     2  C    1.405246   0.000000
     3  C    2.433027   1.405246   0.000000
     4  C    2.785018   2.418848   1.403037   0.000000
     5  C    2.435899   2.813805   2.435899   1.383993   0.000000
     6  C    1.403037   2.418847   2.785018   2.378852   1.383993
     7  Cl   2.696302   3.996361   4.499550   3.953055   2.671582
     8  Cl   1.710911   2.697328   4.003611   4.495926   4.012999
     9  Cl   4.499551   3.996361   2.696302   1.714544   2.671582
    10  Cl   2.701943   1.709163   2.701943   3.996467   4.522968
    11  Cl   4.003611   2.697328   1.710911   2.720917   4.012999
                    6          7          8          9         10
     6  C    0.000000
     7  Cl   1.714544   0.000000
     8  Cl   2.720918   3.138585   0.000000
     9  Cl   3.953054   5.333237   6.210461   0.000000
    10  Cl   3.996467   5.391389   3.105384   5.391389   0.000000
    11  Cl   4.495925   6.210461   5.384931   3.138585   3.105384
                   11
    11  Cl   0.000000
 Stoichiometry    C6Cl5(1-)
 Framework group  CS[SG(C6Cl5)]
 Deg. of freedom    19
 Full point group                 CS      NOp   2
 Largest Abelian subgroup         CS      NOp   2
 Largest concise Abelian subgroup C1      NOp   1
                         Standard orientation:                         
 ---------------------------------------------------------------------
 Center     Atomic      Atomic             Coordinates (Angstroms)
 Number     Number       Type             X           Y           Z
 ---------------------------------------------------------------------
      1          6           0        0.265515   -1.216514    0.000000
      2          6           0        0.968942   -0.000000    0.000000
      3          6           0        0.265515    1.216514    0.000000
      4          6           0       -1.137260    1.189426    0.000000
      5          6           0       -1.844863    0.000000    0.000000
      6          6           0       -1.137260   -1.189426    0.000000
      7         17           0       -2.007641   -2.666618    0.000000
      8         17           0        1.130837   -2.692465    0.000000
      9         17           0       -2.007641    2.666618    0.000000
     10         17           0        2.678106   -0.000000    0.000000
     11         17           0        1.130837    2.692465    0.000000
 ---------------------------------------------------------------------
 Rotational constants (GHZ):           0.7148507           0.4706487           0.2837990

 **********************************************************************

            Population analysis using the SCF Density.

 **********************************************************************

 Orbital symmetries:
       Occupied  (A') (A') (A') (A') (A') (A') (A') (A') (A') (A')
                 (A') (A') (A') (A') (A") (A') (A") (A') (A") (A")
                 (A") (A') (A') (A') (A') (A') (A") (A") (A") (A')
       Virtual   (A") (A") (A') (A') (A') (A') (A') (A") (A') (A')
                 (A') (A') (A') (A')
 The electronic state is 1-A'.
 Alpha  occ. eigenvalues --   -1.31536  -1.26000  -1.25168  -1.23766  -1.22923
 Alpha  occ. eigenvalues --   -1.19836  -0.98545  -0.96878  -0.72248  -0.70553
 Alpha  occ. eigenvalues --   -0.54028  -0.49088  -0.48369  -0.43484  -0.42980
 Alpha  occ. eigenvalues --   -0.40421  -0.37026  -0.35825  -0.35260  -0.33214
 Alpha  occ. eigenvalues --   -0.32664  -0.32376  -0.31314  -0.30405  -0.29474
 Alpha  occ. eigenvalues --   -0.27745  -0.27040  -0.19685  -0.18500  -0.14221
 Alpha virt. eigenvalues --    0.14325   0.15769   0.16355   0.17832   0.18220
 Alpha virt. eigenvalues --    0.20678   0.21426   0.25818   0.29598   0.29721
 Alpha virt. eigenvalues --    0.30829   0.31988   0.35691   0.37665
          Condensed to atoms (all electrons):
               1          2          3          4          5          6
     1  C    4.061231   0.000000   0.000000   0.000000   0.000000   0.000000
     2  C    0.000000   4.121555   0.000000   0.000000   0.000000   0.000000
     3  C    0.000000   0.000000   4.061231   0.000000   0.000000   0.000000
     4  C    0.000000   0.000000   0.000000   4.044812   0.000000   0.000000
     5  C    0.000000   0.000000   0.000000   0.000000   4.331251   0.000000
     6  C    0.000000   0.000000   0.000000   0.000000   0.000000   4.044812
     7  Cl   0.000000   0.000000   0.000000   0.000000   0.000000   0.000000
     8  Cl   0.000000   0.000000   0.000000   0.000000   0.000000   0.000000
     9  Cl   0.000000   0.000000   0.000000   0.000000   0.000000   0.000000
    10  Cl   0.000000   0.000000   0.000000   0.000000   0.000000   0.000000
    11  Cl   0.000000   0.000000   0.000000   0.000000   0.000000   0.000000
               7          8          9         10         11
     1  C    0.000000   0.000000   0.000000   0.000000   0.000000
     2  C    0.000000   0.000000   0.000000   0.000000   0.000000
     3  C    0.000000   0.000000   0.000000   0.000000   0.000000
     4  C    0.000000   0.000000   0.000000   0.000000   0.000000
     5  C    0.000000   0.000000   0.000000   0.000000   0.000000
     6  C    0.000000   0.000000   0.000000   0.000000   0.000000
     7  Cl   7.079050   0.000000   0.000000   0.000000   0.000000
     8  Cl   0.000000   7.062087   0.000000   0.000000   0.000000
     9  Cl   0.000000   0.000000   7.079050   0.000000   0.000000
    10  Cl   0.000000   0.000000   0.000000   7.052832   0.000000
    11  Cl   0.000000   0.000000   0.000000   0.000000   7.062087
 Mulliken charges:
               1
     1  C   -0.061231
     2  C   -0.121555
     3  C   -0.061231
     4  C   -0.044812
     5  C   -0.331251
     6  C   -0.044812
     7  Cl  -0.079050
     8  Cl  -0.062087
     9  Cl  -0.079050
    10  Cl  -0.052832
    11  Cl  -0.062087
 Sum of Mulliken charges =  -1.00000
 Mulliken charges with hydrogens summed into heavy atoms:
               1
     1  C   -0.061231
     2  C   -0.121555
     3  C   -0.061231
     4  C   -0.044812
     5  C   -0.331251
     6  C   -0.044812
     7  Cl  -0.079050
     8  Cl  -0.062087
     9  Cl  -0.079050
    10  Cl  -0.052832
    11  Cl  -0.062087
 Charge=             -1.0000 electrons
 Dipole moment (field-independent basis, Debye):
    X=              4.8791    Y=              0.0000    Z=              0.0000  Tot=              4.8791
 N-N= 3.532100119664D+02 E-N=-5.133892904811D+02  KE=-1.576268640110D+02
 Symmetry A'   KE=-1.203770372334D+02
 Symmetry A"   KE=-3.724982677755D+01
 1\1\GINC-SH02-02N46\FOpt\RAM1\ZDO\C6Cl5(1-)\JLAPIER\08-Dec-2025\0\\# o
 pt am1 SCF(maxcyc=10000)\\Anion Intermediate (removed 4) 123_56\\-1,1\
 C,-3.208386534,0.204415532,0.\C,-2.0116482613,0.9409837179,0.\C,-0.776
 2765758,0.2712280551,0.\C,-0.764832769,-1.1317619559,0.\C,-1.934379068
 4,-1.871760547,0.\C,-3.1427877211,-1.1970870258,0.\Cl,-4.5955218629,-2
 .1077043779,0.\Cl,-4.7075439307,1.0288803744,0.\Cl,0.7357035247,-1.961
 2503064,0.\Cl,-2.0585829358,2.6495022127,0.\Cl,0.6753561344,1.17675432
 09,0.\\Version=ES64L-G16RevB.01\State=1-A'\HF=-0.0037703\RMSD=4.167e-0
 9\RMSF=8.636e-05\Dipole=-0.0527121,1.9188442,0.\PG=CS [SG(C6Cl5)]\\@


 ALTHOUGH J.J. COULD DIAGNOSE THE FAULTS OF AN
 APPARATUS WITH UNCANNY ACCURACY, IT WAS JUST AS
 WELL NOT TO LET HIM HANDLE IT.
   -- GEORGE THOMPSON, ABOUT HIS FATHER
 Job cpu time:       0 days  0 hours  0 minutes  5.7 seconds.
 Elapsed time:       0 days  0 hours  0 minutes 16.7 seconds.
 File lengths (MBytes):  RWF=     10 Int=      0 D2E=      0 Chk=      2 Scr=      1
 Normal termination of Gaussian 16 at Mon Dec  8 17:08:42 2025.
