 Entering Gaussian System, Link 0=g16
 Initial command:
 /share/software/user/restricted/gaussian/g16.B01/l1.exe "/home/users/jlapier/Chloroaromatics/Gau-30318.inp" -scrdir="/home/users/jlapier/Chloroaromatics/"
 Entering Link 1 = /share/software/user/restricted/gaussian/g16.B01/l1.exe PID=     30319.
  
 Copyright (c) 1988-2017, Gaussian, Inc.  All Rights Reserved.
  
 This is part of the Gaussian(R) 16 program.  It is based on
 the Gaussian(R) 09 system (copyright 2009, Gaussian, Inc.),
 the Gaussian(R) 03 system (copyright 2003, Gaussian, Inc.),
 the Gaussian(R) 98 system (copyright 1998, Gaussian, Inc.),
 the Gaussian(R) 94 system (copyright 1995, Gaussian, Inc.),
 the Gaussian 92(TM) system (copyright 1992, Gaussian, Inc.),
 the Gaussian 90(TM) system (copyright 1990, Gaussian, Inc.),
 the Gaussian 88(TM) system (copyright 1988, Gaussian, Inc.),
 the Gaussian 86(TM) system (copyright 1986, Carnegie Mellon
 University), and the Gaussian 82(TM) system (copyright 1983,
 Carnegie Mellon University). Gaussian is a federally registered
 trademark of Gaussian, Inc.
  
 This software contains proprietary and confidential information,
 including trade secrets, belonging to Gaussian, Inc.
  
 This software is provided under written license and may be
 used, copied, transmitted, or stored only in accord with that
 written license.
  
 The following legend is applicable only to US Government
 contracts under FAR:
  
                    RESTRICTED RIGHTS LEGEND
  
 Use, reproduction and disclosure by the US Government is
 subject to restrictions as set forth in subparagraphs (a)
 and (c) of the Commercial Computer Software - Restricted
 Rights clause in FAR 52.227-19.
  
 Gaussian, Inc.
 340 Quinnipiac St., Bldg. 40, Wallingford CT 06492
  
  
 ---------------------------------------------------------------
 Warning -- This program may not be used in any manner that
 competes with the business of Gaussian, Inc. or will provide
 assistance to any competitor of Gaussian, Inc.  The licensee
 of this program is prohibited from giving any competitor of
 Gaussian, Inc. access to this program.  By using this program,
 the user acknowledges that Gaussian, Inc. is engaged in the
 business of creating and licensing software in the field of
 computational chemistry and represents and warrants to the
 licensee that it is not a competitor of Gaussian, Inc. and that
 it will not use this program in any manner prohibited above.
 ---------------------------------------------------------------
  

 Cite this work as:
 Gaussian 16, Revision B.01,
 M. J. Frisch, G. W. Trucks, H. B. Schlegel, G. E. Scuseria, 
 M. A. Robb, J. R. Cheeseman, G. Scalmani, V. Barone, 
 G. A. Petersson, H. Nakatsuji, X. Li, M. Caricato, A. V. Marenich, 
 J. Bloino, B. G. Janesko, R. Gomperts, B. Mennucci, H. P. Hratchian, 
 J. V. Ortiz, A. F. Izmaylov, J. L. Sonnenberg, D. Williams-Young, 
 F. Ding, F. Lipparini, F. Egidi, J. Goings, B. Peng, A. Petrone, 
 T. Henderson, D. Ranasinghe, V. G. Zakrzewski, J. Gao, N. Rega, 
 G. Zheng, W. Liang, M. Hada, M. Ehara, K. Toyota, R. Fukuda, 
 J. Hasegawa, M. Ishida, T. Nakajima, Y. Honda, O. Kitao, H. Nakai, 
 T. Vreven, K. Throssell, J. A. Montgomery, Jr., J. E. Peralta, 
 F. Ogliaro, M. J. Bearpark, J. J. Heyd, E. N. Brothers, K. N. Kudin, 
 V. N. Staroverov, T. A. Keith, R. Kobayashi, J. Normand, 
 K. Raghavachari, A. P. Rendell, J. C. Burant, S. S. Iyengar, 
 J. Tomasi, M. Cossi, J. M. Millam, M. Klene, C. Adamo, R. Cammi, 
 J. W. Ochterski, R. L. Martin, K. Morokuma, O. Farkas, 
 J. B. Foresman, and D. J. Fox, Gaussian, Inc., Wallingford CT, 2016.
 
 ******************************************
 Gaussian 16:  ES64L-G16RevB.01 20-Dec-2017
                 8-Dec-2025 
 ******************************************
 %mem=2GB
 %nprocshare=1
 Will use up to    1 processors via shared memory.
 %chk=geometry_chks/123_5ClBzAnionIntermediate.chk
 ---------------------------
 # opt am1 SCF(maxcyc=10000)
 ---------------------------
 1/18=20,19=15,26=1,38=1/1,3;
 2/9=110,12=2,17=6,18=5,40=1/2;
 3/5=2,25=1,41=700000,71=1/1,2,3;
 4/35=1/1;
 5/5=2,7=10000,35=1,38=5/2;
 6/7=2,8=2,9=2,10=2,28=1/1;
 7//1,2,3,16;
 1/18=20,19=15,26=1/3(2);
 2/9=110/2;
 99//99;
 2/9=110/2;
 3/5=2,25=1,41=700000,71=1,135=20/1,2,3;
 4/5=5,16=3,35=1/1;
 5/5=2,7=10000,35=1,38=5/2;
 7//1,2,3,16;
 1/18=20,19=15,26=1/3(-5);
 2/9=110/2;
 6/7=2,8=2,9=2,10=2,19=2,28=1/1;
 99/9=1/99;
 ------------------------------------
 Anion Intermediate (removed 4) 123_5
 ------------------------------------
 Symbolic Z-matrix:
 Charge = -1 Multiplicity = 1
 C                    -3.20928   0.19943   0. 
 C                    -2.0115    0.93555   0. 
 C                    -0.77511   0.2663    0. 
 C                    -0.7365   -1.13907   0. 
 C                    -1.93429  -1.87519   0. 
 C                    -3.17067  -1.20594   0. 
 Cl                   -4.67483  -2.13035   0. 
 Cl                   -4.76193   1.03987   0. 
 Cl                    0.81614  -1.97951   0. 
 Cl                   -2.05998   2.7004    0. 
 H                     0.72905   1.19071   0. 
 
 Add virtual bond connecting atoms H11        and C3         Dist= 3.34D+00.

 GradGradGradGradGradGradGradGradGradGradGradGradGradGradGradGradGradGrad
 Berny optimization.
 Initialization pass.
                           ----------------------------
                           !    Initial Parameters    !
                           ! (Angstroms and Degrees)  !
 --------------------------                            --------------------------
 ! Name  Definition              Value          Derivative Info.                !
 --------------------------------------------------------------------------------
 ! R1    R(1,2)                  1.4059         estimate D2E/DX2                !
 ! R2    R(1,6)                  1.4059         estimate D2E/DX2                !
 ! R3    R(1,8)                  1.7655         estimate D2E/DX2                !
 ! R4    R(2,3)                  1.4059         estimate D2E/DX2                !
 ! R5    R(2,10)                 1.7655         estimate D2E/DX2                !
 ! R6    R(3,4)                  1.4059         estimate D2E/DX2                !
 ! R7    R(3,11)                 1.7655         estimate D2E/DX2                !
 ! R8    R(4,5)                  1.4059         estimate D2E/DX2                !
 ! R9    R(4,9)                  1.7655         estimate D2E/DX2                !
 ! R10   R(5,6)                  1.4059         estimate D2E/DX2                !
 ! R11   R(6,7)                  1.7655         estimate D2E/DX2                !
 ! A1    A(2,1,6)              119.9999         estimate D2E/DX2                !
 ! A2    A(2,1,8)              119.9999         estimate D2E/DX2                !
 ! A3    A(6,1,8)              120.0001         estimate D2E/DX2                !
 ! A4    A(1,2,3)              120.0            estimate D2E/DX2                !
 ! A5    A(1,2,10)             120.0001         estimate D2E/DX2                !
 ! A6    A(3,2,10)             119.9999         estimate D2E/DX2                !
 ! A7    A(2,3,4)              120.0001         estimate D2E/DX2                !
 ! A8    A(2,3,11)             120.0            estimate D2E/DX2                !
 ! A9    A(4,3,11)             119.9999         estimate D2E/DX2                !
 ! A10   A(3,4,5)              119.9997         estimate D2E/DX2                !
 ! A11   A(3,4,9)              120.0003         estimate D2E/DX2                !
 ! A12   A(5,4,9)              120.0            estimate D2E/DX2                !
 ! A13   A(4,5,6)              120.0            estimate D2E/DX2                !
 ! A14   A(1,6,5)              120.0003         estimate D2E/DX2                !
 ! A15   A(1,6,7)              119.9999         estimate D2E/DX2                !
 ! A16   A(5,6,7)              119.9998         estimate D2E/DX2                !
 ! D1    D(6,1,2,3)              0.0            estimate D2E/DX2                !
 ! D2    D(6,1,2,10)           180.0            estimate D2E/DX2                !
 ! D3    D(8,1,2,3)            180.0            estimate D2E/DX2                !
 ! D4    D(8,1,2,10)             0.0            estimate D2E/DX2                !
 ! D5    D(2,1,6,5)              0.0            estimate D2E/DX2                !
 ! D6    D(2,1,6,7)            180.0            estimate D2E/DX2                !
 ! D7    D(8,1,6,5)            180.0            estimate D2E/DX2                !
 ! D8    D(8,1,6,7)              0.0            estimate D2E/DX2                !
 ! D9    D(1,2,3,4)              0.0            estimate D2E/DX2                !
 ! D10   D(1,2,3,11)           180.0            estimate D2E/DX2                !
 ! D11   D(10,2,3,4)           180.0            estimate D2E/DX2                !
 ! D12   D(10,2,3,11)            0.0            estimate D2E/DX2                !
 ! D13   D(2,3,4,5)              0.0            estimate D2E/DX2                !
 ! D14   D(2,3,4,9)            180.0            estimate D2E/DX2                !
 ! D15   D(11,3,4,5)           180.0            estimate D2E/DX2                !
 ! D16   D(11,3,4,9)             0.0            estimate D2E/DX2                !
 ! D17   D(3,4,5,6)              0.0            estimate D2E/DX2                !
 ! D18   D(9,4,5,6)            180.0            estimate D2E/DX2                !
 ! D19   D(4,5,6,1)              0.0            estimate D2E/DX2                !
 ! D20   D(4,5,6,7)            180.0            estimate D2E/DX2                !
 --------------------------------------------------------------------------------
 Trust Radius=3.00D-01 FncErr=1.00D-07 GrdErr=1.00D-07 EigMax=2.50D+02 EigMin=1.00D-04
 Number of steps in this run=     57 maximum allowed number of steps=    100.
 GradGradGradGradGradGradGradGradGradGradGradGradGradGradGradGradGradGrad

                          Input orientation:                          
 ---------------------------------------------------------------------
 Center     Atomic      Atomic             Coordinates (Angstroms)
 Number     Number       Type             X           Y           Z
 ---------------------------------------------------------------------
      1          6           0       -3.209280    0.199430    0.000000
      2          6           0       -2.011500    0.935550    0.000000
      3          6           0       -0.775110    0.266300    0.000000
      4          6           0       -0.736500   -1.139070    0.000000
      5          6           0       -1.934290   -1.875190    0.000000
      6          6           0       -3.170670   -1.205940    0.000000
      7         17           0       -4.674830   -2.130350    0.000000
      8         17           0       -4.761930    1.039870    0.000000
      9         17           0        0.816140   -1.979510    0.000000
     10         17           0       -2.059980    2.700400    0.000000
     11          1           0        0.729050    1.190710    0.000000
 ---------------------------------------------------------------------
                    Distance matrix (angstroms):
                    1          2          3          4          5
     1  C    0.000000
     2  C    1.405898   0.000000
     3  C    2.435088   1.405900   0.000000
     4  C    2.811801   2.435092   1.405900   0.000000
     5  C    2.435087   2.811800   2.435093   1.405907   0.000000
     6  C    1.405900   2.435088   2.811796   2.435088   1.405892
     7  Cl   2.752401   4.061166   4.577308   4.061167   2.752393
     8  Cl   1.765520   2.752408   4.061175   4.577321   4.061173
     9  Cl   4.577312   4.061173   2.752406   1.765511   2.752408
    10  Cl   2.752406   1.765516   2.752405   4.061173   4.577316
    11  H    4.061167   2.752403   1.765512   2.752401   4.061173
                    6          7          8          9         10
     6  C    0.000000
     7  Cl   1.765512   0.000000
     8  Cl   2.752412   3.171416   0.000000
     9  Cl   4.061165   5.493041   6.342832   0.000000
    10  Cl   4.061173   5.493049   3.171418   5.493052   0.000000
    11  H    4.577308   6.342819   5.493051   3.171416   3.171412
                   11
    11  H    0.000000
 Stoichiometry    C6HCl4(1-)
 Framework group  CS[SG(C6HCl4)]
 Deg. of freedom    19
 Full point group                 CS      NOp   2
 Largest Abelian subgroup         CS      NOp   2
 Largest concise Abelian subgroup C1      NOp   1
                         Standard orientation:                         
 ---------------------------------------------------------------------
 Center     Atomic      Atomic             Coordinates (Angstroms)
 Number     Number       Type             X           Y           Z
 ---------------------------------------------------------------------
      1          6           0        0.026157   -0.907534    0.000000
      2          6           0       -1.191387   -0.204586    0.000000
      3          6           0       -1.191387    1.201315    0.000000
      4          6           0        0.026157    1.904267    0.000000
      5          6           0        1.243706    1.201310    0.000000
      6          6           0        1.243701   -0.204581    0.000000
      7         17           0        2.772679   -1.087337    0.000000
      8         17           0        0.026157   -2.673054    0.000000
      9         17           0        0.026162    3.669778    0.000000
     10         17           0       -2.720370   -1.087341    0.000000
     11          1           0       -2.720365    2.084071    0.000000
 ---------------------------------------------------------------------
 Rotational constants (GHZ):           0.8337192           0.5634314           0.3362154
 Standard basis: VSTO-6G (5D, 7F)
 There are    31 symmetry adapted cartesian basis functions of A'  symmetry.
 There are    10 symmetry adapted cartesian basis functions of A"  symmetry.
 There are    31 symmetry adapted basis functions of A'  symmetry.
 There are    10 symmetry adapted basis functions of A"  symmetry.
    41 basis functions,   246 primitive gaussians,    41 cartesian basis functions
    27 alpha electrons       27 beta electrons
       nuclear repulsion energy       291.4420222276 Hartrees.
 Integral buffers will be    131072 words long.
 Regular integral format.
 Two-electron integral symmetry is turned off.
 Do NDO integrals.
 One-electron integrals computed using PRISM.
 NBasis=    41 RedAO= T EigKep=  1.00D+00  NBF=    31    10
 NBsUse=    41 1.00D-06 EigRej= -1.00D+00 NBFU=    31    10
 Simple Huckel Guess.
 Initial guess orbital symmetries:
       Occupied  (A') (A') (A') (A') (A') (A') (A') (A') (A') (A')
                 (A") (A') (A') (A') (A") (A') (A") (A') (A") (A')
                 (A") (A') (A') (A') (A") (A") (A')
       Virtual   (A") (A') (A") (A") (A') (A') (A') (A') (A') (A')
                 (A') (A') (A') (A')
 The electronic state of the initial guess is 1-A'.
 Keep J ints in memory in canonical form, NReq=864464.
 Overlap will be assumed to be unity.
 Requested convergence on RMS density matrix=1.00D-08 within**** cycles.
 Requested convergence on MAX density matrix=1.00D-06.
 Requested convergence on             energy=1.00D-06.
 No special actions if energy rises.
 Fock symm off for IB=2 I1=    1 I=   32 J=   31 Cut=1.00D-07 Err=7.72D-03
 Fock matrix is not symmetric: symmetry in diagonalization turned off.
 SCF Done:  E(RAM1) =  0.138215537188     A.U. after   17 cycles
            NFock= 16  Conv=0.49D-08     -V/T= 1.0010

 **********************************************************************

            Population analysis using the SCF Density.

 **********************************************************************

 Orbital symmetries:
       Occupied  (A') (A') (A') (A') (A') (A') (A') (A') (A') (A')
                 (A') (A') (A") (A') (A') (A") (A") (A") (A') (A')
                 (A') (A') (A") (A') (A") (A") (A')
       Virtual   (A') (A") (A') (A") (A') (A') (A') (A") (A') (A')
                 (A') (A') (A') (A')
 The electronic state is 1-A'.
 Alpha  occ. eigenvalues --   -1.28105  -1.23550  -1.22761  -1.21585  -1.19126
 Alpha  occ. eigenvalues --   -0.96580  -0.94586  -0.69120  -0.66996  -0.51580
 Alpha  occ. eigenvalues --   -0.45986  -0.44532  -0.40350  -0.39058  -0.37139
 Alpha  occ. eigenvalues --   -0.34285  -0.34043  -0.31987  -0.31922  -0.30732
 Alpha  occ. eigenvalues --   -0.29274  -0.28501  -0.27556  -0.26845  -0.19856
 Alpha  occ. eigenvalues --   -0.18124  -0.13529
 Alpha virt. eigenvalues --    0.14017   0.15046   0.16539   0.16861   0.17592
 Alpha virt. eigenvalues --    0.20200   0.21001   0.26116   0.30242   0.30617
 Alpha virt. eigenvalues --    0.32180   0.33079   0.35607   0.38004
          Condensed to atoms (all electrons):
               1          2          3          4          5          6
     1  C    4.032216   0.000000   0.000000   0.000000   0.000000   0.000000
     2  C    0.000000   4.118223   0.000000   0.000000   0.000000   0.000000
     3  C    0.000000   0.000000   4.105112   0.000000   0.000000   0.000000
     4  C    0.000000   0.000000   0.000000   4.055654   0.000000   0.000000
     5  C    0.000000   0.000000   0.000000   0.000000   4.317250   0.000000
     6  C    0.000000   0.000000   0.000000   0.000000   0.000000   4.052642
     7  Cl   0.000000   0.000000   0.000000   0.000000   0.000000   0.000000
     8  Cl   0.000000   0.000000   0.000000   0.000000   0.000000   0.000000
     9  Cl   0.000000   0.000000   0.000000   0.000000   0.000000   0.000000
    10  Cl   0.000000   0.000000   0.000000   0.000000   0.000000   0.000000
    11  H    0.000000   0.000000   0.000000   0.000000   0.000000   0.000000
               7          8          9         10         11
     1  C    0.000000   0.000000   0.000000   0.000000   0.000000
     2  C    0.000000   0.000000   0.000000   0.000000   0.000000
     3  C    0.000000   0.000000   0.000000   0.000000   0.000000
     4  C    0.000000   0.000000   0.000000   0.000000   0.000000
     5  C    0.000000   0.000000   0.000000   0.000000   0.000000
     6  C    0.000000   0.000000   0.000000   0.000000   0.000000
     7  Cl   7.098397   0.000000   0.000000   0.000000   0.000000
     8  Cl   0.000000   7.098026   0.000000   0.000000   0.000000
     9  Cl   0.000000   0.000000   7.116367   0.000000   0.000000
    10  Cl   0.000000   0.000000   0.000000   7.096641   0.000000
    11  H    0.000000   0.000000   0.000000   0.000000   0.909471
 Mulliken charges:
               1
     1  C   -0.032216
     2  C   -0.118223
     3  C   -0.105112
     4  C   -0.055654
     5  C   -0.317250
     6  C   -0.052642
     7  Cl  -0.098397
     8  Cl  -0.098026
     9  Cl  -0.116367
    10  Cl  -0.096641
    11  H    0.090529
 Sum of Mulliken charges =  -1.00000
 Mulliken charges with hydrogens summed into heavy atoms:
               1
     1  C   -0.032216
     2  C   -0.118223
     3  C   -0.014584
     4  C   -0.055654
     5  C   -0.317250
     6  C   -0.052642
     7  Cl  -0.098397
     8  Cl  -0.098026
     9  Cl  -0.116367
    10  Cl  -0.096641
 Charge=             -1.0000 electrons
 Dipole moment (field-independent basis, Debye):
    X=             -3.7402    Y=             -2.6471    Z=              0.0000  Tot=              4.5822
 N-N= 2.914420222276D+02 E-N=-4.164298280278D+02  KE=-1.356236235411D+02
 Symmetry A'   KE=-1.039571480045D+02
 Symmetry A"   KE=-3.166647553659D+01
 Calling FoFJK, ICntrl=      2127 FMM=F ISym2X=1 I1Cent= 0 IOpClX= 0 NMat=1 NMatS=1 NMatT=0.
 ***** Axes restored to original set *****
 -------------------------------------------------------------------
 Center     Atomic                   Forces (Hartrees/Bohr)
 Number     Number              X              Y              Z
 -------------------------------------------------------------------
      1        6          -0.021446517    0.003954256    0.000000000
      2        6           0.018506532    0.012898563    0.000000000
      3        6           0.067362221    0.035595119    0.000000000
      4        6          -0.007079213    0.011699554   -0.000000000
      5        6          -0.000143915    0.010189393    0.000000000
      6        6           0.013132022   -0.005772942   -0.000000000
      7       17           0.026118994    0.014790000   -0.000000000
      8       17           0.023744920   -0.010254846   -0.000000000
      9       17          -0.024743063    0.015401262   -0.000000000
     10       17           0.003627396   -0.029339399   -0.000000000
     11        1          -0.099079377   -0.059160958   -0.000000000
 -------------------------------------------------------------------
 Cartesian Forces:  Max     0.099079377 RMS     0.026909387

 GradGradGradGradGradGradGradGradGradGradGradGradGradGradGradGradGradGrad
 Berny optimization.
 FormGI is forming the generalized inverse of G from B-inverse, IUseBI=4.
 Internal  Forces:  Max     0.115388774 RMS     0.021481362
 Search for a local minimum.
 Step number   1 out of a maximum of   57
 All quantities printed in internal units (Hartrees-Bohrs-Radians)
 Mixed Optimization -- RFO/linear search
 Second derivative matrix not updated -- first step.
 ITU=  0
     Eigenvalues ---    0.02011   0.02011   0.02011   0.02011   0.02011
     Eigenvalues ---    0.02011   0.02011   0.02011   0.06524   0.16000
     Eigenvalues ---    0.23485   0.25000   0.25000   0.25000   0.25000
     Eigenvalues ---    0.25000   0.25000   0.29033   0.29033   0.29033
     Eigenvalues ---    0.29033   0.41081   0.41569   0.44656   0.44657
     Eigenvalues ---    0.44657   0.44657
 RFO step:  Lambda=-9.94188828D-02 EMin= 2.01067220D-02
 Linear search not attempted -- first point.
 Maximum step size (   0.300) exceeded in Quadratic search.
    -- Step size scaled by   0.411
 Iteration  1 RMS(Cart)=  0.03807452 RMS(Int)=  0.01280898
 Iteration  2 RMS(Cart)=  0.01219158 RMS(Int)=  0.00001011
 Iteration  3 RMS(Cart)=  0.00000158 RMS(Int)=  0.00001007
 Iteration  4 RMS(Cart)=  0.00000000 RMS(Int)=  0.00001007
 ClnCor:  largest displacement from symmetrization is 4.94D-10 for atom     8.
 Variable       Old X    -DE/DX   Delta X   Delta X   Delta X     New X
                                 (Linear)    (Quad)   (Total)
    R1        2.65676  -0.01381   0.00000  -0.01004  -0.01005   2.64671
    R2        2.65677  -0.01158   0.00000  -0.00806  -0.00807   2.64869
    R3        3.33635  -0.02576   0.00000  -0.02715  -0.02715   3.30920
    R4        2.65677  -0.03588   0.00000  -0.02730  -0.02729   2.62948
    R5        3.33634  -0.02943   0.00000  -0.03101  -0.03101   3.30533
    R6        2.65677  -0.03450   0.00000  -0.02661  -0.02660   2.63017
    R7        3.33633  -0.11539   0.00000  -0.28781  -0.28781   3.04852
    R8        2.65678  -0.02822   0.00000  -0.02158  -0.02157   2.63521
    R9        3.33633  -0.02909   0.00000  -0.03065  -0.03065   3.30568
   R10        2.65675  -0.02666   0.00000  -0.01974  -0.01975   2.63700
   R11        3.33633  -0.03000   0.00000  -0.03161  -0.03161   3.30472
    A1        2.09439  -0.00796   0.00000  -0.00786  -0.00789   2.08651
    A2        2.09439   0.00017   0.00000  -0.00055  -0.00054   2.09386
    A3        2.09440   0.00779   0.00000   0.00841   0.00842   2.10282
    A4        2.09439  -0.00573   0.00000  -0.00677  -0.00677   2.08762
    A5        2.09440   0.00757   0.00000   0.00892   0.00892   2.10331
    A6        2.09439  -0.00184   0.00000  -0.00214  -0.00214   2.09225
    A7        2.09440   0.00829   0.00000   0.00886   0.00888   2.10328
    A8        2.09440  -0.00661   0.00000  -0.00832  -0.00833   2.08606
    A9        2.09439  -0.00169   0.00000  -0.00054  -0.00055   2.09385
   A10        2.09439   0.00869   0.00000   0.00849   0.00852   2.10291
   A11        2.09440  -0.00729   0.00000  -0.00771  -0.00772   2.08668
   A12        2.09440  -0.00140   0.00000  -0.00078  -0.00080   2.09360
   A13        2.09439  -0.01314   0.00000  -0.01571  -0.01571   2.07869
   A14        2.09440   0.00984   0.00000   0.01299   0.01297   2.10737
   A15        2.09439  -0.00313   0.00000  -0.00439  -0.00438   2.09002
   A16        2.09439  -0.00671   0.00000  -0.00861  -0.00859   2.08580
    D1        0.00000   0.00000   0.00000   0.00000   0.00000   0.00000
    D2        3.14159  -0.00000   0.00000  -0.00000   0.00000   3.14159
    D3        3.14159   0.00000   0.00000   0.00000   0.00000   3.14159
    D4        0.00000  -0.00000   0.00000  -0.00000   0.00000   0.00000
    D5        0.00000   0.00000   0.00000   0.00000   0.00000   0.00000
    D6        3.14159   0.00000   0.00000   0.00000   0.00000   3.14159
    D7        3.14159  -0.00000   0.00000  -0.00000   0.00000   3.14159
    D8        0.00000  -0.00000   0.00000  -0.00000   0.00000   0.00000
    D9        0.00000  -0.00000   0.00000  -0.00000   0.00000   0.00000
   D10        3.14159  -0.00000   0.00000  -0.00000   0.00000   3.14159
   D11        3.14159   0.00000   0.00000   0.00000   0.00000   3.14159
   D12        0.00000  -0.00000   0.00000  -0.00000   0.00000   0.00000
   D13        0.00000   0.00000   0.00000   0.00000   0.00000   0.00000
   D14        3.14159  -0.00000   0.00000  -0.00000   0.00000   3.14159
   D15        3.14159   0.00000   0.00000   0.00000   0.00000   3.14159
   D16        0.00000   0.00000   0.00000   0.00000   0.00000   0.00000
   D17        0.00000   0.00000   0.00000   0.00000   0.00000   0.00000
   D18        3.14159   0.00000   0.00000   0.00000   0.00000   3.14159
   D19        0.00000  -0.00000   0.00000  -0.00000   0.00000   0.00000
   D20        3.14159  -0.00000   0.00000  -0.00000   0.00000   3.14159
         Item               Value     Threshold  Converged?
 Maximum Force            0.115389     0.000450     NO 
 RMS     Force            0.021481     0.000300     NO 
 Maximum Displacement     0.259293     0.001800     NO 
 RMS     Displacement     0.049158     0.001200     NO 
 Predicted change in Energy=-3.692077D-02
 GradGradGradGradGradGradGradGradGradGradGradGradGradGradGradGradGradGrad

                          Input orientation:                          
 ---------------------------------------------------------------------
 Center     Atomic      Atomic             Coordinates (Angstroms)
 Number     Number       Type             X           Y           Z
 ---------------------------------------------------------------------
      1          6           0       -3.194328    0.205279    0.000000
      2          6           0       -2.000547    0.937748    0.000000
      3          6           0       -0.781860    0.266213    0.000000
      4          6           0       -0.741715   -1.125035    0.000000
      5          6           0       -1.922497   -1.866902    0.000000
      6          6           0       -3.145804   -1.195508    0.000000
      7         17           0       -4.633160   -2.115302    0.000000
      8         17           0       -4.733289    1.040825    0.000000
      9         17           0        0.804174   -1.943717    0.000000
     10         17           0       -2.031713    2.686576    0.000000
     11          1           0        0.591838    1.112022    0.000000
 ---------------------------------------------------------------------
                    Distance matrix (angstroms):
                    1          2          3          4          5
     1  C    0.000000
     2  C    1.400579   0.000000
     3  C    2.413237   1.391459   0.000000
     4  C    2.790169   2.416553   1.391827   0.000000
     5  C    2.431356   2.805736   2.418932   1.394493   0.000000
     6  C    1.401627   2.421238   2.779363   2.405121   1.395440
     7  Cl   2.730446   4.031348   4.528148   4.015466   2.722021
     8  Cl   1.751154   2.734686   4.026639   4.541323   4.044185
     9  Cl   4.539405   4.021106   2.720164   1.749289   2.727752
    10  Cl   2.740165   1.749106   2.724021   4.023987   4.554788
    11  H    3.893229   2.598236   1.613208   2.604379   3.898188
                    6          7          8          9         10
     6  C    0.000000
     7  Cl   1.748785   0.000000
     8  Cl   2.742498   3.157715   0.000000
     9  Cl   4.020217   5.440040   6.290547   0.000000
    10  Cl   4.038784   5.461278   3.163386   5.429721   0.000000
    11  H    4.392569   6.141354   5.325603   3.063107   3.059778
                   11
    11  H    0.000000
 Stoichiometry    C6HCl4(1-)
 Framework group  CS[SG(C6HCl4)]
 Deg. of freedom    19
 Full point group                 CS      NOp   2
 Largest Abelian subgroup         CS      NOp   2
 Largest concise Abelian subgroup C1      NOp   1
                         Standard orientation:                         
 ---------------------------------------------------------------------
 Center     Atomic      Atomic             Coordinates (Angstroms)
 Number     Number       Type             X           Y           Z
 ---------------------------------------------------------------------
      1          6           0        0.000000   -0.907653    0.000000
      2          6           0       -1.190125   -0.169260    0.000000
      3          6           0       -1.136588    1.221169    0.000000
      4          6           0        0.088838    1.881102    0.000000
      5          6           0        1.281533    1.158543    0.000000
      6          6           0        1.230194   -0.235952    0.000000
      7         17           0        2.719428   -1.152702    0.000000
      8         17           0       -0.056461   -2.657896    0.000000
      9         17           0        0.127120    3.629972    0.000000
     10         17           0       -2.739168   -0.981563    0.000000
     11          1           0       -2.508716    2.069524    0.000000
 ---------------------------------------------------------------------
 Rotational constants (GHZ):           0.8445465           0.5745421           0.3419290
 Standard basis: VSTO-6G (5D, 7F)
 There are    31 symmetry adapted cartesian basis functions of A'  symmetry.
 There are    10 symmetry adapted cartesian basis functions of A"  symmetry.
 There are    31 symmetry adapted basis functions of A'  symmetry.
 There are    10 symmetry adapted basis functions of A"  symmetry.
    41 basis functions,   246 primitive gaussians,    41 cartesian basis functions
    27 alpha electrons       27 beta electrons
       nuclear repulsion energy       293.1023258259 Hartrees.
 Integral buffers will be    131072 words long.
 Regular integral format.
 Two-electron integral symmetry is turned off.
 Do NDO integrals.
 One-electron integrals computed using PRISM.
 NBasis=    41 RedAO= T EigKep=  1.00D+00  NBF=    31    10
 NBsUse=    41 1.00D-06 EigRej= -1.00D+00 NBFU=    31    10
 Initial guess from the checkpoint file:  "geometry_chks/123_5ClBzAnionIntermediate.chk"
 B after Tr=    -0.000000    0.000000   -0.000000
         Rot=    0.999885    0.000000    0.000000    0.015197 Ang=   1.74 deg.
 Initial guess orbital symmetries:
       Occupied  (A') (A') (A') (A') (A') (A') (A') (A') (A') (A')
                 (A') (A') (A") (A') (A') (A") (A") (A") (A') (A')
                 (A') (A') (A") (A') (A") (A") (A')
       Virtual   (A') (A") (A') (A") (A') (A') (A') (A") (A') (A')
                 (A') (A') (A') (A')
 Keep J ints in memory in canonical form, NReq=864464.
 Overlap will be assumed to be unity.
 Requested convergence on RMS density matrix=1.00D-08 within**** cycles.
 Requested convergence on MAX density matrix=1.00D-06.
 Requested convergence on             energy=1.00D-06.
 No special actions if energy rises.
 Fock symm off for IB=2 I1=    1 I=   32 J=    6 Cut=1.00D-07 Err=1.12D-03
 Fock matrix is not symmetric: symmetry in diagonalization turned off.
 SCF Done:  E(RAM1) =  0.980425627790E-01 A.U. after   13 cycles
            NFock= 12  Conv=0.83D-08     -V/T= 1.0007
 Calling FoFJK, ICntrl=      2127 FMM=F ISym2X=1 I1Cent= 0 IOpClX= 0 NMat=1 NMatS=1 NMatT=0.
 ***** Axes restored to original set *****
 -------------------------------------------------------------------
 Center     Atomic                   Forces (Hartrees/Bohr)
 Number     Number              X              Y              Z
 -------------------------------------------------------------------
      1        6          -0.023346736    0.005143625    0.000000000
      2        6           0.009805364    0.017580288    0.000000000
      3        6           0.092104894    0.051851845    0.000000000
      4        6           0.000645325    0.001664679   -0.000000000
      5        6          -0.001518065    0.001287037   -0.000000000
      6        6           0.004611975   -0.007067249    0.000000000
      7       17           0.017171234    0.009794372   -0.000000000
      8       17           0.017592296   -0.007543472   -0.000000000
      9       17          -0.015943179    0.010149685   -0.000000000
     10       17           0.002499890   -0.020639348   -0.000000000
     11        1          -0.103622999   -0.062221461   -0.000000000
 -------------------------------------------------------------------
 Cartesian Forces:  Max     0.103622999 RMS     0.029327240

 GradGradGradGradGradGradGradGradGradGradGradGradGradGradGradGradGradGrad
 Berny optimization.
 Using GEDIIS/GDIIS optimizer.
 FormGI is forming the generalized inverse of G from B-inverse, IUseBI=4.
 Internal  Forces:  Max     0.120861175 RMS     0.019104916
 Search for a local minimum.
 Step number   2 out of a maximum of   57
 All quantities printed in internal units (Hartrees-Bohrs-Radians)
 Mixed Optimization -- RFO/linear search
 Update second derivatives using D2CorX and points    1    2
 DE= -4.02D-02 DEPred=-3.69D-02 R= 1.09D+00
 TightC=F SS=  1.41D+00  RLast= 3.00D-01 DXNew= 5.0454D-01 9.0000D-01
 Trust test= 1.09D+00 RLast= 3.00D-01 DXMaxT set to 5.05D-01
 ITU=  1  0
 Use linear search instead of GDIIS.
 Linear search step of   0.600 exceeds DXMaxT=   0.505 but not scaled.
 Quartic linear search produced a step of  2.00000.
 Iteration  1 RMS(Cart)=  0.05329819 RMS(Int)=  0.05479112
 Iteration  2 RMS(Cart)=  0.02774221 RMS(Int)=  0.02561776
 Iteration  3 RMS(Cart)=  0.02441147 RMS(Int)=  0.00006203
 Iteration  4 RMS(Cart)=  0.00000856 RMS(Int)=  0.00006179
 Iteration  5 RMS(Cart)=  0.00000000 RMS(Int)=  0.00006179
 ClnCor:  largest displacement from symmetrization is 1.78D-15 for atom    10.
 Variable       Old X    -DE/DX   Delta X   Delta X   Delta X     New X
                                 (Linear)    (Quad)   (Total)
    R1        2.64671  -0.00148  -0.02010   0.00000  -0.02016   2.62655
    R2        2.64869  -0.00178  -0.01615   0.00000  -0.01625   2.63244
    R3        3.30920  -0.01906  -0.05430   0.00000  -0.05430   3.25490
    R4        2.62948  -0.01413  -0.05458   0.00000  -0.05454   2.57494
    R5        3.30533  -0.02068  -0.06202   0.00000  -0.06202   3.24331
    R6        2.63017  -0.01385  -0.05319   0.00000  -0.05309   2.57708
    R7        3.04852  -0.12086  -0.57562   0.00000  -0.57562   2.47290
    R8        2.63521  -0.01168  -0.04314   0.00000  -0.04307   2.59214
    R9        3.30568  -0.01884  -0.06131   0.00000  -0.06131   3.24437
   R10        2.63700  -0.01201  -0.03950   0.00000  -0.03955   2.59745
   R11        3.30472  -0.01976  -0.06322   0.00000  -0.06322   3.24151
    A1        2.08651  -0.00549  -0.01577   0.00000  -0.01594   2.07056
    A2        2.09386  -0.00018  -0.00107   0.00000  -0.00099   2.09287
    A3        2.10282   0.00566   0.01685   0.00000   0.01693   2.11975
    A4        2.08762  -0.00352  -0.01355   0.00000  -0.01357   2.07405
    A5        2.10331   0.00528   0.01783   0.00000   0.01785   2.12116
    A6        2.09225  -0.00176  -0.00429   0.00000  -0.00427   2.08798
    A7        2.10328   0.00428   0.01776   0.00000   0.01790   2.12118
    A8        2.08606  -0.00419  -0.01667   0.00000  -0.01674   2.06932
    A9        2.09385  -0.00009  -0.00110   0.00000  -0.00117   2.09268
   A10        2.10291   0.00535   0.01703   0.00000   0.01720   2.12010
   A11        2.08668  -0.00517  -0.01544   0.00000  -0.01552   2.07116
   A12        2.09360  -0.00018  -0.00159   0.00000  -0.00167   2.09192
   A13        2.07869  -0.00768  -0.03142   0.00000  -0.03139   2.04730
   A14        2.10737   0.00706   0.02594   0.00000   0.02580   2.13317
   A15        2.09002  -0.00237  -0.00876   0.00000  -0.00868   2.08133
   A16        2.08580  -0.00469  -0.01719   0.00000  -0.01712   2.06868
    D1        0.00000   0.00000   0.00000   0.00000   0.00000   0.00000
    D2        3.14159  -0.00000   0.00000   0.00000   0.00000   3.14159
    D3        3.14159   0.00000   0.00000   0.00000   0.00000   3.14159
    D4        0.00000   0.00000   0.00000   0.00000   0.00000   0.00000
    D5        0.00000  -0.00000   0.00000   0.00000   0.00000   0.00000
    D6        3.14159   0.00000   0.00000   0.00000   0.00000   3.14159
    D7        3.14159  -0.00000   0.00000   0.00000   0.00000   3.14159
    D8        0.00000  -0.00000   0.00000   0.00000   0.00000   0.00000
    D9        0.00000  -0.00000   0.00000   0.00000   0.00000   0.00000
   D10        3.14159  -0.00000   0.00000   0.00000   0.00000   3.14159
   D11        3.14159   0.00000   0.00000   0.00000   0.00000   3.14159
   D12        0.00000  -0.00000   0.00000   0.00000   0.00000   0.00000
   D13        0.00000  -0.00000   0.00000   0.00000   0.00000   0.00000
   D14        3.14159  -0.00000   0.00000   0.00000   0.00000   3.14159
   D15        3.14159   0.00000   0.00000   0.00000   0.00000   3.14159
   D16        0.00000   0.00000   0.00000   0.00000   0.00000   0.00000
   D17        0.00000   0.00000   0.00000   0.00000   0.00000   0.00000
   D18        3.14159   0.00000   0.00000   0.00000   0.00000   3.14159
   D19        0.00000   0.00000   0.00000   0.00000   0.00000   0.00000
   D20        3.14159  -0.00000   0.00000   0.00000   0.00000   3.14159
         Item               Value     Threshold  Converged?
 Maximum Force            0.120861     0.000450     NO 
 RMS     Force            0.019105     0.000300     NO 
 Maximum Displacement     0.517476     0.001800     NO 
 RMS     Displacement     0.098259     0.001200     NO 
 Predicted change in Energy=-7.436150D-02
 GradGradGradGradGradGradGradGradGradGradGradGradGradGradGradGradGradGrad

                          Input orientation:                          
 ---------------------------------------------------------------------
 Center     Atomic      Atomic             Coordinates (Angstroms)
 Number     Number       Type             X           Y           Z
 ---------------------------------------------------------------------
      1          6           0       -3.164339    0.216867    0.000000
      2          6           0       -1.978533    0.941926    0.000000
      3          6           0       -0.795197    0.266359    0.000000
      4          6           0       -0.752059   -1.096693    0.000000
      5          6           0       -1.898725   -1.849503    0.000000
      6          6           0       -3.096071   -1.174486    0.000000
      7         17           0       -4.549792   -2.085011    0.000000
      8         17           0       -4.675963    1.042532    0.000000
      9         17           0        0.779618   -1.872272    0.000000
     10         17           0       -1.975841    2.658210    0.000000
     11          1           0        0.318002    0.954271    0.000000
 ---------------------------------------------------------------------
                    Distance matrix (angstroms):
                    1          2          3          4          5
     1  C    0.000000
     2  C    1.389909   0.000000
     3  C    2.369658   1.362598   0.000000
     4  C    2.746731   2.379119   1.363735   0.000000
     5  C    2.423151   2.792570   2.386345   1.371701   0.000000
     6  C    1.393027   2.393343   2.714784   2.345302   1.374513
     7  Cl   2.686656   3.971615   4.430116   3.924226   2.661508
     8  Cl   1.722420   2.699306   3.957624   4.469150   4.009603
     9  Cl   4.463104   3.940445   2.655897   1.716846   2.678440
    10  Cl   2.715269   1.716286   2.667372   3.949296   4.508373
    11  H    3.559559   2.296568   1.308600   2.313328   3.574217
                    6          7          8          9         10
     6  C    0.000000
     7  Cl   1.715331   0.000000
     8  Cl   2.722357   3.130087   0.000000
     9  Cl   3.938003   5.333655   6.185422   0.000000
    10  Cl   3.993054   5.396608   3.146598   5.302624   0.000000
    11  H    4.023369   5.738698   4.994745   2.863990   2.857468
                   11
    11  H    0.000000
 Stoichiometry    C6HCl4(1-)
 Framework group  CS[SG(C6HCl4)]
 Deg. of freedom    19
 Full point group                 CS      NOp   2
 Largest Abelian subgroup         CS      NOp   2
 Largest concise Abelian subgroup C1      NOp   1
                         Standard orientation:                         
 ---------------------------------------------------------------------
 Center     Atomic      Atomic             Coordinates (Angstroms)
 Number     Number       Type             X           Y           Z
 ---------------------------------------------------------------------
      1          6           0        0.000000   -0.906918    0.000000
      2          6           0       -1.176783   -0.167304    0.000000
      3          6           0       -1.097983    1.193014    0.000000
      4          6           0        0.103662    1.837856    0.000000
      5          6           0        1.287892    1.145640    0.000000
      6          6           0        1.215816   -0.226981    0.000000
      7         17           0        2.677866   -1.124072    0.000000
      8         17           0       -0.067233   -2.628026    0.000000
      9         17           0        0.117116    3.554649    0.000000
     10         17           0       -2.715186   -0.928195    0.000000
     11          1           0       -2.209203    1.884118    0.000000
 ---------------------------------------------------------------------
 Rotational constants (GHZ):           0.8669788           0.5977800           0.3538211
 Standard basis: VSTO-6G (5D, 7F)
 There are    31 symmetry adapted cartesian basis functions of A'  symmetry.
 There are    10 symmetry adapted cartesian basis functions of A"  symmetry.
 There are    31 symmetry adapted basis functions of A'  symmetry.
 There are    10 symmetry adapted basis functions of A"  symmetry.
    41 basis functions,   246 primitive gaussians,    41 cartesian basis functions
    27 alpha electrons       27 beta electrons
       nuclear repulsion energy       296.5764538834 Hartrees.
 Integral buffers will be    131072 words long.
 Regular integral format.
 Two-electron integral symmetry is turned off.
 Do NDO integrals.
 One-electron integrals computed using PRISM.
 NBasis=    41 RedAO= T EigKep=  1.00D+00  NBF=    31    10
 NBsUse=    41 1.00D-06 EigRej= -1.00D+00 NBFU=    31    10
 Initial guess from the checkpoint file:  "geometry_chks/123_5ClBzAnionIntermediate.chk"
 B after Tr=    -0.000000    0.000000    0.000000
         Rot=    0.999999    0.000000    0.000000    0.001521 Ang=   0.17 deg.
 Initial guess orbital symmetries:
       Occupied  (A') (A') (A') (A') (A') (A') (A') (A') (A') (A')
                 (A') (A') (A") (A') (A') (A") (A") (A') (A") (A')
                 (A') (A') (A") (A') (A") (A") (A')
       Virtual   (A") (A') (A") (A') (A') (A') (A') (A") (A') (A')
                 (A') (A') (A') (A')
 Keep J ints in memory in canonical form, NReq=864464.
 Overlap will be assumed to be unity.
 Requested convergence on RMS density matrix=1.00D-08 within**** cycles.
 Requested convergence on MAX density matrix=1.00D-06.
 Requested convergence on             energy=1.00D-06.
 No special actions if energy rises.
 Fock symm off for IB=2 I1=    1 I=   32 J=    6 Cut=1.00D-07 Err=1.69D-03
 Fock matrix is not symmetric: symmetry in diagonalization turned off.
 SCF Done:  E(RAM1) =  0.335270812163E-01 A.U. after   14 cycles
            NFock= 13  Conv=0.27D-08     -V/T= 1.0002
 Calling FoFJK, ICntrl=      2127 FMM=F ISym2X=1 I1Cent= 0 IOpClX= 0 NMat=1 NMatS=1 NMatT=0.
 ***** Axes restored to original set *****
 -------------------------------------------------------------------
 Center     Atomic                   Forces (Hartrees/Bohr)
 Number     Number              X              Y              Z
 -------------------------------------------------------------------
      1        6          -0.027589514    0.007757794    0.000000000
      2        6          -0.015688819    0.028439627    0.000000000
      3        6           0.114808575    0.067555885    0.000000000
      4        6           0.015953350   -0.024721318   -0.000000000
      5        6          -0.004040697   -0.019467449   -0.000000000
      6        6          -0.014103089   -0.008750430   -0.000000000
      7       17          -0.002761188   -0.001561362   -0.000000000
      8       17           0.003810733   -0.001413641   -0.000000000
      9       17           0.004082184   -0.001547296   -0.000000000
     10       17           0.000182767   -0.000783060   -0.000000000
     11        1          -0.074654301   -0.045508749   -0.000000000
 -------------------------------------------------------------------
 Cartesian Forces:  Max     0.114808575 RMS     0.029566642

 GradGradGradGradGradGradGradGradGradGradGradGradGradGradGradGradGradGrad
 Berny optimization.
 Using GEDIIS/GDIIS optimizer.
 FormGI is forming the generalized inverse of G from B-inverse, IUseBI=4.
 Internal  Forces:  Max     0.087430136 RMS     0.016523375
 Search for a local minimum.
 Step number   3 out of a maximum of   57
 All quantities printed in internal units (Hartrees-Bohrs-Radians)
 Mixed Optimization -- RFO/linear search
 Update second derivatives using D2CorX and points    2    3
 ITU=  0  1  0
 Use linear search instead of GDIIS.
     Eigenvalues ---    0.02011   0.02011   0.02011   0.02011   0.02011
     Eigenvalues ---    0.02011   0.02011   0.02011   0.04903   0.15999
     Eigenvalues ---    0.23580   0.24949   0.25000   0.25000   0.25000
     Eigenvalues ---    0.25000   0.25193   0.28620   0.29033   0.29033
     Eigenvalues ---    0.29260   0.41115   0.41509   0.44640   0.44656
     Eigenvalues ---    0.44657   0.66147
 RFO step:  Lambda=-4.17123189D-02 EMin= 2.01067205D-02
 Quartic linear search produced a step of  0.52588.
 Iteration  1 RMS(Cart)=  0.03091629 RMS(Int)=  0.07550158
 Iteration  2 RMS(Cart)=  0.02774147 RMS(Int)=  0.04632833
 Iteration  3 RMS(Cart)=  0.02779809 RMS(Int)=  0.01715556
 Iteration  4 RMS(Cart)=  0.01634652 RMS(Int)=  0.00009923
 Iteration  5 RMS(Cart)=  0.00000362 RMS(Int)=  0.00009918
 Iteration  6 RMS(Cart)=  0.00000000 RMS(Int)=  0.00009918
 ClnCor:  largest displacement from symmetrization is 4.40D-09 for atom     4.
 Variable       Old X    -DE/DX   Delta X   Delta X   Delta X     New X
                                 (Linear)    (Quad)   (Total)
    R1        2.62655   0.02549  -0.01060   0.06735   0.05671   2.68326
    R2        2.63244   0.01938  -0.00855   0.04919   0.04048   2.67292
    R3        3.25490  -0.00402  -0.02855   0.00487  -0.02368   3.23122
    R4        2.57494   0.03981  -0.02868   0.11498   0.08642   2.66136
    R5        3.24331  -0.00078  -0.03261   0.01931  -0.01331   3.23000
    R6        2.57708   0.03663  -0.02792   0.10681   0.07905   2.65613
    R7        2.47290  -0.08743  -0.30271  -0.41487  -0.71758   1.75532
    R8        2.59214   0.02475  -0.02265   0.07221   0.04960   2.64174
    R9        3.24437   0.00434  -0.03224   0.03741   0.00516   3.24953
   R10        2.59745   0.02071  -0.02080   0.05904   0.03813   2.63558
   R11        3.24151   0.00317  -0.03324   0.03382   0.00058   3.24208
    A1        2.07056   0.00078  -0.00838   0.00590  -0.00268   2.06788
    A2        2.09287  -0.00135  -0.00052  -0.00334  -0.00376   2.08910
    A3        2.11975   0.00056   0.00890  -0.00255   0.00645   2.12620
    A4        2.07405   0.00229  -0.00714   0.01902   0.01197   2.08602
    A5        2.12116  -0.00085   0.00938  -0.01279  -0.00345   2.11771
    A6        2.08798  -0.00144  -0.00225  -0.00623  -0.00852   2.07946
    A7        2.12118  -0.00793   0.00942  -0.03534  -0.02564   2.09555
    A8        2.06932   0.00331  -0.00880   0.01808   0.00914   2.07846
    A9        2.09268   0.00462  -0.00061   0.01726   0.01650   2.10918
   A10        2.12010  -0.00224   0.00904  -0.01068  -0.00143   2.11867
   A11        2.07116   0.00037  -0.00816   0.00519  -0.00307   2.06808
   A12        2.09192   0.00187  -0.00088   0.00549   0.00450   2.09643
   A13        2.04730   0.00556  -0.01650   0.03157   0.01495   2.06225
   A14        2.13317   0.00154   0.01357  -0.01047   0.00283   2.13600
   A15        2.08133  -0.00100  -0.00457   0.00265  -0.00178   2.07955
   A16        2.06868  -0.00054  -0.00900   0.00782  -0.00105   2.06764
    D1        0.00000  -0.00000   0.00000  -0.00000   0.00000   0.00000
    D2        3.14159  -0.00000   0.00000  -0.00000   0.00000   3.14159
    D3        3.14159   0.00000   0.00000   0.00000   0.00000   3.14159
    D4        0.00000  -0.00000   0.00000  -0.00000   0.00000   0.00000
    D5        0.00000   0.00000   0.00000   0.00000   0.00000   0.00000
    D6        3.14159   0.00000   0.00000   0.00000   0.00000   3.14159
    D7        3.14159  -0.00000   0.00000  -0.00000   0.00000   3.14159
    D8        0.00000  -0.00000   0.00000  -0.00000   0.00000   0.00000
    D9        0.00000   0.00000   0.00000   0.00000   0.00000   0.00000
   D10        3.14159  -0.00000   0.00000  -0.00000   0.00000   3.14159
   D11        3.14159   0.00000   0.00000   0.00000   0.00000   3.14159
   D12        0.00000   0.00000   0.00000   0.00000   0.00000   0.00000
   D13        0.00000   0.00000   0.00000   0.00000   0.00000   0.00000
   D14        3.14159  -0.00000   0.00000  -0.00000   0.00000   3.14159
   D15        3.14159   0.00000   0.00000   0.00000   0.00000   3.14159
   D16        0.00000   0.00000   0.00000   0.00000   0.00000   0.00000
   D17        0.00000  -0.00000   0.00000  -0.00000   0.00000   0.00000
   D18        3.14159   0.00000   0.00000   0.00000   0.00000   3.14159
   D19        0.00000   0.00000   0.00000   0.00000   0.00000   0.00000
   D20        3.14159  -0.00000   0.00000   0.00000   0.00000   3.14159
         Item               Value     Threshold  Converged?
 Maximum Force            0.087430     0.000450     NO 
 RMS     Force            0.016523     0.000300     NO 
 Maximum Displacement     0.483915     0.001800     NO 
 RMS     Displacement     0.090542     0.001200     NO 
 Predicted change in Energy=-5.737452D-02
 GradGradGradGradGradGradGradGradGradGradGradGradGradGradGradGradGradGrad

                          Input orientation:                          
 ---------------------------------------------------------------------
 Center     Atomic      Atomic             Coordinates (Angstroms)
 Number     Number       Type             X           Y           Z
 ---------------------------------------------------------------------
      1          6           0       -3.167663    0.241823    0.000000
      2          6           0       -1.958844    0.986754    0.000000
      3          6           0       -0.725148    0.307498    0.000000
      4          6           0       -0.694993   -1.097743    0.000000
      5          6           0       -1.872429   -1.851335    0.000000
      6          6           0       -3.089632   -1.170473    0.000000
      7         17           0       -4.539601   -2.087532    0.000000
      8         17           0       -4.668060    1.061900    0.000000
      9         17           0        0.833562   -1.885442    0.000000
     10         17           0       -1.968017    2.695972    0.000000
     11          1           0        0.061925    0.800778    0.000000
 ---------------------------------------------------------------------
                    Distance matrix (angstroms):
                    1          2          3          4          5
     1  C    0.000000
     2  C    1.419917   0.000000
     3  C    2.443398   1.408330   0.000000
     4  C    2.812212   2.437714   1.405565   0.000000
     5  C    2.461492   2.839404   2.444752   1.397947   0.000000
     6  C    1.414450   2.435633   2.788401   2.395743   1.394689
     7  Cl   2.703351   4.013918   4.504022   3.969974   2.677610
     8  Cl   1.709888   2.710258   4.014434   4.522093   4.037635
     9  Cl   4.531562   4.005876   2.690458   1.719578   2.706205
    10  Cl   2.731666   1.709243   2.692495   4.001608   4.548312
    11  H    3.277602   2.029309   0.928876   2.043846   3.282595
                    6          7          8          9         10
     6  C    0.000000
     7  Cl   1.715636   0.000000
     8  Cl   2.734032   3.152051   0.000000
     9  Cl   3.987810   5.376961   6.241368   0.000000
    10  Cl   4.025844   5.430926   3.156014   5.370121   0.000000
    11  H    3.717276   5.432898   4.737188   2.794853   2.777125
                   11
    11  H    0.000000
 Stoichiometry    C6HCl4(1-)
 Framework group  CS[SG(C6HCl4)]
 Deg. of freedom    19
 Full point group                 CS      NOp   2
 Largest Abelian subgroup         CS      NOp   2
 Largest concise Abelian subgroup C1      NOp   1
                         Standard orientation:                         
 ---------------------------------------------------------------------
 Center     Atomic      Atomic             Coordinates (Angstroms)
 Number     Number       Type             X           Y           Z
 ---------------------------------------------------------------------
      1          6           0        0.000000   -0.934230    0.000000
      2          6           0       -1.205856   -0.184511    0.000000
      3          6           0       -1.148100    1.222634    0.000000
      4          6           0        0.096202    1.876336    0.000000
      5          6           0        1.295813    1.158570    0.000000
      6          6           0        1.229263   -0.234530    0.000000
      7         17           0        2.696729   -1.123321    0.000000
      8         17           0       -0.064854   -2.642888    0.000000
      9         17           0        0.119518    3.595756    0.000000
     10         17           0       -2.731587   -0.955002    0.000000
     11          1           0       -1.940627    1.707104    0.000000
 ---------------------------------------------------------------------
 Rotational constants (GHZ):           0.8548363           0.5854391           0.3474715
 Standard basis: VSTO-6G (5D, 7F)
 There are    31 symmetry adapted cartesian basis functions of A'  symmetry.
 There are    10 symmetry adapted cartesian basis functions of A"  symmetry.
 There are    31 symmetry adapted basis functions of A'  symmetry.
 There are    10 symmetry adapted basis functions of A"  symmetry.
    41 basis functions,   246 primitive gaussians,    41 cartesian basis functions
    27 alpha electrons       27 beta electrons
       nuclear repulsion energy       295.4676269546 Hartrees.
 Integral buffers will be    131072 words long.
 Regular integral format.
 Two-electron integral symmetry is turned off.
 Do NDO integrals.
 One-electron integrals computed using PRISM.
 NBasis=    41 RedAO= T EigKep=  1.00D+00  NBF=    31    10
 NBsUse=    41 1.00D-06 EigRej= -1.00D+00 NBFU=    31    10
 Initial guess from the checkpoint file:  "geometry_chks/123_5ClBzAnionIntermediate.chk"
 B after Tr=     0.000000    0.000000    0.000000
         Rot=    0.999999   -0.000000   -0.000000   -0.001195 Ang=  -0.14 deg.
 Initial guess orbital symmetries:
       Occupied  (A') (A') (A') (A') (A') (A') (A') (A') (A') (A')
                 (A') (A') (A") (A') (A') (A") (A") (A') (A") (A')
                 (A') (A') (A") (A') (A") (A") (A')
       Virtual   (A") (A') (A") (A') (A') (A') (A') (A") (A') (A')
                 (A') (A') (A') (A')
 Keep J ints in memory in canonical form, NReq=864464.
 Overlap will be assumed to be unity.
 Requested convergence on RMS density matrix=1.00D-08 within**** cycles.
 Requested convergence on MAX density matrix=1.00D-06.
 Requested convergence on             energy=1.00D-06.
 No special actions if energy rises.
 Fock symm off for IB=2 I1=    1 I=   32 J=   27 Cut=1.00D-07 Err=1.53D-03
 Fock matrix is not symmetric: symmetry in diagonalization turned off.
 SCF Done:  E(RAM1) =  0.347837501195E-01 A.U. after   15 cycles
            NFock= 14  Conv=0.48D-08     -V/T= 1.0003
 Calling FoFJK, ICntrl=      2127 FMM=F ISym2X=1 I1Cent= 0 IOpClX= 0 NMat=1 NMatS=1 NMatT=0.
 ***** Axes restored to original set *****
 -------------------------------------------------------------------
 Center     Atomic                   Forces (Hartrees/Bohr)
 Number     Number              X              Y              Z
 -------------------------------------------------------------------
      1        6           0.014852278   -0.002855479    0.000000000
      2        6          -0.014522754   -0.024011779    0.000000000
      3        6          -0.131696479   -0.081831836    0.000000000
      4        6          -0.024604814    0.000266038   -0.000000000
      5        6           0.002258609    0.007635413    0.000000000
      6        6           0.011737752    0.010012183   -0.000000000
      7       17           0.000430999    0.000648250   -0.000000000
      8       17           0.000960053   -0.000314999   -0.000000000
      9       17          -0.002489386    0.001537257    0.000000000
     10       17           0.000008532   -0.000952760   -0.000000000
     11        1           0.143065211    0.089867712   -0.000000000
 -------------------------------------------------------------------
 Cartesian Forces:  Max     0.143065211 RMS     0.040645725

 GradGradGradGradGradGradGradGradGradGradGradGradGradGradGradGradGradGrad
 Berny optimization.
 Using GEDIIS/GDIIS optimizer.
 FormGI is forming the generalized inverse of G from B-inverse, IUseBI=4.
 Internal  Forces:  Max     0.168949193 RMS     0.025284425
 Search for a local minimum.
 Step number   4 out of a maximum of   57
 All quantities printed in internal units (Hartrees-Bohrs-Radians)
 Mixed Optimization -- RFO/linear search
 Update second derivatives using D2CorX and points    2    4    3
 DE=  1.26D-03 DEPred=-5.74D-02 R=-2.19D-02
 Trust test=-2.19D-02 RLast= 7.35D-01 DXMaxT set to 2.52D-01
 ITU= -1  0  1  0
 Use linear search instead of GDIIS.
     Eigenvalues ---    0.02011   0.02011   0.02011   0.02011   0.02011
     Eigenvalues ---    0.02011   0.02011   0.02011   0.15998   0.23010
     Eigenvalues ---    0.24938   0.24997   0.24999   0.25000   0.25000
     Eigenvalues ---    0.25188   0.28569   0.29029   0.29033   0.29255
     Eigenvalues ---    0.34865   0.41530   0.42063   0.44635   0.44657
     Eigenvalues ---    0.44984   0.56024
 RFO step:  Lambda=-2.96641155D-03 EMin= 2.01067185D-02
 Quartic linear search produced a step of -0.44535.
 Iteration  1 RMS(Cart)=  0.03331198 RMS(Int)=  0.01958240
 Iteration  2 RMS(Cart)=  0.01862766 RMS(Int)=  0.00001118
 Iteration  3 RMS(Cart)=  0.00000099 RMS(Int)=  0.00001115
 ClnCor:  largest displacement from symmetrization is 7.39D-09 for atom     6.
 Variable       Old X    -DE/DX   Delta X   Delta X   Delta X     New X
                                 (Linear)    (Quad)   (Total)
    R1        2.68326  -0.01950  -0.02525   0.00736  -0.01789   2.66537
    R2        2.67292  -0.01561  -0.01803   0.00235  -0.01566   2.65726
    R3        3.23122  -0.00099   0.01055  -0.01749  -0.00694   3.22428
    R4        2.66136  -0.00668  -0.03849   0.04034   0.00185   2.66320
    R5        3.23000  -0.00095   0.00593  -0.01098  -0.00505   3.22495
    R6        2.65613  -0.00475  -0.03520   0.03899   0.00377   2.65990
    R7        1.75532   0.16895   0.31957   0.01468   0.33425   2.08958
    R8        2.64174  -0.01408  -0.02209   0.01116  -0.01093   2.63080
    R9        3.24953  -0.00292  -0.00230  -0.00293  -0.00523   3.24430
   R10        2.63558  -0.01353  -0.01698   0.00437  -0.01260   2.62298
   R11        3.24208  -0.00071  -0.00026  -0.00163  -0.00189   3.24020
    A1        2.06788   0.00124   0.00120  -0.00126  -0.00004   2.06784
    A2        2.08910  -0.00092   0.00168  -0.00373  -0.00206   2.08704
    A3        2.12620  -0.00032  -0.00287   0.00499   0.00210   2.12830
    A4        2.08602   0.00608  -0.00533   0.02281   0.01748   2.10350
    A5        2.11771  -0.00303   0.00154  -0.00918  -0.00764   2.11007
    A6        2.07946  -0.00305   0.00379  -0.01364  -0.00984   2.06961
    A7        2.09555  -0.01287   0.01142  -0.04361  -0.03223   2.06332
    A8        2.07846   0.00628  -0.00407   0.01713   0.01308   2.09154
    A9        2.10918   0.00659  -0.00735   0.02648   0.01915   2.12833
   A10        2.11867   0.00803   0.00064   0.01998   0.02059   2.13926
   A11        2.06808  -0.00438   0.00137  -0.01379  -0.01241   2.05568
   A12        2.09643  -0.00365  -0.00201  -0.00619  -0.00818   2.08825
   A13        2.06225  -0.00370  -0.00666  -0.00025  -0.00691   2.05534
   A14        2.13600   0.00122  -0.00126   0.00234   0.00111   2.13710
   A15        2.07955  -0.00112   0.00079  -0.00243  -0.00165   2.07790
   A16        2.06764  -0.00009   0.00047   0.00010   0.00055   2.06818
    D1        0.00000  -0.00000   0.00000  -0.00000   0.00000   0.00000
    D2        3.14159  -0.00000   0.00000  -0.00000   0.00000   3.14159
    D3        3.14159   0.00000   0.00000   0.00000   0.00000   3.14159
    D4        0.00000   0.00000   0.00000  -0.00000   0.00000   0.00000
    D5        0.00000   0.00000   0.00000   0.00000   0.00000   0.00000
    D6        3.14159   0.00000   0.00000   0.00000   0.00000   3.14159
    D7        3.14159  -0.00000   0.00000  -0.00000   0.00000   3.14159
    D8        0.00000  -0.00000   0.00000  -0.00000   0.00000   0.00000
    D9        0.00000  -0.00000   0.00000  -0.00000   0.00000   0.00000
   D10        3.14159  -0.00000   0.00000  -0.00000   0.00000   3.14159
   D11        3.14159   0.00000   0.00000   0.00000   0.00000   3.14159
   D12        0.00000   0.00000   0.00000   0.00000   0.00000   0.00000
   D13        0.00000   0.00000   0.00000   0.00000   0.00000   0.00000
   D14        3.14159   0.00000   0.00000   0.00000   0.00000   3.14159
   D15        3.14159   0.00000   0.00000   0.00000   0.00000   3.14159
   D16        0.00000   0.00000   0.00000   0.00000   0.00000   0.00000
   D17        0.00000  -0.00000   0.00000  -0.00000   0.00000   0.00000
   D18        3.14159  -0.00000   0.00000   0.00000   0.00000   3.14159
   D19        0.00000  -0.00000   0.00000  -0.00000   0.00000   0.00000
   D20        3.14159  -0.00000   0.00000  -0.00000   0.00000   3.14159
         Item               Value     Threshold  Converged?
 Maximum Force            0.168949     0.000450     NO 
 RMS     Force            0.025284     0.000300     NO 
 Maximum Displacement     0.276009     0.001800     NO 
 RMS     Displacement     0.051334     0.001200     NO 
 Predicted change in Energy=-3.603773D-02
 GradGradGradGradGradGradGradGradGradGradGradGradGradGradGradGradGradGrad

                          Input orientation:                          
 ---------------------------------------------------------------------
 Center     Atomic      Atomic             Coordinates (Angstroms)
 Number     Number       Type             X           Y           Z
 ---------------------------------------------------------------------
      1          6           0       -3.174735    0.228387    0.000000
      2          6           0       -1.972477    0.965915    0.000000
      3          6           0       -0.727570    0.305345    0.000000
      4          6           0       -0.720980   -1.102199    0.000000
      5          6           0       -1.890672   -1.857138    0.000000
      6          6           0       -3.099952   -1.175785    0.000000
      7         17           0       -4.552407   -2.087025    0.000000
      8         17           0       -4.668548    1.052824    0.000000
      9         17           0        0.801666   -1.895287    0.000000
     10         17           0       -1.991207    2.672382    0.000000
     11          1           0        0.207983    0.894782    0.000000
 ---------------------------------------------------------------------
                    Distance matrix (angstroms):
                    1          2          3          4          5
     1  C    0.000000
     2  C    1.410451   0.000000
     3  C    2.448374   1.409307   0.000000
     4  C    2.791303   2.417300   1.407560   0.000000
     5  C    2.449130   2.824238   2.455431   1.392160   0.000000
     6  C    1.406162   2.420347   2.796774   2.380110   1.388021
     7  Cl   2.694275   3.997060   4.511410   3.955972   2.671645
     8  Cl   1.706216   2.697472   4.011238   4.497490   4.022994
     9  Cl   4.507965   3.985266   2.679803   1.716810   2.692607
    10  Cl   2.715483   1.706570   2.683215   3.982580   4.530636
    11  H    3.447733   2.181620   1.105756   2.202478   3.460841
                    6          7          8          9         10
     6  C    0.000000
     7  Cl   1.714638   0.000000
     8  Cl   2.725287   3.141996   0.000000
     9  Cl   3.967405   5.357505   6.214064   0.000000
    10  Cl   4.004710   5.404785   3.129077   5.353852   0.000000
    11  H    3.902523   5.617160   4.879091   2.852533   2.827772
                   11
    11  H    0.000000
 Stoichiometry    C6HCl4(1-)
 Framework group  CS[SG(C6HCl4)]
 Deg. of freedom    19
 Full point group                 CS      NOp   2
 Largest Abelian subgroup         CS      NOp   2
 Largest concise Abelian subgroup C1      NOp   1
                         Standard orientation:                         
 ---------------------------------------------------------------------
 Center     Atomic      Atomic             Coordinates (Angstroms)
 Number     Number       Type             X           Y           Z
 ---------------------------------------------------------------------
      1          6           0        0.000000   -0.925889    0.000000
      2          6           0       -1.195547   -0.177532    0.000000
      3          6           0       -1.158089    1.231277    0.000000
      4          6           0        0.099424    1.863642    0.000000
      5          6           0        1.296068    1.152197    0.000000
      6          6           0        1.224143   -0.233959    0.000000
      7         17           0        2.686604   -1.129051    0.000000
      8         17           0       -0.073417   -2.630525    0.000000
      9         17           0        0.131936    3.580145    0.000000
     10         17           0       -2.715339   -0.953812    0.000000
     11          1           0       -2.102318    1.806714    0.000000
 ---------------------------------------------------------------------
 Rotational constants (GHZ):           0.8612103           0.5896481           0.3500073
 Standard basis: VSTO-6G (5D, 7F)
 There are    31 symmetry adapted cartesian basis functions of A'  symmetry.
 There are    10 symmetry adapted cartesian basis functions of A"  symmetry.
 There are    31 symmetry adapted basis functions of A'  symmetry.
 There are    10 symmetry adapted basis functions of A"  symmetry.
    41 basis functions,   246 primitive gaussians,    41 cartesian basis functions
    27 alpha electrons       27 beta electrons
       nuclear repulsion energy       295.6277419793 Hartrees.
 Integral buffers will be    131072 words long.
 Regular integral format.
 Two-electron integral symmetry is turned off.
 Do NDO integrals.
 One-electron integrals computed using PRISM.
 NBasis=    41 RedAO= T EigKep=  1.00D+00  NBF=    31    10
 NBsUse=    41 1.00D-06 EigRej= -1.00D+00 NBFU=    31    10
 Lowest energy guess from the checkpoint file:  "geometry_chks/123_5ClBzAnionIntermediate.chk"
 B after Tr=     0.000000    0.000000    0.000000
         Rot=    1.000000   -0.000000   -0.000000   -0.000157 Ang=  -0.02 deg.
 B after Tr=    -0.000000   -0.000000   -0.000000
         Rot=    0.999999    0.000000    0.000000    0.001040 Ang=   0.12 deg.
 Initial guess orbital symmetries:
       Occupied  (A') (A') (A') (A") (A') (A') (A') (A") (A') (A')
                 (A") (A') (A') (A') (A") (A") (A") (A") (A") (A")
                 (A") (A") (A") (A") (A") (A") (A")
       Virtual   (A') (A') (A') (A") (A') (A') (A') (A") (A') (A')
                 (A") (A') (A') (A')
 Keep J ints in memory in canonical form, NReq=864464.
 Overlap will be assumed to be unity.
 Requested convergence on RMS density matrix=1.00D-08 within**** cycles.
 Requested convergence on MAX density matrix=1.00D-06.
 Requested convergence on             energy=1.00D-06.
 No special actions if energy rises.
 An orbital has undefined symmetry, so N**3 symmetry is turned off.
 SCF Done:  E(RAM1) =  0.973663662006E-02 A.U. after   13 cycles
            NFock= 12  Conv=0.99D-08     -V/T= 1.0001
 Calling FoFJK, ICntrl=      2127 FMM=F ISym2X=1 I1Cent= 0 IOpClX= 0 NMat=1 NMatS=1 NMatT=0.
 ***** Axes restored to original set *****
 -------------------------------------------------------------------
 Center     Atomic                   Forces (Hartrees/Bohr)
 Number     Number              X              Y              Z
 -------------------------------------------------------------------
      1        6           0.009359293   -0.000370151    0.000000000
      2        6           0.004768449   -0.014146797    0.000000000
      3        6          -0.006396544   -0.004025495    0.000000000
      4        6          -0.009555741    0.010800781   -0.000000000
      5        6           0.004042579    0.004814118    0.000000000
      6        6           0.004232279    0.002913536   -0.000000000
      7       17          -0.001198293   -0.000725786   -0.000000000
      8       17          -0.002196919    0.000912437   -0.000000000
      9       17           0.001074459   -0.000150495    0.000000000
     10       17           0.000626492    0.002999983   -0.000000000
     11        1          -0.004756055   -0.003022130   -0.000000000
 -------------------------------------------------------------------
 Cartesian Forces:  Max     0.014146797 RMS     0.004577800

 GradGradGradGradGradGradGradGradGradGradGradGradGradGradGradGradGradGrad
 Berny optimization.
 Using GEDIIS/GDIIS optimizer.
 FormGI is forming the generalized inverse of G from B-inverse, IUseBI=4.
 Internal  Forces:  Max     0.013464581 RMS     0.003571071
 Search for a local minimum.
 Step number   5 out of a maximum of   57
 All quantities printed in internal units (Hartrees-Bohrs-Radians)
 Mixed Optimization -- RFO/linear search
 Update second derivatives using D2CorX and points    4    3    5
 DE= -2.38D-02 DEPred=-3.60D-02 R= 6.60D-01
 TightC=F SS=  1.41D+00  RLast= 4.18D-01 DXNew= 4.2426D-01 1.2528D+00
 Trust test= 6.60D-01 RLast= 4.18D-01 DXMaxT set to 4.24D-01
 ITU=  1 -1  0  1  0
 Use linear search instead of GDIIS.
     Eigenvalues ---    0.02011   0.02011   0.02011   0.02011   0.02011
     Eigenvalues ---    0.02011   0.02011   0.02011   0.15996   0.18778
     Eigenvalues ---    0.24946   0.24992   0.25000   0.25000   0.25008
     Eigenvalues ---    0.25186   0.26175   0.28943   0.29038   0.29042
     Eigenvalues ---    0.29491   0.41439   0.41796   0.44653   0.44657
     Eigenvalues ---    0.44744   0.68989
 RFO step:  Lambda=-1.07838335D-03 EMin= 2.01067171D-02
 Quartic linear search produced a step of -0.01912.
 Iteration  1 RMS(Cart)=  0.00921749 RMS(Int)=  0.00001499
 Iteration  2 RMS(Cart)=  0.00001741 RMS(Int)=  0.00000069
 Iteration  3 RMS(Cart)=  0.00000000 RMS(Int)=  0.00000069
 ClnCor:  largest displacement from symmetrization is 1.07D-10 for atom    10.
 Variable       Old X    -DE/DX   Delta X   Delta X   Delta X     New X
                                 (Linear)    (Quad)   (Total)
    R1        2.66537  -0.00804  -0.00074  -0.01256  -0.01330   2.65206
    R2        2.65726  -0.00429  -0.00047  -0.00539  -0.00586   2.65140
    R3        3.22428   0.00236   0.00059   0.00792   0.00851   3.23279
    R4        2.66320  -0.01346  -0.00169  -0.01822  -0.01991   2.64329
    R5        3.22495   0.00299   0.00035   0.01151   0.01186   3.23681
    R6        2.65990  -0.01339  -0.00158  -0.01871  -0.02029   2.63961
    R7        2.08958  -0.00563   0.00733  -0.03697  -0.02964   2.05994
    R8        2.63080  -0.00800  -0.00074  -0.01141  -0.01215   2.61865
    R9        3.24430   0.00102   0.00000   0.00673   0.00673   3.25104
   R10        2.62298  -0.00425  -0.00049  -0.00405  -0.00454   2.61844
   R11        3.24020   0.00140   0.00003   0.00793   0.00796   3.24816
    A1        2.06784  -0.00088   0.00005  -0.00120  -0.00115   2.06669
    A2        2.08704   0.00086   0.00011   0.00205   0.00217   2.08920
    A3        2.12830   0.00002  -0.00016  -0.00085  -0.00102   2.12729
    A4        2.10350   0.00080  -0.00056   0.00525   0.00468   2.10818
    A5        2.11007   0.00066   0.00021   0.00098   0.00119   2.11126
    A6        2.06961  -0.00146   0.00035  -0.00622  -0.00587   2.06374
    A7        2.06332   0.00146   0.00111  -0.00384  -0.00274   2.06058
    A8        2.09154  -0.00071  -0.00042   0.00204   0.00162   2.09316
    A9        2.12833  -0.00075  -0.00068   0.00180   0.00112   2.12945
   A10        2.13926   0.00226  -0.00037   0.00767   0.00730   2.14657
   A11        2.05568  -0.00172   0.00030  -0.00609  -0.00579   2.04988
   A12        2.08825  -0.00054   0.00007  -0.00158  -0.00151   2.08673
   A13        2.05534  -0.00221  -0.00015  -0.00398  -0.00413   2.05122
   A14        2.13710  -0.00142  -0.00008  -0.00390  -0.00397   2.13313
   A15        2.07790   0.00068   0.00007   0.00144   0.00150   2.07940
   A16        2.06818   0.00075   0.00001   0.00246   0.00247   2.07065
    D1        0.00000   0.00000   0.00000   0.00000   0.00000   0.00000
    D2        3.14159  -0.00000   0.00000  -0.00000   0.00000   3.14159
    D3        3.14159   0.00000   0.00000   0.00000   0.00000   3.14159
    D4        0.00000   0.00000   0.00000  -0.00000   0.00000   0.00000
    D5        0.00000   0.00000   0.00000   0.00000   0.00000   0.00000
    D6        3.14159   0.00000   0.00000   0.00000   0.00000   3.14159
    D7        3.14159  -0.00000   0.00000  -0.00000   0.00000   3.14159
    D8        0.00000  -0.00000   0.00000  -0.00000   0.00000   0.00000
    D9        0.00000  -0.00000   0.00000  -0.00000   0.00000   0.00000
   D10        3.14159  -0.00000   0.00000  -0.00000   0.00000   3.14159
   D11        3.14159   0.00000   0.00000   0.00000   0.00000   3.14159
   D12        0.00000  -0.00000   0.00000  -0.00000   0.00000   0.00000
   D13        0.00000   0.00000   0.00000   0.00000   0.00000   0.00000
   D14        3.14159   0.00000   0.00000   0.00000   0.00000   3.14159
   D15        3.14159   0.00000   0.00000   0.00000   0.00000   3.14159
   D16        0.00000   0.00000   0.00000   0.00000   0.00000   0.00000
   D17        0.00000   0.00000   0.00000   0.00000   0.00000   0.00000
   D18        3.14159   0.00000   0.00000   0.00000   0.00000   3.14159
   D19        0.00000  -0.00000   0.00000  -0.00000   0.00000   0.00000
   D20        3.14159  -0.00000   0.00000  -0.00000   0.00000   3.14159
         Item               Value     Threshold  Converged?
 Maximum Force            0.013465     0.000450     NO 
 RMS     Force            0.003571     0.000300     NO 
 Maximum Displacement     0.034726     0.001800     NO 
 RMS     Displacement     0.009229     0.001200     NO 
 Predicted change in Energy=-5.380043D-04
 GradGradGradGradGradGradGradGradGradGradGradGradGradGradGradGradGradGrad

                          Input orientation:                          
 ---------------------------------------------------------------------
 Center     Atomic      Atomic             Coordinates (Angstroms)
 Number     Number       Type             X           Y           Z
 ---------------------------------------------------------------------
      1          6           0       -3.167923    0.226450    0.000000
      2          6           0       -1.969328    0.956471    0.000000
      3          6           0       -0.732754    0.302681    0.000000
      4          6           0       -0.727958   -1.094133    0.000000
      5          6           0       -1.887676   -1.852622    0.000000
      6          6           0       -3.096172   -1.174776    0.000000
      7         17           0       -4.552691   -2.087464    0.000000
      8         17           0       -4.664826    1.054603    0.000000
      9         17           0        0.801442   -1.881929    0.000000
     10         17           0       -1.980619    2.669282    0.000000
     11          1           0        0.189606    0.883637    0.000000
 ---------------------------------------------------------------------
                    Distance matrix (angstroms):
                    1          2          3          4          5
     1  C    0.000000
     2  C    1.403410   0.000000
     3  C    2.436362   1.398770   0.000000
     4  C    2.774413   2.397076   1.396822   0.000000
     5  C    2.441633   2.810279   2.445235   1.385731   0.000000
     6  C    1.403061   2.410807   2.787225   2.369587   1.385619
     7  Cl   2.696623   3.992405   4.506075   3.951618   2.675342
     8  Cl   1.710718   2.697284   4.003321   4.485086   4.020512
     9  Cl   4.494566   3.966570   2.669508   1.720374   2.689278
    10  Cl   2.716086   1.712848   2.675438   3.966416   4.522859
    11  H    3.421243   2.160163   1.090073   2.180253   3.435436
                    6          7          8          9         10
     6  C    0.000000
     7  Cl   1.718850   0.000000
     8  Cl   2.725950   3.144067   0.000000
     9  Cl   3.961245   5.358076   6.205103   0.000000
    10  Cl   4.002654   5.407604   3.132436   5.334172   0.000000
    11  H    3.877294   5.596144   4.857442   2.832437   2.810410
                   11
    11  H    0.000000
 Stoichiometry    C6HCl4(1-)
 Framework group  CS[SG(C6HCl4)]
 Deg. of freedom    19
 Full point group                 CS      NOp   2
 Largest Abelian subgroup         CS      NOp   2
 Largest concise Abelian subgroup C1      NOp   1
                         Standard orientation:                         
 ---------------------------------------------------------------------
 Center     Atomic      Atomic             Coordinates (Angstroms)
 Number     Number       Type             X           Y           Z
 ---------------------------------------------------------------------
      1          6           0        0.000000   -0.920230    0.000000
      2          6           0       -1.186136   -0.170135    0.000000
      3          6           0       -1.149066    1.228144    0.000000
      4          6           0        0.100520    1.852362    0.000000
      5          6           0        1.294912    1.149740    0.000000
      6          6           0        1.223823   -0.234054    0.000000
      7         17           0        2.688120   -1.134209    0.000000
      8         17           0       -0.077784   -2.629178    0.000000
      9         17           0        0.127716    3.572521    0.000000
     10         17           0       -2.716011   -0.940417    0.000000
     11          1           0       -2.079026    1.796855    0.000000
 ---------------------------------------------------------------------
 Rotational constants (GHZ):           0.8614898           0.5921072           0.3509187
 Standard basis: VSTO-6G (5D, 7F)
 There are    31 symmetry adapted cartesian basis functions of A'  symmetry.
 There are    10 symmetry adapted cartesian basis functions of A"  symmetry.
 There are    31 symmetry adapted basis functions of A'  symmetry.
 There are    10 symmetry adapted basis functions of A"  symmetry.
[...]
 ***** Axes restored to original set *****
 -------------------------------------------------------------------
 Center     Atomic                   Forces (Hartrees/Bohr)
 Number     Number              X              Y              Z
 -------------------------------------------------------------------
      1        6           0.000014946    0.000131236    0.000000000
      2        6           0.000035560   -0.000040157    0.000000000
      3        6           0.000106673   -0.000030585    0.000000000
      4        6          -0.000100146    0.000104101    0.000000000
      5        6           0.000112857    0.000003059    0.000000000
      6        6          -0.000135664   -0.000153466   -0.000000000
      7       17           0.000004353   -0.000001965   -0.000000000
      8       17          -0.000038412   -0.000000171   -0.000000000
      9       17           0.000010298    0.000005809    0.000000000
     10       17           0.000013202    0.000007027   -0.000000000
     11        1          -0.000023666   -0.000024889   -0.000000000
 -------------------------------------------------------------------
 Cartesian Forces:  Max     0.000153466 RMS     0.000058062

 GradGradGradGradGradGradGradGradGradGradGradGradGradGradGradGradGradGrad
 Berny optimization.
 Using GEDIIS/GDIIS optimizer.
 FormGI is forming the generalized inverse of G from B-inverse, IUseBI=4.
 Internal  Forces:  Max     0.000137288 RMS     0.000037267
 Search for a local minimum.
 Step number   8 out of a maximum of   57
 All quantities printed in internal units (Hartrees-Bohrs-Radians)
 Mixed Optimization -- En-DIIS/RFO-DIIS
 Swapping is turned off.
 Update second derivatives using D2CorX and points    4    3    5    6    7
                                                      8
 DE= -4.72D-06 DEPred=-4.67D-06 R= 1.01D+00
 TightC=F SS=  1.41D+00  RLast= 5.13D-03 DXNew= 7.1352D-01 1.5377D-02
 Trust test= 1.01D+00 RLast= 5.13D-03 DXMaxT set to 4.24D-01
 ITU=  1  1  1  1 -1  0  1  0
     Eigenvalues ---    0.02011   0.02011   0.02011   0.02011   0.02011
     Eigenvalues ---    0.02011   0.02011   0.02011   0.15970   0.19663
     Eigenvalues ---    0.24578   0.24953   0.24997   0.25024   0.25114
     Eigenvalues ---    0.25232   0.27242   0.28981   0.29163   0.29630
     Eigenvalues ---    0.34596   0.41673   0.43899   0.44533   0.44665
     Eigenvalues ---    0.45265   0.71016
 En-DIIS/RFO-DIIS/Sim-DIIS IScMMF=       -3 using points:     8    7    6
 RFO step:  Lambda=-1.96743273D-07.
 Use linear search instead of GDIIS.
 RFO step:  Lambda=-1.95887125D-07 EMin= 2.01067166D-02
 Quartic linear search produced a step of  0.00951.
 Iteration  1 RMS(Cart)=  0.00015627 RMS(Int)=  0.00000001
 Iteration  2 RMS(Cart)=  0.00000001 RMS(Int)=  0.00000000
 ClnCor:  largest displacement from symmetrization is 1.86D-12 for atom     8.
 Variable       Old X    -DE/DX   Delta X   Delta X   Delta X     New X
                                 (Linear)    (Quad)   (Total)
    R1        2.65256   0.00006  -0.00000   0.00014   0.00014   2.65270
    R2        2.65333   0.00014   0.00000   0.00033   0.00033   2.65366
    R3        3.23334   0.00003  -0.00001   0.00010   0.00009   3.23343
    R4        2.64402  -0.00000   0.00001   0.00001   0.00002   2.64404
    R5        3.23952   0.00001  -0.00001   0.00003   0.00003   3.23955
    R6        2.64067  -0.00010   0.00001  -0.00022  -0.00020   2.64047
    R7        2.07630  -0.00003  -0.00004  -0.00013  -0.00017   2.07612
    R8        2.61883  -0.00002   0.00001  -0.00006  -0.00005   2.61877
    R9        3.25466   0.00001   0.00000   0.00005   0.00005   3.25472
   R10        2.61869   0.00007   0.00000   0.00015   0.00015   2.61884
   R11        3.24522  -0.00000  -0.00001  -0.00005  -0.00005   3.24516
    A1        2.06699  -0.00001   0.00000   0.00001   0.00001   2.06700
    A2        2.09019   0.00004  -0.00000   0.00013   0.00012   2.09032
    A3        2.12600  -0.00002  -0.00000  -0.00013  -0.00013   2.12587
    A4        2.10675   0.00003   0.00001   0.00016   0.00017   2.10692
    A5        2.11179   0.00000  -0.00001   0.00001  -0.00000   2.11179
    A6        2.06465  -0.00004   0.00000  -0.00017  -0.00017   2.06448
    A7        2.06214  -0.00003  -0.00001  -0.00023  -0.00024   2.06190
    A8        2.09290   0.00002   0.00001   0.00017   0.00018   2.09308
    A9        2.12815   0.00001   0.00001   0.00006   0.00006   2.12821
   A10        2.14593   0.00007   0.00000   0.00027   0.00027   2.14620
   A11        2.05072  -0.00005  -0.00000  -0.00020  -0.00020   2.05052
   A12        2.08653  -0.00002  -0.00000  -0.00007  -0.00007   2.08646
   A13        2.05112   0.00002   0.00000   0.00008   0.00008   2.05120
   A14        2.13344  -0.00008  -0.00000  -0.00029  -0.00029   2.13315
   A15        2.07905   0.00005  -0.00000   0.00017   0.00017   2.07921
   A16        2.07070   0.00004   0.00000   0.00012   0.00013   2.07082
    D1        0.00000   0.00000   0.00000   0.00000   0.00000   0.00000
    D2        3.14159  -0.00000   0.00000  -0.00000   0.00000   3.14159
    D3        3.14159   0.00000   0.00000   0.00000   0.00000   3.14159
    D4        0.00000   0.00000   0.00000   0.00000   0.00000   0.00000
    D5        0.00000   0.00000   0.00000   0.00000   0.00000   0.00000
    D6        3.14159   0.00000   0.00000   0.00000   0.00000   3.14159
    D7        3.14159  -0.00000   0.00000  -0.00000   0.00000   3.14159
    D8        0.00000   0.00000   0.00000   0.00000   0.00000   0.00000
    D9        0.00000  -0.00000   0.00000  -0.00000   0.00000   0.00000
   D10        3.14159  -0.00000   0.00000  -0.00000   0.00000   3.14159
   D11        3.14159   0.00000   0.00000   0.00000   0.00000   3.14159
   D12        0.00000  -0.00000   0.00000  -0.00000   0.00000   0.00000
   D13        0.00000   0.00000   0.00000   0.00000   0.00000   0.00000
   D14        3.14159   0.00000   0.00000   0.00000   0.00000   3.14159
   D15        3.14159   0.00000   0.00000   0.00000   0.00000   3.14159
   D16        0.00000   0.00000   0.00000   0.00000   0.00000   0.00000
   D17        0.00000   0.00000   0.00000   0.00000   0.00000   0.00000
   D18        3.14159   0.00000   0.00000   0.00000   0.00000   3.14159
   D19        0.00000  -0.00000   0.00000  -0.00000   0.00000   0.00000
   D20        3.14159  -0.00000   0.00000  -0.00000   0.00000   3.14159
         Item               Value     Threshold  Converged?
 Maximum Force            0.000137     0.000450     YES
 RMS     Force            0.000037     0.000300     YES
 Maximum Displacement     0.000444     0.001800     YES
 RMS     Displacement     0.000156     0.001200     YES
 Predicted change in Energy=-9.837157D-08
 Optimization completed.
    -- Stationary point found.
                           ----------------------------
                           !   Optimized Parameters   !
                           ! (Angstroms and Degrees)  !
 --------------------------                            --------------------------
 ! Name  Definition              Value          Derivative Info.                !
 --------------------------------------------------------------------------------
 ! R1    R(1,2)                  1.4037         -DE/DX =    0.0001              !
 ! R2    R(1,6)                  1.4041         -DE/DX =    0.0001              !
 ! R3    R(1,8)                  1.711          -DE/DX =    0.0                 !
 ! R4    R(2,3)                  1.3992         -DE/DX =    0.0                 !
 ! R5    R(2,10)                 1.7143         -DE/DX =    0.0                 !
 ! R6    R(3,4)                  1.3974         -DE/DX =   -0.0001              !
 ! R7    R(3,11)                 1.0987         -DE/DX =    0.0                 !
 ! R8    R(4,5)                  1.3858         -DE/DX =    0.0                 !
 ! R9    R(4,9)                  1.7223         -DE/DX =    0.0                 !
 ! R10   R(5,6)                  1.3858         -DE/DX =    0.0001              !
 ! R11   R(6,7)                  1.7173         -DE/DX =    0.0                 !
 ! A1    A(2,1,6)              118.4298         -DE/DX =    0.0                 !
 ! A2    A(2,1,8)              119.7592         -DE/DX =    0.0                 !
 ! A3    A(6,1,8)              121.811          -DE/DX =    0.0                 !
 ! A4    A(1,2,3)              120.7078         -DE/DX =    0.0                 !
 ! A5    A(1,2,10)             120.9965         -DE/DX =    0.0                 !
 ! A6    A(3,2,10)             118.2957         -DE/DX =    0.0                 !
 ! A7    A(2,3,4)              118.1521         -DE/DX =    0.0                 !
 ! A8    A(2,3,11)             119.9142         -DE/DX =    0.0                 !
 ! A9    A(4,3,11)             121.9338         -DE/DX =    0.0                 !
 ! A10   A(3,4,5)              122.9528         -DE/DX =    0.0001              !
 ! A11   A(3,4,9)              117.4978         -DE/DX =   -0.0001              !
 ! A12   A(5,4,9)              119.5494         -DE/DX =    0.0                 !
 ! A13   A(4,5,6)              117.5205         -DE/DX =    0.0                 !
 ! A14   A(1,6,5)              122.2372         -DE/DX =   -0.0001              !
 ! A15   A(1,6,7)              119.1207         -DE/DX =    0.0                 !
 ! A16   A(5,6,7)              118.6421         -DE/DX =    0.0                 !
 ! D1    D(6,1,2,3)              0.0            -DE/DX =    0.0                 !
 ! D2    D(6,1,2,10)           180.0            -DE/DX =    0.0                 !
 ! D3    D(8,1,2,3)            180.0            -DE/DX =    0.0                 !
 ! D4    D(8,1,2,10)             0.0            -DE/DX =    0.0                 !
 ! D5    D(2,1,6,5)              0.0            -DE/DX =    0.0                 !
 ! D6    D(2,1,6,7)            180.0            -DE/DX =    0.0                 !
 ! D7    D(8,1,6,5)            180.0            -DE/DX =    0.0                 !
 ! D8    D(8,1,6,7)              0.0            -DE/DX =    0.0                 !
 ! D9    D(1,2,3,4)              0.0            -DE/DX =    0.0                 !
 ! D10   D(1,2,3,11)           180.0            -DE/DX =    0.0                 !
 ! D11   D(10,2,3,4)           180.0            -DE/DX =    0.0                 !
 ! D12   D(10,2,3,11)            0.0            -DE/DX =    0.0                 !
 ! D13   D(2,3,4,5)              0.0            -DE/DX =    0.0                 !
 ! D14   D(2,3,4,9)            180.0            -DE/DX =    0.0                 !
 ! D15   D(11,3,4,5)           180.0            -DE/DX =    0.0                 !
 ! D16   D(11,3,4,9)             0.0            -DE/DX =    0.0                 !
 ! D17   D(3,4,5,6)              0.0            -DE/DX =    0.0                 !
 ! D18   D(9,4,5,6)            180.0            -DE/DX =    0.0                 !
 ! D19   D(4,5,6,1)              0.0            -DE/DX =    0.0                 !
 ! D20   D(4,5,6,7)            180.0            -DE/DX =    0.0                 !
 --------------------------------------------------------------------------------
 GradGradGradGradGradGradGradGradGradGradGradGradGradGradGradGradGradGrad

                          Input orientation:                          
 ---------------------------------------------------------------------
 Center     Atomic      Atomic             Coordinates (Angstroms)
 Number     Number       Type             X           Y           Z
 ---------------------------------------------------------------------
      1          6           0       -3.168766    0.226800    0.000000
      2          6           0       -1.970213    0.957395    0.000000
      3          6           0       -0.733998    0.302102    0.000000
      4          6           0       -0.728514   -1.095271    0.000000
      5          6           0       -1.888417   -1.853643    0.000000
      6          6           0       -3.096867   -1.175440    0.000000
      7         17           0       -4.552325   -2.086889    0.000000
      8         17           0       -4.667042    1.053067    0.000000
      9         17           0        0.802318   -1.884478    0.000000
     10         17           0       -1.981240    2.671641    0.000000
     11          1           0        0.196161    0.886916    0.000000
 ---------------------------------------------------------------------
                    Distance matrix (angstroms):
                    1          2          3          4          5
     1  C    0.000000
     2  C    1.403673   0.000000
     3  C    2.435932   1.399156   0.000000
     4  C    2.775374   2.399012   1.397383   0.000000
     5  C    2.442855   2.812229   2.445388   1.385823   0.000000
     6  C    1.404082   2.412122   2.786804   2.369709   1.385753
     7  Cl   2.695811   3.991863   4.504098   3.950296   2.674099
     8  Cl   1.711008   2.698525   4.004096   4.486352   4.021159
     9  Cl   4.497444   3.970286   2.672339   1.722293   2.690912
    10  Cl   2.717989   1.714281   2.677747   3.969754   4.526236
    11  H    3.429065   2.167520   1.098728   2.187256   3.443273
                    6          7          8          9         10
     6  C    0.000000
     7  Cl   1.717294   0.000000
     8  Cl   2.726113   3.142051   0.000000
     9  Cl   3.963127   5.358467   6.208306   0.000000
    10  Cl   4.005578   5.408705   3.135812   5.339140   0.000000
    11  H    3.885530   5.602824   4.866040   2.836909   2.815371
                   11
    11  H    0.000000
 Stoichiometry    C6HCl4(1-)
 Framework group  CS[SG(C6HCl4)]
 Deg. of freedom    19
 Full point group                 CS      NOp   2
 Largest Abelian subgroup         CS      NOp   2
 Largest concise Abelian subgroup C1      NOp   1
                         Standard orientation:                         
 ---------------------------------------------------------------------
 Center     Atomic      Atomic             Coordinates (Angstroms)
 Number     Number       Type             X           Y           Z
 ---------------------------------------------------------------------
      1          6           0        0.000000   -0.920834    0.000000
      2          6           0       -1.186958   -0.171549    0.000000
      3          6           0       -1.148990    1.227092    0.000000
      4          6           0        0.100518    1.852719    0.000000
      5          6           0        1.295195    1.150400    0.000000
      6          6           0        1.224368   -0.233541    0.000000
      7         17           0        2.687476   -1.132660    0.000000
      8         17           0       -0.074740   -2.630208    0.000000
      9         17           0        0.127594    3.574800    0.000000
     10         17           0       -2.717899   -0.942897    0.000000
     11          1           0       -2.086118    1.800672    0.000000
 ---------------------------------------------------------------------
 Rotational constants (GHZ):           0.8610656           0.5915252           0.3506438

 **********************************************************************

            Population analysis using the SCF Density.

 **********************************************************************

 Orbital symmetries:
       Occupied  (A') (A') (A') (A') (A') (A') (A') (A') (A') (A')
                 (A') (A') (A") (A') (A') (A") (A") (A') (A") (A')
                 (A') (A') (A') (A") (A") (A") (A')
       Virtual   (A") (A") (A') (A') (A') (A') (A") (A') (A') (A')
                 (A') (A') (A') (A')
 The electronic state is 1-A'.
 Alpha  occ. eigenvalues --   -1.30285  -1.24571  -1.23960  -1.22220  -1.19463
 Alpha  occ. eigenvalues --   -0.98529  -0.95801  -0.70970  -0.69186  -0.52841
 Alpha  occ. eigenvalues --   -0.46812  -0.46539  -0.41191  -0.40922  -0.38798
 Alpha  occ. eigenvalues --   -0.34814  -0.34535  -0.34281  -0.32188  -0.30781
 Alpha  occ. eigenvalues --   -0.30509  -0.28981  -0.27153  -0.27131  -0.19376
 Alpha  occ. eigenvalues --   -0.17686  -0.13362
 Alpha virt. eigenvalues --    0.15446   0.17056   0.17448   0.18753   0.21369
 Alpha virt. eigenvalues --    0.21850   0.26858   0.28549   0.31056   0.31455
 Alpha virt. eigenvalues --    0.32425   0.33562   0.36921   0.38664
          Condensed to atoms (all electrons):
               1          2          3          4          5          6
     1  C    4.066492   0.000000   0.000000   0.000000   0.000000   0.000000
     2  C    0.000000   4.120663   0.000000   0.000000   0.000000   0.000000
     3  C    0.000000   0.000000   4.141805   0.000000   0.000000   0.000000
     4  C    0.000000   0.000000   0.000000   4.051149   0.000000   0.000000
     5  C    0.000000   0.000000   0.000000   0.000000   4.339424   0.000000
     6  C    0.000000   0.000000   0.000000   0.000000   0.000000   4.045148
     7  Cl   0.000000   0.000000   0.000000   0.000000   0.000000   0.000000
     8  Cl   0.000000   0.000000   0.000000   0.000000   0.000000   0.000000
     9  Cl   0.000000   0.000000   0.000000   0.000000   0.000000   0.000000
    10  Cl   0.000000   0.000000   0.000000   0.000000   0.000000   0.000000
    11  H    0.000000   0.000000   0.000000   0.000000   0.000000   0.000000
               7          8          9         10         11
     1  C    0.000000   0.000000   0.000000   0.000000   0.000000
     2  C    0.000000   0.000000   0.000000   0.000000   0.000000
     3  C    0.000000   0.000000   0.000000   0.000000   0.000000
     4  C    0.000000   0.000000   0.000000   0.000000   0.000000
     5  C    0.000000   0.000000   0.000000   0.000000   0.000000
     6  C    0.000000   0.000000   0.000000   0.000000   0.000000
     7  Cl   7.089847   0.000000   0.000000   0.000000   0.000000
     8  Cl   0.000000   7.069819   0.000000   0.000000   0.000000
     9  Cl   0.000000   0.000000   7.112508   0.000000   0.000000
    10  Cl   0.000000   0.000000   0.000000   7.083258   0.000000
    11  H    0.000000   0.000000   0.000000   0.000000   0.879888
 Mulliken charges:
               1
     1  C   -0.066492
     2  C   -0.120663
     3  C   -0.141805
     4  C   -0.051149
     5  C   -0.339424
     6  C   -0.045148
     7  Cl  -0.089847
     8  Cl  -0.069819
     9  Cl  -0.112508
    10  Cl  -0.083258
    11  H    0.120112
 Sum of Mulliken charges =  -1.00000
 Mulliken charges with hydrogens summed into heavy atoms:
               1
     1  C   -0.066492
     2  C   -0.120663
     3  C   -0.021693
     4  C   -0.051149
     5  C   -0.339424
     6  C   -0.045148
     7  Cl  -0.089847
     8  Cl  -0.069819
     9  Cl  -0.112508
    10  Cl  -0.083258
 Charge=             -1.0000 electrons
 Dipole moment (field-independent basis, Debye):
    X=             -4.0025    Y=             -2.8159    Z=              0.0000  Tot=              4.8938
 N-N= 2.958662957405D+02 E-N=-4.247691973902D+02  KE=-1.358872191167D+02
 Symmetry A'   KE=-1.042300757391D+02
 Symmetry A"   KE=-3.165714337756D+01
 1\1\GINC-SH02-02N47\FOpt\RAM1\ZDO\C6H1Cl4(1-)\JLAPIER\08-Dec-2025\0\\#
  opt am1 SCF(maxcyc=10000)\\Anion Intermediate (removed 4) 123_5\\-1,1
 \C,-3.1687656466,0.2268003943,0.\C,-1.970213225,0.9573953558,0.\C,-0.7
 339978103,0.3021017283,0.\C,-0.7285136469,-1.0952708731,0.\C,-1.888416
 8023,-1.8536434028,0.\C,-3.0968665308,-1.1754397649,0.\Cl,-4.552324538
 3,-2.0868893466,0.\Cl,-4.667041524,1.0530668139,0.\Cl,0.802318154,-1.8
 844779691,0.\Cl,-1.9812395243,2.6716409064,0.\H,0.1961610946,0.8869161
 577,0.\\Version=ES64L-G16RevB.01\State=1-A'\HF=0.0092517\RMSD=9.406e-0
 9\RMSF=5.806e-05\Dipole=-0.2930834,1.9029344,0.\PG=CS [SG(C6H1Cl4)]\\@


 A politician is a person who can make waves and then
 make you think he's the only one who can save the ship.
 -- Ivern Ball
 Job cpu time:       0 days  0 hours  0 minutes  6.1 seconds.
 Elapsed time:       0 days  0 hours  0 minutes 15.0 seconds.
 File lengths (MBytes):  RWF=     10 Int=      0 D2E=      0 Chk=      2 Scr=      1
 Normal termination of Gaussian 16 at Mon Dec  8 17:08:40 2025.
