 Entering Gaussian System, Link 0=g16
 Initial command:
 /share/software/user/restricted/gaussian/g16.B01/l1.exe "/home/users/jlapier/Chloroaromatics/Gau-1404.inp" -scrdir="/home/users/jlapier/Chloroaromatics/"
 Entering Link 1 = /share/software/user/restricted/gaussian/g16.B01/l1.exe PID=      1407.
  
 Copyright (c) 1988-2017, Gaussian, Inc.  All Rights Reserved.
  
 This is part of the Gaussian(R) 16 program.  It is based on
 the Gaussian(R) 09 system (copyright 2009, Gaussian, Inc.),
 the Gaussian(R) 03 system (copyright 2003, Gaussian, Inc.),
 the Gaussian(R) 98 system (copyright 1998, Gaussian, Inc.),
 the Gaussian(R) 94 system (copyright 1995, Gaussian, Inc.),
 the Gaussian 92(TM) system (copyright 1992, Gaussian, Inc.),
 the Gaussian 90(TM) system (copyright 1990, Gaussian, Inc.),
 the Gaussian 88(TM) system (copyright 1988, Gaussian, Inc.),
 the Gaussian 86(TM) system (copyright 1986, Carnegie Mellon
 University), and the Gaussian 82(TM) system (copyright 1983,
 Carnegie Mellon University). Gaussian is a federally registered
 trademark of Gaussian, Inc.
  
 This software contains proprietary and confidential information,
 including trade secrets, belonging to Gaussian, Inc.
  
 This software is provided under written license and may be
 used, copied, transmitted, or stored only in accord with that
 written license.
  
 The following legend is applicable only to US Government
 contracts under FAR:
  
                    RESTRICTED RIGHTS LEGEND
  
 Use, reproduction and disclosure by the US Government is
 subject to restrictions as set forth in subparagraphs (a)
 and (c) of the Commercial Computer Software - Restricted
 Rights clause in FAR 52.227-19.
  
 Gaussian, Inc.
 340 Quinnipiac St., Bldg. 40, Wallingford CT 06492
  
  
 ---------------------------------------------------------------
 Warning -- This program may not be used in any manner that
 competes with the business of Gaussian, Inc. or will provide
 assistance to any competitor of Gaussian, Inc.  The licensee
 of this program is prohibited from giving any competitor of
 Gaussian, Inc. access to this program.  By using this program,
 the user acknowledges that Gaussian, Inc. is engaged in the
 business of creating and licensing software in the field of
 computational chemistry and represents and warrants to the
 licensee that it is not a competitor of Gaussian, Inc. and that
 it will not use this program in any manner prohibited above.
 ---------------------------------------------------------------
  

 Cite this work as:
 Gaussian 16, Revision B.01,
 M. J. Frisch, G. W. Trucks, H. B. Schlegel, G. E. Scuseria, 
 M. A. Robb, J. R. Cheeseman, G. Scalmani, V. Barone, 
 G. A. Petersson, H. Nakatsuji, X. Li, M. Caricato, A. V. Marenich, 
 J. Bloino, B. G. Janesko, R. Gomperts, B. Mennucci, H. P. Hratchian, 
 J. V. Ortiz, A. F. Izmaylov, J. L. Sonnenberg, D. Williams-Young, 
 F. Ding, F. Lipparini, F. Egidi, J. Goings, B. Peng, A. Petrone, 
 T. Henderson, D. Ranasinghe, V. G. Zakrzewski, J. Gao, N. Rega, 
 G. Zheng, W. Liang, M. Hada, M. Ehara, K. Toyota, R. Fukuda, 
 J. Hasegawa, M. Ishida, T. Nakajima, Y. Honda, O. Kitao, H. Nakai, 
 T. Vreven, K. Throssell, J. A. Montgomery, Jr., J. E. Peralta, 
 F. Ogliaro, M. J. Bearpark, J. J. Heyd, E. N. Brothers, K. N. Kudin, 
 V. N. Staroverov, T. A. Keith, R. Kobayashi, J. Normand, 
 K. Raghavachari, A. P. Rendell, J. C. Burant, S. S. Iyengar, 
 J. Tomasi, M. Cossi, J. M. Millam, M. Klene, C. Adamo, R. Cammi, 
 J. W. Ochterski, R. L. Martin, K. Morokuma, O. Farkas, 
 J. B. Foresman, and D. J. Fox, Gaussian, Inc., Wallingford CT, 2016.
 
 ******************************************
 Gaussian 16:  ES64L-G16RevB.01 20-Dec-2017
                 9-Dec-2025 
 ******************************************
 %mem=2GB
 %nprocshare=1
 Will use up to    1 processors via shared memory.
 %chk=geometry_chks/123_56ClBzNeutralRadical.chk
 -----------------
 # opt am1 SCF=XQC
 -----------------
 1/18=20,19=15,26=1,38=1/1,3;
 2/9=110,12=2,17=6,18=5,40=1/2;
 3/5=2,25=1,41=700000,71=1/1,2,3;
 4/35=1/1;
 5/5=2,8=3,13=1,35=1,38=5/2,8;
 6/7=2,8=2,9=2,10=2,28=1/1;
 7//1,2,3,16;
 1/18=20,19=15,26=1/3(2);
 2/9=110/2;
 99//99;
 2/9=110/2;
 3/5=2,25=1,41=700000,71=1,135=20/1,2,3;
 4/5=5,16=3,35=1/1;
 5/5=2,8=3,13=1,35=1,38=5/2,8;
 7//1,2,3,16;
 1/18=20,19=15,26=1/3(-5);
 2/9=110/2;
 6/7=2,8=2,9=2,10=2,19=2,28=1/1;
 99/9=1/99;
 ----------------------------------
 Neutral Radical (removed 4) 123_56
 ----------------------------------
 Symbolic Z-matrix:
 Charge =  0 Multiplicity = 2
 C                    -3.20928   0.19943   0. 
 C                    -2.0115    0.93555   0. 
 C                    -0.77511   0.2663    0. 
 C                    -0.7365   -1.13907   0. 
 C                    -1.93429  -1.87519   0. 
 C                    -3.17067  -1.20594   0. 
 Cl                   -4.67483  -2.13035   0. 
 Cl                   -4.76193   1.03987   0. 
 Cl                    0.81614  -1.97951   0. 
 Cl                   -2.05998   2.7004    0. 
 Cl                    0.72905   1.19071   0. 
 

 GradGradGradGradGradGradGradGradGradGradGradGradGradGradGradGradGradGrad
 Berny optimization.
 Initialization pass.
                           ----------------------------
                           !    Initial Parameters    !
                           ! (Angstroms and Degrees)  !
 --------------------------                            --------------------------
 ! Name  Definition              Value          Derivative Info.                !
 --------------------------------------------------------------------------------
 ! R1    R(1,2)                  1.4059         estimate D2E/DX2                !
 ! R2    R(1,6)                  1.4059         estimate D2E/DX2                !
 ! R3    R(1,8)                  1.7655         estimate D2E/DX2                !
 ! R4    R(2,3)                  1.4059         estimate D2E/DX2                !
 ! R5    R(2,10)                 1.7655         estimate D2E/DX2                !
 ! R6    R(3,4)                  1.4059         estimate D2E/DX2                !
 ! R7    R(3,11)                 1.7655         estimate D2E/DX2                !
 ! R8    R(4,5)                  1.4059         estimate D2E/DX2                !
 ! R9    R(4,9)                  1.7655         estimate D2E/DX2                !
 ! R10   R(5,6)                  1.4059         estimate D2E/DX2                !
 ! R11   R(6,7)                  1.7655         estimate D2E/DX2                !
 ! A1    A(2,1,6)              119.9999         estimate D2E/DX2                !
 ! A2    A(2,1,8)              119.9999         estimate D2E/DX2                !
 ! A3    A(6,1,8)              120.0001         estimate D2E/DX2                !
 ! A4    A(1,2,3)              120.0            estimate D2E/DX2                !
 ! A5    A(1,2,10)             120.0001         estimate D2E/DX2                !
 ! A6    A(3,2,10)             119.9999         estimate D2E/DX2                !
 ! A7    A(2,3,4)              120.0001         estimate D2E/DX2                !
 ! A8    A(2,3,11)             120.0            estimate D2E/DX2                !
 ! A9    A(4,3,11)             119.9999         estimate D2E/DX2                !
 ! A10   A(3,4,5)              119.9997         estimate D2E/DX2                !
 ! A11   A(3,4,9)              120.0003         estimate D2E/DX2                !
 ! A12   A(5,4,9)              120.0            estimate D2E/DX2                !
 ! A13   A(4,5,6)              120.0            estimate D2E/DX2                !
 ! A14   A(1,6,5)              120.0003         estimate D2E/DX2                !
 ! A15   A(1,6,7)              119.9999         estimate D2E/DX2                !
 ! A16   A(5,6,7)              119.9998         estimate D2E/DX2                !
 ! D1    D(6,1,2,3)              0.0            estimate D2E/DX2                !
 ! D2    D(6,1,2,10)           180.0            estimate D2E/DX2                !
 ! D3    D(8,1,2,3)            180.0            estimate D2E/DX2                !
 ! D4    D(8,1,2,10)             0.0            estimate D2E/DX2                !
 ! D5    D(2,1,6,5)              0.0            estimate D2E/DX2                !
 ! D6    D(2,1,6,7)            180.0            estimate D2E/DX2                !
 ! D7    D(8,1,6,5)            180.0            estimate D2E/DX2                !
 ! D8    D(8,1,6,7)              0.0            estimate D2E/DX2                !
 ! D9    D(1,2,3,4)              0.0            estimate D2E/DX2                !
 ! D10   D(1,2,3,11)           180.0            estimate D2E/DX2                !
 ! D11   D(10,2,3,4)           180.0            estimate D2E/DX2                !
 ! D12   D(10,2,3,11)            0.0            estimate D2E/DX2                !
 ! D13   D(2,3,4,5)              0.0            estimate D2E/DX2                !
 ! D14   D(2,3,4,9)            180.0            estimate D2E/DX2                !
 ! D15   D(11,3,4,5)           180.0            estimate D2E/DX2                !
 ! D16   D(11,3,4,9)             0.0            estimate D2E/DX2                !
 ! D17   D(3,4,5,6)              0.0            estimate D2E/DX2                !
 ! D18   D(9,4,5,6)            180.0            estimate D2E/DX2                !
 ! D19   D(4,5,6,1)              0.0            estimate D2E/DX2                !
 ! D20   D(4,5,6,7)            180.0            estimate D2E/DX2                !
 --------------------------------------------------------------------------------
 Trust Radius=3.00D-01 FncErr=1.00D-07 GrdErr=1.00D-07 EigMax=2.50D+02 EigMin=1.00D-04
 Number of steps in this run=     57 maximum allowed number of steps=    100.
 GradGradGradGradGradGradGradGradGradGradGradGradGradGradGradGradGradGrad

                          Input orientation:                          
 ---------------------------------------------------------------------
 Center     Atomic      Atomic             Coordinates (Angstroms)
 Number     Number       Type             X           Y           Z
 ---------------------------------------------------------------------
      1          6           0       -3.209280    0.199430    0.000000
      2          6           0       -2.011500    0.935550    0.000000
      3          6           0       -0.775110    0.266300    0.000000
      4          6           0       -0.736500   -1.139070    0.000000
      5          6           0       -1.934290   -1.875190    0.000000
      6          6           0       -3.170670   -1.205940    0.000000
      7         17           0       -4.674830   -2.130350    0.000000
      8         17           0       -4.761930    1.039870    0.000000
      9         17           0        0.816140   -1.979510    0.000000
     10         17           0       -2.059980    2.700400    0.000000
     11         17           0        0.729050    1.190710    0.000000
 ---------------------------------------------------------------------
                    Distance matrix (angstroms):
                    1          2          3          4          5
     1  C    0.000000
     2  C    1.405898   0.000000
     3  C    2.435088   1.405900   0.000000
     4  C    2.811801   2.435092   1.405900   0.000000
     5  C    2.435087   2.811800   2.435093   1.405907   0.000000
     6  C    1.405900   2.435088   2.811796   2.435088   1.405892
     7  Cl   2.752401   4.061166   4.577308   4.061167   2.752393
     8  Cl   1.765520   2.752408   4.061175   4.577321   4.061173
     9  Cl   4.577312   4.061173   2.752406   1.765511   2.752408
    10  Cl   2.752406   1.765516   2.752405   4.061173   4.577316
    11  Cl   4.061167   2.752403   1.765512   2.752401   4.061173
                    6          7          8          9         10
     6  C    0.000000
     7  Cl   1.765512   0.000000
     8  Cl   2.752412   3.171416   0.000000
     9  Cl   4.061165   5.493041   6.342832   0.000000
    10  Cl   4.061173   5.493049   3.171418   5.493052   0.000000
    11  Cl   4.577308   6.342819   5.493051   3.171416   3.171412
                   11
    11  Cl   0.000000
 Stoichiometry    C6Cl5(2)
 Framework group  CS[SG(C6Cl5)]
 Deg. of freedom    19
 Full point group                 CS      NOp   2
 Largest Abelian subgroup         CS      NOp   2
 Largest concise Abelian subgroup C1      NOp   1
                         Standard orientation:                         
 ---------------------------------------------------------------------
 Center     Atomic      Atomic             Coordinates (Angstroms)
 Number     Number       Type             X           Y           Z
 ---------------------------------------------------------------------
      1          6           0       -0.385875   -1.183113   -0.000000
      2          6           0        0.831669   -0.480165   -0.000000
      3          6           0        0.831669    0.925735    0.000000
      4          6           0       -0.385875    1.628687    0.000000
      5          6           0       -1.603424    0.925731    0.000000
      6          6           0       -1.603419   -0.480161   -0.000000
      7         17           0       -3.132397   -1.362917   -0.000000
      8         17           0       -0.385874   -2.948633   -0.000000
      9         17           0       -0.385880    3.394199    0.000000
     10         17           0        2.360652   -1.362921   -0.000000
     11         17           0        2.360647    1.808491    0.000000
 ---------------------------------------------------------------------
 Rotational constants (GHZ):           0.6973090           0.4487110           0.2730234
 Standard basis: VSTO-6G (5D, 7F)
 There are    33 symmetry adapted cartesian basis functions of A'  symmetry.
 There are    11 symmetry adapted cartesian basis functions of A"  symmetry.
 There are    33 symmetry adapted basis functions of A'  symmetry.
 There are    11 symmetry adapted basis functions of A"  symmetry.
    44 basis functions,   264 primitive gaussians,    44 cartesian basis functions
    30 alpha electrons       29 beta electrons
       nuclear repulsion energy       349.2651906274 Hartrees.
 Integral buffers will be    131072 words long.
 Regular integral format.
 Two-electron integral symmetry is turned off.
 Do NDO integrals.
 One-electron integrals computed using PRISM.
 NBasis=    44 RedAO= T EigKep=  1.00D+00  NBF=    33    11
 NBsUse=    44 1.00D-06 EigRej= -1.00D+00 NBFU=    33    11
 Simple Huckel Guess.
 Initial guess orbital symmetries:
 Alpha Orbitals:
       Occupied  (A') (A') (A') (A') (A') (A') (A') (A') (A') (A')
                 (A') (A") (A') (A') (A") (A') (A') (A") (A') (A")
                 (A") (A') (A') (A') (A") (A') (A') (A") (A") (A')
       Virtual   (A") (A") (A") (A') (A') (A') (A') (A') (A') (A')
                 (A') (A') (A') (A')
 Beta  Orbitals:
       Occupied  (A') (A') (A') (A') (A') (A') (A') (A') (A') (A')
                 (A') (A") (A') (A') (A") (A') (A') (A") (A') (A")
                 (A") (A') (A') (A') (A") (A') (A') (A") (A")
       Virtual   (A') (A") (A") (A") (A') (A') (A') (A') (A') (A')
                 (A') (A') (A') (A') (A')
 The electronic state of the initial guess is 2-A'.
 Initial guess <Sx>= 0.0000 <Sy>= 0.0000 <Sz>= 0.5000 <S**2>= 0.7500 S= 0.5000
 Keep J ints in memory in canonical form, NReq=865421.
 Overlap will be assumed to be unity.
 Requested convergence on RMS density matrix=1.00D-08 within  32 cycles.
 Requested convergence on MAX density matrix=1.00D-06.
 Requested convergence on             energy=1.00D-06.
 No special actions if energy rises.
 Fock symm off for IB=2 I1=    1 I=   34 J=   28 Cut=1.00D-07 Err=4.16D-03
 Fock matrix is not symmetric: symmetry in diagonalization turned off.
 Rare condition: small coef for last iteration:  0.000D+00
 Rare condition: small coef for last iteration:  0.000D+00
 Rare condition: small coef for last iteration:  0.000D+00
 Rare condition: small coef for last iteration:  0.000D+00
 Rare condition: small coef for last iteration:  0.000D+00
 Rare condition: small coef for last iteration:  0.000D+00
 Rare condition: small coef for last iteration:  0.000D+00
 Rare condition: small coef for last iteration:  0.000D+00
 Rare condition: small coef for last iteration:  0.000D+00
 Rare condition: small coef for last iteration:  0.000D+00
 Rare condition: small coef for last iteration:  0.000D+00
 Rare condition: small coef for last iteration:  0.000D+00
 Rare condition: small coef for last iteration:  0.000D+00
 Rare condition: small coef for last iteration:  0.000D+00
 >>>>>>>>>> Convergence criterion not met.
 SCF Done:  E(UAM1) =  0.108109305474     A.U. after   33 cycles
            NFock= 32  Conv=0.25D-03     -V/T= 1.0007
 <Sx>= 0.0000 <Sy>= 0.0000 <Sz>= 0.5000 <S**2>= 0.7981 S= 0.5238
 <L.S>=  0.00000000000    
 Annihilation of the first spin contaminant:
 S**2 before annihilation     0.7981,   after     0.7513
 Keep J ints in memory in canonical form, NReq=865821.
 LinEq1:  Iter=  0 NonCon=     1 RMS=4.94D-04 Max=7.21D-03 NDo=     1
 AX will form     1 AO Fock derivatives at one time.
 LinEq1:  Iter=  1 NonCon=     1 RMS=3.86D-05 Max=3.94D-04 NDo=     1
 LinEq1:  Iter=  2 NonCon=     1 RMS=8.74D-06 Max=1.11D-04 NDo=     1
 LinEq1:  Iter=  3 NonCon=     1 RMS=2.42D-06 Max=2.81D-05 NDo=     1
 LinEq1:  Iter=  4 NonCon=     1 RMS=4.11D-07 Max=4.26D-06 NDo=     1
 LinEq1:  Iter=  5 NonCon=     1 RMS=8.73D-08 Max=7.96D-07 NDo=     1
 LinEq1:  Iter=  6 NonCon=     1 RMS=1.91D-08 Max=1.31D-07 NDo=     1
 LinEq1:  Iter=  7 NonCon=     1 RMS=3.48D-09 Max=2.57D-08 NDo=     1
 LinEq1:  Iter=  8 NonCon=     0 RMS=5.96D-10 Max=4.29D-09 NDo=     1
 Linear equations converged to 2.924D-09 2.924D-08 after     8 iterations.
 Incorrect curvature in search direction -- initial direction reversed.
 LinEq1:  Iter=  0 NonCon=     1 RMS=6.01D-04 Max=1.08D-02 NDo=     1
 LinEq1:  Iter=  1 NonCon=     1 RMS=9.22D-05 Max=8.70D-04 NDo=     1
 LinEq1:  Iter=  2 NonCon=     1 RMS=2.52D-05 Max=3.87D-04 NDo=     1
 LinEq1:  Iter=  3 NonCon=     1 RMS=4.28D-06 Max=4.29D-05 NDo=     1
 LinEq1:  Iter=  4 NonCon=     1 RMS=7.34D-07 Max=1.22D-05 NDo=     1
 LinEq1:  Iter=  5 NonCon=     1 RMS=1.79D-07 Max=3.27D-06 NDo=     1
 LinEq1:  Iter=  6 NonCon=     1 RMS=3.69D-08 Max=4.19D-07 NDo=     1
 LinEq1:  Iter=  7 NonCon=     1 RMS=5.24D-09 Max=3.73D-08 NDo=     1
 LinEq1:  Iter=  8 NonCon=     0 RMS=8.99D-10 Max=6.11D-09 NDo=     1
 Linear equations converged to 2.924D-09 2.924D-08 after     8 iterations.
     Accept linear search using points  1 and  2.
 LinEq1:  Iter=  0 NonCon=     1 RMS=1.08D-04 Max=1.62D-03 NDo=     1
 LinEq1:  Iter=  1 NonCon=     1 RMS=2.39D-05 Max=2.39D-04 NDo=     1
 LinEq1:  Iter=  2 NonCon=     1 RMS=5.35D-06 Max=5.08D-05 NDo=     1
 LinEq1:  Iter=  3 NonCon=     1 RMS=7.25D-07 Max=1.13D-05 NDo=     1
 LinEq1:  Iter=  4 NonCon=     1 RMS=1.52D-07 Max=2.16D-06 NDo=     1
 LinEq1:  Iter=  5 NonCon=     1 RMS=2.34D-08 Max=1.89D-07 NDo=     1
 LinEq1:  Iter=  6 NonCon=     1 RMS=5.90D-09 Max=7.78D-08 NDo=     1
 LinEq1:  Iter=  7 NonCon=     0 RMS=1.37D-09 Max=1.75D-08 NDo=     1
 Linear equations converged to 2.924D-09 2.924D-08 after     7 iterations.
     Accept linear search using points  1 and  2.
     Minimum is close to point  2 DX= -2.45D-04 DF= -5.67D-13 DXR=  2.45D-04 DFR=  5.99D-08 which will be used.
 LinEq1:  Iter=  0 NonCon=     1 RMS=2.24D-07 Max=3.58D-06 NDo=     1
 LinEq1:  Iter=  1 NonCon=     1 RMS=5.19D-08 Max=8.55D-07 NDo=     1
 LinEq1:  Iter=  2 NonCon=     1 RMS=1.51D-08 Max=2.04D-07 NDo=     1
 LinEq1:  Iter=  3 NonCon=     1 RMS=3.14D-09 Max=4.86D-08 NDo=     1
 LinEq1:  Iter=  4 NonCon=     1 RMS=4.84D-10 Max=3.51D-09 NDo=     1
 LinEq1:  Iter=  5 NonCon=     1 RMS=8.48D-11 Max=7.45D-10 NDo=     1
 LinEq1:  Iter=  6 NonCon=     0 RMS=1.12D-11 Max=8.12D-11 NDo=     1
 Linear equations converged to 3.293D-11 3.293D-10 after     6 iterations.
 SCF Done:  E(UAM1) =  0.993063001732E-01 a.u. after    5 cycles
            Convg  =    0.2864D-07                    37 Fock formations.
              S**2 =  1.3757                  -V/T =  1.0006
 <Sx>= 0.0000 <Sy>= 0.0000 <Sz>= 0.5000 <S**2>= 1.3757 S= 0.7750
 <L.S>=  0.00000000000    
 Annihilation of the first spin contaminant:
 S**2 before annihilation     1.3757,   after     1.1028

 **********************************************************************

            Population analysis using the SCF Density.

 **********************************************************************

 Orbital symmetries:
 Alpha Orbitals:
       Occupied  (A') (A') (A') (A') (A') (A') (A') (A') (A') (A')
                 (A') (A') (A') (A') (A") (A') (A') (A") (A") (A')
                 (A") (A") (A') (A') (A') (A') (A") (A') (A") (A")
       Virtual   (A") (A") (A') (A') (A') (A') (A') (A") (A') (A')
                 (A') (A') (A') (A')
 Beta  Orbitals:
       Occupied  (A') (A') (A') (A') (A') (A') (A') (A') (A') (A')
                 (A') (A') (A') (A') (A") (A') (A') (A") (A") (A")
                 (A") (A') (A') (A') (A') (A') (A") (A") (A")
       Virtual   (A') (A") (A") (A') (A') (A') (A') (A') (A") (A')
                 (A') (A') (A') (A') (A')
 The electronic state is 2-A'.
 Alpha  occ. eigenvalues --   -1.48502  -1.40983  -1.40204  -1.39312  -1.38988
 Alpha  occ. eigenvalues --   -1.37221  -1.16915  -1.16543  -0.89875  -0.89501
 Alpha  occ. eigenvalues --   -0.70282  -0.67161  -0.64928  -0.60515  -0.59477
 Alpha  occ. eigenvalues --   -0.57377  -0.53303  -0.52482  -0.50659  -0.48962
 Alpha  occ. eigenvalues --   -0.48027  -0.47657  -0.46736  -0.46107  -0.45803
 Alpha  occ. eigenvalues --   -0.44593  -0.44371  -0.44208  -0.39770  -0.38431
 Alpha virt. eigenvalues --   -0.03408  -0.03178  -0.00985  -0.00047   0.00369
 Alpha virt. eigenvalues --    0.02344   0.02764   0.04242   0.10166   0.10310
 Alpha virt. eigenvalues --    0.11907   0.12133   0.13483   0.13849
  Beta  occ. eigenvalues --   -1.48010  -1.40903  -1.40207  -1.39260  -1.38923
  Beta  occ. eigenvalues --   -1.36903  -1.16693  -1.14923  -0.89703  -0.87229
  Beta  occ. eigenvalues --   -0.70151  -0.66668  -0.63686  -0.60373  -0.59320
  Beta  occ. eigenvalues --   -0.56574  -0.52952  -0.52493  -0.51332  -0.48057
  Beta  occ. eigenvalues --   -0.47569  -0.47442  -0.46687  -0.45904  -0.45729
  Beta  occ. eigenvalues --   -0.44561  -0.43901  -0.38604  -0.38593
  Beta virt. eigenvalues --   -0.04959  -0.03477  -0.01600  -0.01337   0.00355
  Beta virt. eigenvalues --    0.00573   0.02305   0.02846   0.05369   0.10590
  Beta virt. eigenvalues --    0.10656   0.12669   0.12771   0.13851   0.15660
          Condensed to atoms (all electrons):
               1          2          3          4          5          6
     1  C    4.031238   0.000000   0.000000   0.000000   0.000000   0.000000
     2  C    0.000000   4.038167   0.000000   0.000000   0.000000   0.000000
     3  C    0.000000   0.000000   4.031241   0.000000   0.000000   0.000000
     4  C    0.000000   0.000000   0.000000   4.043039   0.000000   0.000000
     5  C    0.000000   0.000000   0.000000   0.000000   3.965427   0.000000
     6  C    0.000000   0.000000   0.000000   0.000000   0.000000   4.043040
     7  Cl   0.000000   0.000000   0.000000   0.000000   0.000000   0.000000
     8  Cl   0.000000   0.000000   0.000000   0.000000   0.000000   0.000000
     9  Cl   0.000000   0.000000   0.000000   0.000000   0.000000   0.000000
    10  Cl   0.000000   0.000000   0.000000   0.000000   0.000000   0.000000
    11  Cl   0.000000   0.000000   0.000000   0.000000   0.000000   0.000000
               7          8          9         10         11
     1  C    0.000000   0.000000   0.000000   0.000000   0.000000
     2  C    0.000000   0.000000   0.000000   0.000000   0.000000
     3  C    0.000000   0.000000   0.000000   0.000000   0.000000
     4  C    0.000000   0.000000   0.000000   0.000000   0.000000
     5  C    0.000000   0.000000   0.000000   0.000000   0.000000
     6  C    0.000000   0.000000   0.000000   0.000000   0.000000
     7  Cl   6.972455   0.000000   0.000000   0.000000   0.000000
     8  Cl   0.000000   6.967389   0.000000   0.000000   0.000000
     9  Cl   0.000000   0.000000   6.972453   0.000000   0.000000
    10  Cl   0.000000   0.000000   0.000000   6.968165   0.000000
    11  Cl   0.000000   0.000000   0.000000   0.000000   6.967386
          Atomic-Atomic Spin Densities.
               1          2          3          4          5          6
     1  C    0.515195   0.000000   0.000000   0.000000   0.000000   0.000000
     2  C    0.000000  -0.496305   0.000000   0.000000   0.000000   0.000000
     3  C    0.000000   0.000000   0.515191   0.000000   0.000000   0.000000
     4  C    0.000000   0.000000   0.000000  -0.516478   0.000000   0.000000
     5  C    0.000000   0.000000   0.000000   0.000000   1.462279   0.000000
     6  C    0.000000   0.000000   0.000000   0.000000   0.000000  -0.516471
     7  Cl   0.000000   0.000000   0.000000   0.000000   0.000000   0.000000
     8  Cl   0.000000   0.000000   0.000000   0.000000   0.000000   0.000000
     9  Cl   0.000000   0.000000   0.000000   0.000000   0.000000   0.000000
    10  Cl   0.000000   0.000000   0.000000   0.000000   0.000000   0.000000
    11  Cl   0.000000   0.000000   0.000000   0.000000   0.000000   0.000000
               7          8          9         10         11
     1  C    0.000000   0.000000   0.000000   0.000000   0.000000
     2  C    0.000000   0.000000   0.000000   0.000000   0.000000
     3  C    0.000000   0.000000   0.000000   0.000000   0.000000
     4  C    0.000000   0.000000   0.000000   0.000000   0.000000
     5  C    0.000000   0.000000   0.000000   0.000000   0.000000
     6  C    0.000000   0.000000   0.000000   0.000000   0.000000
     7  Cl   0.009291   0.000000   0.000000   0.000000   0.000000
     8  Cl   0.000000   0.005626   0.000000   0.000000   0.000000
     9  Cl   0.000000   0.000000   0.009290   0.000000   0.000000
    10  Cl   0.000000   0.000000   0.000000   0.006755   0.000000
    11  Cl   0.000000   0.000000   0.000000   0.000000   0.005627
 Mulliken charges and spin densities:
               1          2
     1  C   -0.031238   0.515195
     2  C   -0.038167  -0.496305
     3  C   -0.031241   0.515191
     4  C   -0.043039  -0.516478
     5  C    0.034573   1.462279
     6  C   -0.043040  -0.516471
     7  Cl   0.027545   0.009291
     8  Cl   0.032611   0.005626
     9  Cl   0.027547   0.009290
    10  Cl   0.031835   0.006755
    11  Cl   0.032614   0.005627
 Sum of Mulliken charges =  -0.00000   1.00000
 Mulliken charges and spin densities with hydrogens summed into heavy atoms:
               1          2
     1  C   -0.031238   0.515195
     2  C   -0.038167  -0.496305
     3  C   -0.031241   0.515191
     4  C   -0.043039  -0.516478
     5  C    0.034573   1.462279
     6  C   -0.043040  -0.516471
     7  Cl   0.027545   0.009291
     8  Cl   0.032611   0.005626
     9  Cl   0.027547   0.009290
    10  Cl   0.031835   0.006755
    11  Cl   0.032614   0.005627
 Charge=              0.0000 electrons
 Dipole moment (field-independent basis, Debye):
    X=              0.1402    Y=             -0.0809    Z=              0.0000  Tot=              0.1619
 N-N= 3.492651906274D+02 E-N=-4.977808601182D+02  KE=-1.553284975164D+02
 Symmetry A'   KE=-1.181614553278D+02
 Symmetry A"   KE=-3.716704218859D+01
 Symmetry A'   SP= 1.000000000000D+00
 Symmetry A"   SP=-5.551115123126D-16
 Calling FoFJK, ICntrl=      2127 FMM=F ISym2X=1 I1Cent= 0 IOpClX= 1 NMat=1 NMatS=1 NMatT=0.
 ***** Axes restored to original set *****
 -------------------------------------------------------------------
 Center     Atomic                   Forces (Hartrees/Bohr)
 Number     Number              X              Y              Z
 -------------------------------------------------------------------
      1        6          -0.030330592    0.017187031    0.000000000
      2        6          -0.000987142    0.035949648   -0.000000000
      3        6           0.029339323    0.018822242   -0.000000000
      4        6           0.025273816   -0.042891282   -0.000000000
      5        6          -0.001666397    0.061063480    0.000000000
      6        6          -0.022892061   -0.044210831    0.000000000
      7       17           0.037206078    0.020031391   -0.000000000
      8       17           0.036689498   -0.020110239   -0.000000000
      9       17          -0.038251139    0.017959238   -0.000000000
     10       17           0.001145544   -0.041708722   -0.000000000
     11       17          -0.035526930   -0.022091955    0.000000000
 -------------------------------------------------------------------
 Cartesian Forces:  Max     0.061063480 RMS     0.025361198

 GradGradGradGradGradGradGradGradGradGradGradGradGradGradGradGradGradGrad
 Berny optimization.
 FormGI is forming the generalized inverse of G from B-inverse, IUseBI=4.
 Internal  Forces:  Max     0.042188292 RMS     0.016258112
 Search for a local minimum.
 Step number   1 out of a maximum of   57
 All quantities printed in internal units (Hartrees-Bohrs-Radians)
 Mixed Optimization -- RFO/linear search
 Second derivative matrix not updated -- first step.
 ITU=  0
     Eigenvalues ---    0.02011   0.02011   0.02011   0.02011   0.02011
     Eigenvalues ---    0.02011   0.02011   0.02011   0.25000   0.25000
     Eigenvalues ---    0.25000   0.25000   0.25000   0.25000   0.25000
     Eigenvalues ---    0.25000   0.29033   0.29033   0.29033   0.29033
     Eigenvalues ---    0.29033   0.41211   0.41599   0.44656   0.44657
     Eigenvalues ---    0.44657   0.44657
 RFO step:  Lambda=-3.63558335D-02 EMin= 2.01067220D-02
 Linear search not attempted -- first point.
 Maximum step size (   0.300) exceeded in Quadratic search.
    -- Step size scaled by   0.911
 Iteration  1 RMS(Cart)=  0.04878196 RMS(Int)=  0.00080768
 Iteration  2 RMS(Cart)=  0.00111023 RMS(Int)=  0.00022980
 Iteration  3 RMS(Cart)=  0.00000041 RMS(Int)=  0.00022980
 ClnCor:  largest displacement from symmetrization is 1.71D-08 for atom    10.
 Variable       Old X    -DE/DX   Delta X   Delta X   Delta X     New X
                                 (Linear)    (Quad)   (Total)
    R1        2.65676  -0.00131   0.00000  -0.00046  -0.00078   2.65598
    R2        2.65677  -0.00598   0.00000  -0.01128  -0.01128   2.64549
    R3        3.33635  -0.04184   0.00000  -0.11668  -0.11668   3.21967
    R4        2.65677  -0.00131   0.00000  -0.00046  -0.00078   2.65599
    R5        3.33634  -0.04172   0.00000  -0.11636  -0.11636   3.21999
    R6        2.65677  -0.00598   0.00000  -0.01128  -0.01128   2.64549
    R7        3.33633  -0.04184   0.00000  -0.11666  -0.11666   3.21967
    R8        2.65678  -0.03267   0.00000  -0.06363  -0.06331   2.59347
    R9        3.33633  -0.04219   0.00000  -0.11765  -0.11765   3.21869
   R10        2.65675  -0.03266   0.00000  -0.06360  -0.06328   2.59347
   R11        3.33633  -0.04219   0.00000  -0.11764  -0.11764   3.21869
    A1        2.09439  -0.00343   0.00000  -0.00695  -0.00731   2.08708
    A2        2.09439   0.00208   0.00000   0.00464   0.00483   2.09922
    A3        2.09440   0.00135   0.00000   0.00231   0.00249   2.09688
    A4        2.09439   0.00088   0.00000   0.01022   0.00953   2.10393
    A5        2.09440  -0.00044   0.00000  -0.00511  -0.00477   2.08963
    A6        2.09439  -0.00044   0.00000  -0.00511  -0.00476   2.08963
    A7        2.09440  -0.00343   0.00000  -0.00695  -0.00731   2.08708
    A8        2.09440   0.00208   0.00000   0.00464   0.00482   2.09922
    A9        2.09439   0.00135   0.00000   0.00231   0.00249   2.09688
   A10        2.09439  -0.01189   0.00000  -0.04076  -0.04048   2.05391
   A11        2.09440   0.00998   0.00000   0.03320   0.03306   2.12746
   A12        2.09440   0.00192   0.00000   0.00756   0.00742   2.10182
   A13        2.09439   0.02978   0.00000   0.08520   0.08606   2.18045
   A14        2.09440  -0.01190   0.00000  -0.04077  -0.04049   2.05391
   A15        2.09439   0.00998   0.00000   0.03320   0.03306   2.12745
   A16        2.09439   0.00192   0.00000   0.00757   0.00743   2.10182
    D1       -0.00000   0.00000   0.00000   0.00000   0.00000   0.00000
    D2        3.14159   0.00000   0.00000   0.00000   0.00000   3.14159
    D3        3.14159   0.00000   0.00000   0.00000   0.00000   3.14159
    D4        0.00000   0.00000   0.00000   0.00000   0.00000   0.00000
    D5        0.00000  -0.00000   0.00000  -0.00000  -0.00000   0.00000
    D6        3.14159  -0.00000   0.00000  -0.00000   0.00000   3.14159
    D7        3.14159  -0.00000   0.00000  -0.00000   0.00000   3.14159
    D8       -0.00000  -0.00000   0.00000  -0.00000   0.00000   0.00000
    D9       -0.00000   0.00000   0.00000   0.00000   0.00000   0.00000
   D10        3.14159   0.00000   0.00000   0.00000   0.00000   3.14159
   D11        3.14159   0.00000   0.00000   0.00000   0.00000   3.14159
   D12        0.00000   0.00000   0.00000   0.00000  -0.00000   0.00000
   D13        0.00000  -0.00000   0.00000  -0.00000  -0.00000   0.00000
   D14        3.14159  -0.00000   0.00000  -0.00000   0.00000   3.14159
   D15        3.14159  -0.00000   0.00000  -0.00000   0.00000   3.14159
   D16       -0.00000  -0.00000   0.00000  -0.00000   0.00000   0.00000
   D17       -0.00000   0.00000   0.00000   0.00000   0.00000   0.00000
   D18        3.14159   0.00000   0.00000   0.00000   0.00000   3.14159
   D19        0.00000  -0.00000   0.00000   0.00000   0.00000   0.00000
   D20        3.14159  -0.00000   0.00000  -0.00000   0.00000   3.14159
         Item               Value     Threshold  Converged?
 Maximum Force            0.042188     0.000450     NO 
 RMS     Force            0.016258     0.000300     NO 
 Maximum Displacement     0.162384     0.001800     NO 
 RMS     Displacement     0.049178     0.001200     NO 
 Predicted change in Energy=-1.967700D-02
 GradGradGradGradGradGradGradGradGradGradGradGradGradGradGradGradGradGrad

                          Input orientation:                          
 ---------------------------------------------------------------------
 Center     Atomic      Atomic             Coordinates (Angstroms)
 Number     Number       Type             X           Y           Z
 ---------------------------------------------------------------------
      1          6           0       -3.212454    0.206513    0.000000
      2          6           0       -2.011532    0.936700    0.000000
      3          6           0       -0.772331    0.273544   -0.000000
      4          6           0       -0.737451   -1.125953   -0.000000
      5          6           0       -1.936526   -1.793574   -0.000000
      6          6           0       -3.170444   -1.192791    0.000000
      7         17           0       -4.588900   -2.135696    0.000000
      8         17           0       -4.710854    1.017473    0.000000
      9         17           0        0.730628   -1.989563   -0.000000
     10         17           0       -2.058321    2.640001    0.000000
     11         17           0        0.679285    1.165544   -0.000000
 ---------------------------------------------------------------------
                    Distance matrix (angstroms):
                    1          2          3          4          5
     1  C    0.000000
     2  C    1.405485   0.000000
     3  C    2.441044   1.405487   0.000000
     4  C    2.810891   2.424422   1.399932   0.000000
     5  C    2.372412   2.731304   2.372410   1.372406   0.000000
     6  C    1.399934   2.424420   2.810887   2.433911   1.372405
     7  Cl   2.716715   4.010292   4.513384   3.981613   2.674347
     8  Cl   1.703778   2.700530   4.008166   4.514666   3.949541
     9  Cl   4.513385   4.010294   2.716715   1.703255   2.674346
    10  Cl   2.693304   1.703943   2.693304   3.990878   4.435247
    11  Cl   4.008164   2.700531   1.703776   2.694087   3.949538
                    6          7          8          9         10
     6  C    0.000000
     7  Cl   1.703257   0.000000
     8  Cl   2.694091   3.155526   0.000000
     9  Cl   3.981609   5.321535   6.217073   0.000000
    10  Cl   3.990878   5.404730   3.109425   5.404729   0.000000
    11  Cl   4.514661   6.217070   5.392173   3.155525   3.109423
                   11
    11  Cl   0.000000
 Stoichiometry    C6Cl5(2)
 Framework group  CS[SG(C6Cl5)]
 Deg. of freedom    19
 Full point group                 CS      NOp   2
 Largest Abelian subgroup         CS      NOp   2
 Largest concise Abelian subgroup C1      NOp   1
                         Standard orientation:                         
 ---------------------------------------------------------------------
 Center     Atomic      Atomic             Coordinates (Angstroms)
 Number     Number       Type             X           Y           Z
 ---------------------------------------------------------------------
      1          6           0       -1.220522   -0.275766    0.000000
      2          6           0       -0.000000   -0.972699   -0.000000
      3          6           0        1.220522   -0.275762   -0.000000
      4          6           0        1.216956    1.124165   -0.000000
      5          6           0       -0.000001    1.758605    0.000000
      6          6           0       -1.216955    1.124163    0.000000
      7         17           0       -2.660770    2.027759    0.000000
      8         17           0       -2.696086   -1.127570    0.000000
      9         17           0        2.660765    2.027765   -0.000000
     10         17           0        0.000004   -2.676642   -0.000000
     11         17           0        2.696087   -1.127562   -0.000000
 ---------------------------------------------------------------------
 Rotational constants (GHZ):           0.7141756           0.4702069           0.2835319
 Standard basis: VSTO-6G (5D, 7F)
 There are    33 symmetry adapted cartesian basis functions of A'  symmetry.
 There are    11 symmetry adapted cartesian basis functions of A"  symmetry.
 There are    33 symmetry adapted basis functions of A'  symmetry.
 There are    11 symmetry adapted basis functions of A"  symmetry.
    44 basis functions,   264 primitive gaussians,    44 cartesian basis functions
    30 alpha electrons       29 beta electrons
       nuclear repulsion energy       353.4827551556 Hartrees.
 Integral buffers will be    131072 words long.
 Regular integral format.
 Two-electron integral symmetry is turned off.
 Do NDO integrals.
 One-electron integrals computed using PRISM.
 NBasis=    44 RedAO= T EigKep=  1.00D+00  NBF=    33    11
 NBsUse=    44 1.00D-06 EigRej= -1.00D+00 NBFU=    33    11
 Initial guess from the checkpoint file:  "geometry_chks/123_56ClBzNeutralRadical.chk"
 B after Tr=     0.000000   -0.000000   -0.000000
         Rot=    0.866026    0.000000   -0.000000    0.500000 Ang=  60.00 deg.
 Initial guess orbital symmetries:
 Alpha Orbitals:
       Occupied  (A') (A') (A') (A') (A') (A') (A') (A') (A') (A')
                 (A') (A') (A') (A') (A") (A') (A') (A") (A") (A')
                 (A") (A") (A') (A') (A') (A') (A") (A') (A") (A")
       Virtual   (A") (A") (A') (A') (A') (A') (A') (A") (A') (A')
                 (A') (A') (A') (A')
 Beta  Orbitals:
       Occupied  (A') (A') (A') (A') (A') (A') (A') (A') (A') (A')
                 (A') (A') (A') (A') (A") (A') (A') (A") (A") (A")
                 (A") (A') (A') (A') (A') (A') (A") (A") (A")
       Virtual   (A') (A") (A") (A') (A') (A') (A') (A') (A") (A')
                 (A') (A') (A') (A') (A')
 Initial guess <Sx>= 0.0000 <Sy>= 0.0000 <Sz>= 0.5000 <S**2>= 1.3757 S= 0.7750
 Keep J ints in memory in canonical form, NReq=865421.
 Overlap will be assumed to be unity.
 Requested convergence on RMS density matrix=1.00D-08 within  32 cycles.
 Requested convergence on MAX density matrix=1.00D-06.
 Requested convergence on             energy=1.00D-06.
 No special actions if energy rises.
 Fock symm off for IB=2 I1=    1 I=   34 J=   20 Cut=1.00D-07 Err=3.50D-03
 Fock matrix is not symmetric: symmetry in diagonalization turned off.
 SCF Done:  E(UAM1) =  0.787722559816E-01 A.U. after   16 cycles
            NFock= 15  Conv=0.54D-08     -V/T= 1.0005
 <Sx>= 0.0000 <Sy>= 0.0000 <Sz>= 0.5000 <S**2>= 1.3294 S= 0.7568
 <L.S>=  0.00000000000    
 Annihilation of the first spin contaminant:
 S**2 before annihilation     1.3294,   after     1.0493
 QCSCF skips out because SCF is already converged.
 Calling FoFJK, ICntrl=      2127 FMM=F ISym2X=1 I1Cent= 0 IOpClX= 1 NMat=1 NMatS=1 NMatT=0.
 ***** Axes restored to original set *****
 -------------------------------------------------------------------
 Center     Atomic                   Forces (Hartrees/Bohr)
 Number     Number              X              Y              Z
 -------------------------------------------------------------------
      1        6          -0.016233503    0.016875897   -0.000000000
      2        6          -0.000471861    0.017225233   -0.000000000
      3        6           0.015281355    0.017743009   -0.000000000
      4        6           0.024229089   -0.026912198    0.000000000
      5        6          -0.000321736    0.011737896    0.000000000
      6        6          -0.022717806   -0.028201001   -0.000000000
      7       17           0.009075596    0.005330553    0.000000000
      8       17           0.008176205   -0.004915416    0.000000000
      9       17          -0.009353393    0.004823786    0.000000000
     10       17           0.000229357   -0.008351622    0.000000000
     11       17          -0.007893302   -0.005356137    0.000000000
 -------------------------------------------------------------------
 Cartesian Forces:  Max     0.028201001 RMS     0.011841788

 GradGradGradGradGradGradGradGradGradGradGradGradGradGradGradGradGradGrad
 Berny optimization.
 Using GEDIIS/GDIIS optimizer.
 FormGI is forming the generalized inverse of G from B-inverse, IUseBI=4.
 Internal  Forces:  Max     0.016605883 RMS     0.006243238
 Search for a local minimum.
 Step number   2 out of a maximum of   57
 All quantities printed in internal units (Hartrees-Bohrs-Radians)
 Mixed Optimization -- RFO/linear search
 Update second derivatives using D2CorX and points    1    2
 DE= -2.05D-02 DEPred=-1.97D-02 R= 1.04D+00
 TightC=F SS=  1.41D+00  RLast= 3.00D-01 DXNew= 5.0454D-01 8.9996D-01
 Trust test= 1.04D+00 RLast= 3.00D-01 DXMaxT set to 5.05D-01
 ITU=  1  0
 Use linear search instead of GDIIS.
     Eigenvalues ---    0.02011   0.02011   0.02011   0.02011   0.02011
     Eigenvalues ---    0.02011   0.02011   0.02011   0.19637   0.25000
     Eigenvalues ---    0.25000   0.25000   0.25000   0.25000   0.25000
     Eigenvalues ---    0.25015   0.27651   0.29033   0.29033   0.29033
     Eigenvalues ---    0.29073   0.40792   0.41294   0.44491   0.44657
     Eigenvalues ---    0.44657   0.59406
 RFO step:  Lambda=-5.22402462D-03 EMin= 2.01067223D-02
 Quartic linear search produced a step of  0.22306.
 Iteration  1 RMS(Cart)=  0.02149670 RMS(Int)=  0.00042099
 Iteration  2 RMS(Cart)=  0.00047552 RMS(Int)=  0.00016014
 Iteration  3 RMS(Cart)=  0.00000014 RMS(Int)=  0.00016014
 ClnCor:  largest displacement from symmetrization is 5.14D-10 for atom    10.
 Variable       Old X    -DE/DX   Delta X   Delta X   Delta X     New X
                                 (Linear)    (Quad)   (Total)
    R1        2.65598   0.01281  -0.00017   0.03524   0.03485   2.69083
    R2        2.64549   0.01660  -0.00252   0.04626   0.04374   2.68924
    R3        3.21967  -0.00953  -0.02603  -0.02186  -0.04788   3.17179
    R4        2.65599   0.01281  -0.00017   0.03524   0.03485   2.69083
    R5        3.21999  -0.00835  -0.02595  -0.01706  -0.04301   3.17698
    R6        2.64549   0.01661  -0.00252   0.04626   0.04375   2.68924
    R7        3.21967  -0.00953  -0.02602  -0.02185  -0.04788   3.17179
    R8        2.59347   0.00595  -0.01412   0.02358   0.00969   2.60316
    R9        3.21869  -0.01051  -0.02624  -0.02575  -0.05199   3.16670
   R10        2.59347   0.00596  -0.01412   0.02357   0.00969   2.60316
   R11        3.21869  -0.01051  -0.02624  -0.02575  -0.05199   3.16670
    A1        2.08708  -0.00084  -0.00163  -0.00158  -0.00346   2.08362
    A2        2.09922   0.00111   0.00108   0.00392   0.00512   2.10434
    A3        2.09688  -0.00027   0.00055  -0.00234  -0.00166   2.09523
    A4        2.10393   0.00260   0.00213   0.01324   0.01489   2.11882
    A5        2.08963  -0.00130  -0.00106  -0.00662  -0.00745   2.08218
    A6        2.08963  -0.00130  -0.00106  -0.00662  -0.00745   2.08218
    A7        2.08708  -0.00084  -0.00163  -0.00158  -0.00347   2.08362
    A8        2.09922   0.00111   0.00108   0.00392   0.00512   2.10434
    A9        2.09688  -0.00027   0.00056  -0.00234  -0.00166   2.09523
   A10        2.05391  -0.00774  -0.00903  -0.03144  -0.04026   2.01365
   A11        2.12746   0.00481   0.00737   0.01817   0.02544   2.15290
   A12        2.10182   0.00293   0.00166   0.01327   0.01483   2.11664
   A13        2.18045   0.01456   0.01920   0.05279   0.07257   2.25302
   A14        2.05391  -0.00774  -0.00903  -0.03144  -0.04027   2.01365
   A15        2.12745   0.00481   0.00737   0.01817   0.02544   2.15289
   A16        2.10182   0.00293   0.00166   0.01327   0.01483   2.11664
    D1       -0.00000  -0.00000   0.00000  -0.00000   0.00000   0.00000
    D2        3.14159   0.00000   0.00000   0.00000   0.00000   3.14159
    D3        3.14159  -0.00000   0.00000  -0.00000   0.00000   3.14159
    D4       -0.00000   0.00000   0.00000   0.00000   0.00000   0.00000
    D5        0.00000   0.00000   0.00000   0.00000  -0.00000   0.00000
    D6        3.14159  -0.00000   0.00000  -0.00000   0.00000   3.14159
    D7        3.14159   0.00000   0.00000   0.00000   0.00000   3.14159
    D8       -0.00000   0.00000   0.00000   0.00000   0.00000   0.00000
    D9        0.00000  -0.00000   0.00000  -0.00000   0.00000   0.00000
   D10        3.14159   0.00000   0.00000   0.00000   0.00000   3.14159
   D11        3.14159  -0.00000   0.00000  -0.00000   0.00000   3.14159
   D12       -0.00000   0.00000   0.00000   0.00000   0.00000   0.00000
   D13        0.00000   0.00000   0.00000   0.00000  -0.00000   0.00000
   D14        3.14159   0.00000   0.00000   0.00000   0.00000   3.14159
   D15        3.14159  -0.00000   0.00000  -0.00000   0.00000   3.14159
   D16        0.00000  -0.00000   0.00000  -0.00000   0.00000   0.00000
   D17       -0.00000  -0.00000   0.00000  -0.00000   0.00000   0.00000
   D18        3.14159  -0.00000   0.00000  -0.00000   0.00000   3.14159
   D19       -0.00000  -0.00000   0.00000  -0.00000   0.00000   0.00000
   D20        3.14159   0.00000   0.00000   0.00000   0.00000   3.14159
         Item               Value     Threshold  Converged?
 Maximum Force            0.016606     0.000450     NO 
 RMS     Force            0.006243     0.000300     NO 
 Maximum Displacement     0.061405     0.001800     NO 
 RMS     Displacement     0.021472     0.001200     NO 
 Predicted change in Energy=-3.710622D-03
 GradGradGradGradGradGradGradGradGradGradGradGradGradGradGradGradGradGrad

                          Input orientation:                          
 ---------------------------------------------------------------------
 Center     Atomic      Atomic             Coordinates (Angstroms)
 Number     Number       Type             X           Y           Z
 ---------------------------------------------------------------------
      1          6           0       -3.234047    0.219221   -0.000000
      2          6           0       -2.011894    0.949910   -0.000000
      3          6           0       -0.751467    0.287421    0.000000
      4          6           0       -0.710349   -1.135068    0.000000
      5          6           0       -1.937420   -1.761080    0.000000
      6          6           0       -3.197008   -1.203379   -0.000000
      7         17           0       -4.572324   -2.160785   -0.000000
      8         17           0       -4.708303    1.021548   -0.000000
      9         17           0        0.715454   -2.015526    0.000000
     10         17           0       -2.058059    2.630460   -0.000000
     11         17           0        0.676517    1.169478    0.000000
 ---------------------------------------------------------------------
                    Distance matrix (angstroms):
                    1          2          3          4          5
     1  C    0.000000
     2  C    1.423927   0.000000
     3  C    2.483517   1.423927   0.000000
     4  C    2.864115   2.457876   1.423082   0.000000
     5  C    2.367031   2.712013   2.367031   1.377532   0.000000
     6  C    1.423082   2.457876   2.864115   2.487598   1.377532
     7  Cl   2.730461   4.028924   4.537913   3.995867   2.665049
     8  Cl   1.678439   2.697361   4.024362   4.542536   3.926934
     9  Cl   4.537913   4.028925   2.730462   1.675745   2.665048
    10  Cl   2.682726   1.681184   2.682726   3.999440   4.393196
    11  Cl   4.024363   2.697362   1.678441   2.689670   3.926937
                    6          7          8          9         10
     6  C    0.000000
     7  Cl   1.675744   0.000000
     8  Cl   2.689668   3.185237   0.000000
     9  Cl   3.995866   5.289773   6.216185   0.000000
    10  Cl   3.999441   5.410874   3.100385   5.410875   0.000000
    11  Cl   4.542538   6.216187   5.386851   3.185242   3.100383
                   11
    11  Cl   0.000000
 Stoichiometry    C6Cl5(2)
 Framework group  CS[SG(C6Cl5)]
 Deg. of freedom    19
 Full point group                 CS      NOp   2
 Largest Abelian subgroup         CS      NOp   2
 Largest concise Abelian subgroup C1      NOp   1
                         Standard orientation:                         
 ---------------------------------------------------------------------
 Center     Atomic      Atomic             Coordinates (Angstroms)
 Number     Number       Type             X           Y           Z
 ---------------------------------------------------------------------
      1          6           0        0.293844   -1.241758    0.000000
      2          6           0        0.990696   -0.000000    0.000000
      3          6           0        0.293844    1.241758    0.000000
      4          6           0       -1.129237    1.243799   -0.000000
      5          6           0       -1.721317   -0.000000   -0.000000
      6          6           0       -1.129237   -1.243799   -0.000000
      7         17           0       -2.048515   -2.644887   -0.000000
      8         17           0        1.136353   -2.693425    0.000000
      9         17           0       -2.048517    2.644885   -0.000000
     10         17           0        2.671880    0.000001    0.000000
     11         17           0        1.136355    2.693426    0.000000
 ---------------------------------------------------------------------
 Rotational constants (GHZ):           0.7083637           0.4719878           0.2832538
 Standard basis: VSTO-6G (5D, 7F)
 There are    33 symmetry adapted cartesian basis functions of A'  symmetry.
 There are    11 symmetry adapted cartesian basis functions of A"  symmetry.
 There are    33 symmetry adapted basis functions of A'  symmetry.
 There are    11 symmetry adapted basis functions of A"  symmetry.
    44 basis functions,   264 primitive gaussians,    44 cartesian basis functions
    30 alpha electrons       29 beta electrons
       nuclear repulsion energy       353.3624688015 Hartrees.
 Integral buffers will be    131072 words long.
 Regular integral format.
 Two-electron integral symmetry is turned off.
 Do NDO integrals.
 One-electron integrals computed using PRISM.
 NBasis=    44 RedAO= T EigKep=  1.00D+00  NBF=    33    11
 NBsUse=    44 1.00D-06 EigRej= -1.00D+00 NBFU=    33    11
 Initial guess from the checkpoint file:  "geometry_chks/123_56ClBzNeutralRadical.chk"
 B after Tr=    -0.000000    0.000000    0.000000
         Rot=    0.707107   -0.000000   -0.000000   -0.707106 Ang= -90.00 deg.
 Initial guess orbital symmetries:
 Alpha Orbitals:
       Occupied  (A') (A') (A') (A') (A') (A') (A') (A') (A') (A')
                 (A') (A') (A') (A') (A") (A') (A') (A") (A") (A')
                 (A") (A") (A') (A') (A') (A') (A") (A') (A") (A")
       Virtual   (A") (A") (A') (A') (A') (A') (A') (A") (A') (A')
                 (A') (A') (A') (A')
 Beta  Orbitals:
       Occupied  (A') (A') (A') (A') (A') (A') (A') (A') (A') (A')
                 (A') (A') (A') (A') (A") (A') (A') (A") (A") (A")
                 (A") (A') (A') (A') (A') (A') (A") (A") (A")
       Virtual   (A') (A") (A") (A') (A') (A') (A') (A') (A") (A')
                 (A') (A') (A') (A') (A')
 Initial guess <Sx>= 0.0000 <Sy>= 0.0000 <Sz>= 0.5000 <S**2>= 1.3294 S= 0.7568
 Keep J ints in memory in canonical form, NReq=865421.
 Overlap will be assumed to be unity.
 Requested convergence on RMS density matrix=1.00D-08 within  32 cycles.
 Requested convergence on MAX density matrix=1.00D-06.
 Requested convergence on             energy=1.00D-06.
 No special actions if energy rises.
 Fock symm off for IB=2 I1=    1 I=   34 J=   24 Cut=1.00D-07 Err=1.60D-03
 Fock matrix is not symmetric: symmetry in diagonalization turned off.
 SCF Done:  E(UAM1) =  0.759775247925E-01 A.U. after   16 cycles
            NFock= 15  Conv=0.63D-08     -V/T= 1.0005
 <Sx>= 0.0000 <Sy>= 0.0000 <Sz>= 0.5000 <S**2>= 1.4545 S= 0.8056
 <L.S>=  0.00000000000    
 Annihilation of the first spin contaminant:
 S**2 before annihilation     1.4545,   after     1.2160
 QCSCF skips out because SCF is already converged.
 Calling FoFJK, ICntrl=      2127 FMM=F ISym2X=1 I1Cent= 0 IOpClX= 1 NMat=1 NMatS=1 NMatT=0.
 ***** Axes restored to original set *****
 -------------------------------------------------------------------
 Center     Atomic                   Forces (Hartrees/Bohr)
 Number     Number              X              Y              Z
 -------------------------------------------------------------------
      1        6           0.008885410   -0.000953576   -0.000000000
      2        6           0.000343847   -0.012507024   -0.000000000
      3        6          -0.008819044   -0.001439735   -0.000000000
      4        6          -0.004826597    0.000002897   -0.000000000
      5        6          -0.000219151    0.007971873    0.000000000
      6        6           0.004819374    0.000267628    0.000000000
      7       17          -0.001198465    0.000303946    0.000000000
      8       17          -0.002589529    0.000838045    0.000000000
      9       17           0.001180056    0.000369458    0.000000000
     10       17          -0.000114606    0.004168325    0.000000000
     11       17           0.002538705    0.000978162    0.000000000
 -------------------------------------------------------------------
 Cartesian Forces:  Max     0.012507024 RMS     0.003740444

 GradGradGradGradGradGradGradGradGradGradGradGradGradGradGradGradGradGrad
 Berny optimization.
 Using GEDIIS/GDIIS optimizer.
 FormGI is forming the generalized inverse of G from B-inverse, IUseBI=4.
 Internal  Forces:  Max     0.007111758 RMS     0.002316400
 Search for a local minimum.
 Step number   3 out of a maximum of   57
 All quantities printed in internal units (Hartrees-Bohrs-Radians)
 Mixed Optimization -- RFO/linear search
 Update second derivatives using D2CorX and points    1    2    3
 DE= -2.79D-03 DEPred=-3.71D-03 R= 7.53D-01
 TightC=F SS=  1.41D+00  RLast= 1.70D-01 DXNew= 8.4853D-01 5.1037D-01
 Trust test= 7.53D-01 RLast= 1.70D-01 DXMaxT set to 5.10D-01
 ITU=  1  1  0
 Use linear search instead of GDIIS.
     Eigenvalues ---    0.02011   0.02011   0.02011   0.02011   0.02011
     Eigenvalues ---    0.02011   0.02011   0.02011   0.19110   0.25000
     Eigenvalues ---    0.25000   0.25000   0.25000   0.25000   0.25000
     Eigenvalues ---    0.25167   0.28710   0.29033   0.29033   0.29034
     Eigenvalues ---    0.32603   0.41295   0.41467   0.44623   0.44657
     Eigenvalues ---    0.44657   0.62612
 RFO step:  Lambda=-3.10547073D-04 EMin= 2.01067208D-02
 Quartic linear search produced a step of -0.15705.
 Iteration  1 RMS(Cart)=  0.00467921 RMS(Int)=  0.00001934
 Iteration  2 RMS(Cart)=  0.00001296 RMS(Int)=  0.00001720
 Iteration  3 RMS(Cart)=  0.00000000 RMS(Int)=  0.00001720
 ClnCor:  largest displacement from symmetrization is 9.47D-12 for atom     4.
 Variable       Old X    -DE/DX   Delta X   Delta X   Delta X     New X
                                 (Linear)    (Quad)   (Total)
    R1        2.69083  -0.00711  -0.00547  -0.00714  -0.01259   2.67824
    R2        2.68924  -0.00446  -0.00687  -0.00005  -0.00692   2.68232
    R3        3.17179   0.00268   0.00752   0.00077   0.00829   3.18008
    R4        2.69083  -0.00711  -0.00547  -0.00714  -0.01259   2.67824
    R5        3.17698   0.00417   0.00675   0.00611   0.01287   3.18984
    R6        2.68924  -0.00446  -0.00687  -0.00005  -0.00692   2.68232
    R7        3.17179   0.00267   0.00752   0.00077   0.00829   3.18008
    R8        2.60316  -0.00543  -0.00152  -0.00732  -0.00887   2.59429
    R9        3.16670   0.00081   0.00816  -0.00551   0.00265   3.16935
   R10        2.60316  -0.00543  -0.00152  -0.00732  -0.00887   2.59429
   R11        3.16670   0.00081   0.00817  -0.00551   0.00265   3.16935
    A1        2.08362   0.00007   0.00054  -0.00055   0.00002   2.08364
    A2        2.10434   0.00076  -0.00080   0.00363   0.00281   2.10715
    A3        2.09523  -0.00083   0.00026  -0.00308  -0.00284   2.09239
    A4        2.11882   0.00096  -0.00234   0.00552   0.00323   2.12205
    A5        2.08218  -0.00048   0.00117  -0.00276  -0.00161   2.08057
    A6        2.08218  -0.00048   0.00117  -0.00276  -0.00161   2.08057
    A7        2.08362   0.00007   0.00054  -0.00055   0.00002   2.08364
    A8        2.10434   0.00076  -0.00080   0.00363   0.00281   2.10715
    A9        2.09523  -0.00083   0.00026  -0.00308  -0.00284   2.09239
   A10        2.01365  -0.00125   0.00632  -0.01111  -0.00481   2.00883
   A11        2.15290  -0.00085  -0.00400   0.00128  -0.00270   2.15019
   A12        2.11664   0.00211  -0.00233   0.00983   0.00752   2.12416
   A13        2.25302   0.00141  -0.01140   0.01781   0.00635   2.25937
   A14        2.01365  -0.00125   0.00632  -0.01111  -0.00481   2.00883
   A15        2.15289  -0.00085  -0.00400   0.00128  -0.00270   2.15019
   A16        2.11664   0.00211  -0.00233   0.00983   0.00752   2.12416
    D1        0.00000  -0.00000   0.00000  -0.00000  -0.00000   0.00000
    D2        3.14159   0.00000   0.00000   0.00000   0.00000   3.14159
    D3        3.14159  -0.00000   0.00000  -0.00000   0.00000   3.14159
    D4        0.00000   0.00000   0.00000   0.00000  -0.00000   0.00000
    D5        0.00000  -0.00000   0.00000   0.00000   0.00000   0.00000
    D6        3.14159  -0.00000   0.00000  -0.00000   0.00000   3.14159
    D7        3.14159   0.00000   0.00000   0.00000   0.00000   3.14159
    D8       -0.00000   0.00000   0.00000   0.00000   0.00000   0.00000
    D9        0.00000   0.00000   0.00000   0.00000   0.00000   0.00000
   D10        3.14159   0.00000   0.00000   0.00000   0.00000   3.14159
   D11        3.14159  -0.00000   0.00000  -0.00000   0.00000   3.14159
   D12       -0.00000   0.00000   0.00000   0.00000   0.00000   0.00000
   D13       -0.00000  -0.00000   0.00000  -0.00000   0.00000   0.00000
   D14        3.14159   0.00000   0.00000   0.00000   0.00000   3.14159
   D15        3.14159  -0.00000   0.00000  -0.00000   0.00000   3.14159
   D16        0.00000  -0.00000   0.00000  -0.00000   0.00000   0.00000
   D17        0.00000   0.00000   0.00000   0.00000   0.00000   0.00000
   D18        3.14159  -0.00000   0.00000  -0.00000   0.00000   3.14159
   D19       -0.00000  -0.00000   0.00000  -0.00000   0.00000   0.00000
   D20        3.14159   0.00000   0.00000   0.00000   0.00000   3.14159
         Item               Value     Threshold  Converged?
 Maximum Force            0.007112     0.000450     NO 
 RMS     Force            0.002316     0.000300     NO 
 Maximum Displacement     0.015448     0.001800     NO 
 RMS     Displacement     0.004682     0.001200     NO 
 Predicted change in Energy=-2.541840D-04
 GradGradGradGradGradGradGradGradGradGradGradGradGradGradGradGradGradGrad

                          Input orientation:                          
 ---------------------------------------------------------------------
 Center     Atomic      Atomic             Coordinates (Angstroms)
 Number     Number       Type             X           Y           Z
 ---------------------------------------------------------------------
      1          6           0       -3.229279    0.216429   -0.000000
      2          6           0       -2.011669    0.941735    0.000000
      3          6           0       -0.756076    0.284370    0.000000
      4          6           0       -0.712738   -1.134390    0.000000
      5          6           0       -1.937603   -1.754385   -0.000000
      6          6           0       -3.194660   -1.202571   -0.000000
      7         17           0       -4.575276   -2.154794   -0.000000
      8         17           0       -4.708350    1.019081   -0.000000
      9         17           0        0.718074   -2.009380    0.000000
     10         17           0       -2.058022    2.629090    0.000000
     11         17           0        0.676699    1.167014    0.000000
 ---------------------------------------------------------------------
                    Distance matrix (angstroms):
                    1          2          3          4          5
     1  C    0.000000
     2  C    1.417266   0.000000
     3  C    2.474136   1.417266   0.000000
     4  C    2.856167   2.448983   1.419422   0.000000
     5  C    2.356382   2.697138   2.356381   1.372840   0.000000
     6  C    1.419422   2.448983   2.856167   2.482859   1.372840
     7  Cl   2.726611   4.020022   4.531646   3.995050   2.667891
     8  Cl   1.682826   2.697790   4.019984   4.538982   3.920351
     9  Cl   4.531646   4.020022   2.726611   1.677149   2.667891
    10  Cl   2.681935   1.687992   2.681935   3.996695   4.385129
    11  Cl   4.019984   2.697790   1.682825   2.688306   3.920350
                    6          7          8          9         10
     6  C    0.000000
     7  Cl   1.677149   0.000000
     8  Cl   2.688307   3.176664   0.000000
     9  Cl   3.995050   5.295347   6.214310   0.000000
    10  Cl   3.996696   5.405749   3.101027   5.405748   0.000000
    11  Cl   4.538981   6.214310   5.387080   3.176663   3.101026
                   11
    11  Cl   0.000000
 Stoichiometry    C6Cl5(2)
 Framework group  CS[SG(C6Cl5)]
 Deg. of freedom    19
 Full point group                 CS      NOp   2
 Largest Abelian subgroup         CS      NOp   2
 Largest concise Abelian subgroup C1      NOp   1
                         Standard orientation:                         
 ---------------------------------------------------------------------
 Center     Atomic      Atomic             Coordinates (Angstroms)
 Number     Number       Type             X           Y           Z
 ---------------------------------------------------------------------
      1          6           0        0.290391   -1.237068    0.000000
      2          6           0        0.981987   -0.000000    0.000000
      3          6           0        0.290391    1.237068    0.000000
      4          6           0       -1.129025    1.241429    0.000000
      5          6           0       -1.715151    0.000000    0.000000
      6          6           0       -1.129025   -1.241429    0.000000
      7         17           0       -2.042976   -2.647673    0.000000
      8         17           0        1.133357   -2.693540    0.000000
      9         17           0       -2.042976    2.647673    0.000000
     10         17           0        2.669979    0.000000    0.000000
     11         17           0        1.133356    2.693540    0.000000
 ---------------------------------------------------------------------
 Rotational constants (GHZ):           0.7112914           0.4716996           0.2836166
 Standard basis: VSTO-6G (5D, 7F)
 There are    33 symmetry adapted cartesian basis functions of A'  symmetry.
 There are    11 symmetry adapted cartesian basis functions of A"  symmetry.
 There are    33 symmetry adapted basis functions of A'  symmetry.
 There are    11 symmetry adapted basis functions of A"  symmetry.
    44 basis functions,   264 primitive gaussians,    44 cartesian basis functions
    30 alpha electrons       29 beta electrons
       nuclear repulsion energy       353.5643285624 Hartrees.
 Integral buffers will be    131072 words long.
 Regular integral format.
 Two-electron integral symmetry is turned off.
 Do NDO integrals.
 One-electron integrals computed using PRISM.
 NBasis=    44 RedAO= T EigKep=  1.00D+00  NBF=    33    11
 NBsUse=    44 1.00D-06 EigRej= -1.00D+00 NBFU=    33    11
 Initial guess from the checkpoint file:  "geometry_chks/123_56ClBzNeutralRadical.chk"
 B after Tr=     0.000000   -0.000000   -0.000000
         Rot=    1.000000   -0.000000    0.000000    0.000000 Ang=   0.00 deg.
 Initial guess orbital symmetries:
 Alpha Orbitals:
       Occupied  (A') (A') (A') (A') (A') (A') (A') (A') (A') (A')
                 (A') (A') (A') (A') (A") (A') (A') (A") (A") (A")
                 (A') (A") (A') (A') (A') (A') (A") (A') (A") (A")
       Virtual   (A") (A") (A') (A') (A') (A') (A') (A") (A') (A')
                 (A') (A') (A') (A')
 Beta  Orbitals:
       Occupied  (A') (A') (A') (A') (A') (A') (A') (A') (A') (A')
                 (A') (A') (A') (A') (A") (A') (A') (A") (A") (A")
                 (A") (A') (A') (A') (A') (A') (A") (A") (A")
       Virtual   (A') (A") (A") (A') (A') (A') (A') (A') (A") (A')
                 (A') (A') (A') (A') (A')
 Initial guess <Sx>= 0.0000 <Sy>= 0.0000 <Sz>= 0.5000 <S**2>= 1.4545 S= 0.8056
 Keep J ints in memory in canonical form, NReq=865421.
 Overlap will be assumed to be unity.
 Requested convergence on RMS density matrix=1.00D-08 within  32 cycles.
 Requested convergence on MAX density matrix=1.00D-06.
 Requested convergence on             energy=1.00D-06.
 No special actions if energy rises.
 Fock symm off for IB=2 I1=    1 I=   34 J=   16 Cut=1.00D-07 Err=4.11D-04
 Fock matrix is not symmetric: symmetry in diagonalization turned off.
 SCF Done:  E(UAM1) =  0.757058539574E-01 A.U. after   14 cycles
            NFock= 13  Conv=0.74D-08     -V/T= 1.0005
 <Sx>= 0.0000 <Sy>= 0.0000 <Sz>= 0.5000 <S**2>= 1.4182 S= 0.7916
 <L.S>=  0.00000000000    
 Annihilation of the first spin contaminant:
 S**2 before annihilation     1.4182,   after     1.1636
 QCSCF skips out because SCF is already converged.
 Calling FoFJK, ICntrl=      2127 FMM=F ISym2X=1 I1Cent= 0 IOpClX= 1 NMat=1 NMatS=1 NMatT=0.
 ***** Axes restored to original set *****
 -------------------------------------------------------------------
 Center     Atomic                   Forces (Hartrees/Bohr)
 Number     Number              X              Y              Z
 -------------------------------------------------------------------
      1        6           0.001034237    0.001563414   -0.000000000
      2        6           0.000058756   -0.002143096   -0.000000000
      3        6          -0.001118470    0.001504441   -0.000000000
      4        6           0.000490924   -0.001563910   -0.000000000
      5        6          -0.000007211    0.000258155   -0.000000000
      6        6          -0.000404263   -0.001588194    0.000000000
      7       17          -0.000300882    0.000132557    0.000000000
      8       17          -0.000720593    0.000217021    0.000000000
      9       17           0.000293122    0.000148914    0.000000000
     10       17          -0.000033368    0.001214321    0.000000000
     11       17           0.000707748    0.000256376    0.000000000
 -------------------------------------------------------------------
 Cartesian Forces:  Max     0.002143096 RMS     0.000776330

 GradGradGradGradGradGradGradGradGradGradGradGradGradGradGradGradGradGrad
 Berny optimization.
 Using GEDIIS/GDIIS optimizer.
 FormGI is forming the generalized inverse of G from B-inverse, IUseBI=4.
 Internal  Forces:  Max     0.001307236 RMS     0.000424808
 Search for a local minimum.
 Step number   4 out of a maximum of   57
 All quantities printed in internal units (Hartrees-Bohrs-Radians)
 Mixed Optimization -- En-DIIS/RFO-DIIS
 Update second derivatives using D2CorX and points    1    2    3    4
 DE= -2.72D-04 DEPred=-2.54D-04 R= 1.07D+00
 TightC=F SS=  1.41D+00  RLast= 3.39D-02 DXNew= 8.5834D-01 1.0167D-01
 Trust test= 1.07D+00 RLast= 3.39D-02 DXMaxT set to 5.10D-01
 ITU=  1  1  1  0
 Use linear search instead of GDIIS.
     Eigenvalues ---    0.02011   0.02011   0.02011   0.02011   0.02011
     Eigenvalues ---    0.02011   0.02011   0.02011   0.18492   0.24551
     Eigenvalues ---    0.25000   0.25000   0.25000   0.25000   0.25000
     Eigenvalues ---    0.25004   0.28516   0.29032   0.29033   0.29033
     Eigenvalues ---    0.29719   0.40759   0.41459   0.42857   0.44657
     Eigenvalues ---    0.44657   0.72904
 RFO step:  Lambda=-2.19709298D-05 EMin= 2.01067190D-02
 Quartic linear search produced a step of  0.06470.
 Iteration  1 RMS(Cart)=  0.00138610 RMS(Int)=  0.00000135
 Iteration  2 RMS(Cart)=  0.00000146 RMS(Int)=  0.00000007
 Iteration  3 RMS(Cart)=  0.00000000 RMS(Int)=  0.00000007
 ClnCor:  largest displacement from symmetrization is 5.67D-11 for atom    11.
 Variable       Old X    -DE/DX   Delta X   Delta X   Delta X     New X
                                 (Linear)    (Quad)   (Total)
    R1        2.67824  -0.00044  -0.00081  -0.00104  -0.00185   2.67639
    R2        2.68232   0.00131  -0.00045   0.00297   0.00253   2.68485
    R3        3.18008   0.00074   0.00054   0.00171   0.00225   3.18233
    R4        2.67824  -0.00044  -0.00081  -0.00104  -0.00185   2.67639
    R5        3.18984   0.00121   0.00083   0.00335   0.00418   3.19402
    R6        2.68232   0.00131  -0.00045   0.00298   0.00253   2.68485
    R7        3.18008   0.00074   0.00054   0.00171   0.00225   3.18233
    R8        2.59429   0.00051  -0.00057   0.00092   0.00035   2.59464
    R9        3.16935   0.00017   0.00017  -0.00023  -0.00006   3.16930
   R10        2.59429   0.00051  -0.00057   0.00092   0.00035   2.59464
   R11        3.16935   0.00017   0.00017  -0.00023  -0.00006   3.16930
    A1        2.08364   0.00004   0.00000  -0.00005  -0.00005   2.08359
    A2        2.10715   0.00022   0.00018   0.00100   0.00118   2.10833
    A3        2.09239  -0.00027  -0.00018  -0.00094  -0.00113   2.09126
    A4        2.12205   0.00039   0.00021   0.00127   0.00148   2.12353
    A5        2.08057  -0.00020  -0.00010  -0.00064  -0.00074   2.07983
    A6        2.08057  -0.00020  -0.00010  -0.00064  -0.00074   2.07983
    A7        2.08364   0.00004   0.00000  -0.00005  -0.00005   2.08359
    A8        2.10715   0.00022   0.00018   0.00100   0.00118   2.10833
    A9        2.09239  -0.00026  -0.00018  -0.00094  -0.00113   2.09126
   A10        2.00883  -0.00030  -0.00031  -0.00119  -0.00150   2.00734
   A11        2.15019  -0.00030  -0.00017  -0.00110  -0.00127   2.14892
   A12        2.12416   0.00059   0.00049   0.00228   0.00277   2.12693
   A13        2.25937   0.00011   0.00041   0.00121   0.00162   2.26099
   A14        2.00883  -0.00030  -0.00031  -0.00119  -0.00150   2.00734
   A15        2.15019  -0.00030  -0.00017  -0.00110  -0.00127   2.14892
   A16        2.12416   0.00059   0.00049   0.00228   0.00277   2.12693
    D1        0.00000  -0.00000   0.00000  -0.00000   0.00000   0.00000
    D2        3.14159   0.00000   0.00000   0.00000   0.00000   3.14159
    D3        3.14159  -0.00000   0.00000  -0.00000   0.00000   3.14159
    D4        0.00000  -0.00000   0.00000  -0.00000   0.00000   0.00000
    D5        0.00000  -0.00000   0.00000  -0.00000   0.00000   0.00000
    D6        3.14159  -0.00000   0.00000  -0.00000   0.00000   3.14159
    D7        3.14159   0.00000   0.00000   0.00000   0.00000   3.14159
    D8        0.00000   0.00000   0.00000   0.00000   0.00000   0.00000
    D9        0.00000   0.00000   0.00000   0.00000   0.00000   0.00000
   D10        3.14159   0.00000   0.00000   0.00000   0.00000   3.14159
   D11        3.14159  -0.00000   0.00000  -0.00000   0.00000   3.14159
   D12        0.00000   0.00000   0.00000   0.00000   0.00000   0.00000
   D13        0.00000  -0.00000   0.00000  -0.00000   0.00000   0.00000
   D14        3.14159   0.00000   0.00000   0.00000   0.00000   3.14159
   D15        3.14159  -0.00000   0.00000  -0.00000   0.00000   3.14159
   D16        0.00000   0.00000   0.00000   0.00000   0.00000   0.00000
   D17        0.00000   0.00000   0.00000   0.00000   0.00000   0.00000
   D18        3.14159  -0.00000   0.00000  -0.00000   0.00000   3.14159
   D19        0.00000   0.00000   0.00000   0.00000   0.00000   0.00000
   D20        3.14159   0.00000   0.00000   0.00000   0.00000   3.14159
         Item               Value     Threshold  Converged?
 Maximum Force            0.001307     0.000450     NO 
 RMS     Force            0.000425     0.000300     NO 
 Maximum Displacement     0.004619     0.001800     NO 
 RMS     Displacement     0.001385     0.001200     NO 
 Predicted change in Energy=-1.205065D-05
 GradGradGradGradGradGradGradGradGradGradGradGradGradGradGradGradGradGrad

                          Input orientation:                          
 ---------------------------------------------------------------------
 Center     Atomic      Atomic             Coordinates (Angstroms)
 Number     Number       Type             X           Y           Z
 ---------------------------------------------------------------------
      1          6           0       -3.228937    0.216516    0.000000
      2          6           0       -2.011633    0.940421    0.000000
      3          6           0       -0.756421    0.284439    0.000000
      4          6           0       -0.712063   -1.135628    0.000000
      5          6           0       -1.937594   -1.754716    0.000000
      6          6           0       -3.195266   -1.203844    0.000000
      7         17           0       -4.577720   -2.153342    0.000000
      8         17           0       -4.709406    1.019087    0.000000
      9         17           0        0.720435   -2.007797    0.000000
     10         17           0       -2.058047    2.629987    0.000000
     11         17           0        0.677753    1.167078    0.000000
 ---------------------------------------------------------------------
                    Distance matrix (angstroms):
                    1          2          3          4          5
     1  C    0.000000
     2  C    1.416287   0.000000
     3  C    2.473449   1.416287   0.000000
     4  C    2.857088   2.449257   1.420760   0.000000
     5  C    2.356549   2.696154   2.356549   1.373025   0.000000
     6  C    1.420760   2.449257   2.857088   2.484139   1.373025
     7  Cl   2.726801   4.019475   4.532671   3.997380   2.670050
     8  Cl   1.684015   2.698920   4.020671   4.541095   3.921342
     9  Cl   4.532671   4.019475   2.726801   1.677119   2.670050
    10  Cl   2.682504   1.690204   2.682504   3.998941   4.386357
    11  Cl   4.020672   2.698920   1.684015   2.689618   3.921342
                    6          7          8          9         10
     6  C    0.000000
     7  Cl   1.677119   0.000000
     8  Cl   2.689618   3.175161   0.000000
     9  Cl   3.997380   5.300154   6.216526   0.000000
    10  Cl   3.998941   5.406384   3.102370   5.406385   0.000000
    11  Cl   4.541096   6.216526   5.389191   3.175162   3.102371
                   11
    11  Cl   0.000000
 Stoichiometry    C6Cl5(2)
 Framework group  CS[SG(C6Cl5)]
 Deg. of freedom    19
 Full point group                 CS      NOp   2
 Largest Abelian subgroup         CS      NOp   2
 Largest concise Abelian subgroup C1      NOp   1
                         Standard orientation:                         
 ---------------------------------------------------------------------
 Center     Atomic      Atomic             Coordinates (Angstroms)
 Number     Number       Type             X           Y           Z
 ---------------------------------------------------------------------
      1          6           0        0.290105   -1.236725   -0.000000
      2          6           0        0.980308    0.000000   -0.000000
      3          6           0        0.290105    1.236725    0.000000
      4          6           0       -1.130645    1.242070    0.000000
      5          6           0       -1.715846   -0.000000    0.000000
      6          6           0       -1.130645   -1.242070   -0.000000
      7         17           0       -2.041821   -2.650077   -0.000000
      8         17           0        1.133028   -2.694596   -0.000000
      9         17           0       -2.041822    2.650077    0.000000
     10         17           0        2.670512   -0.000000   -0.000000
     11         17           0        1.133028    2.694596    0.000000
 ---------------------------------------------------------------------
 Rotational constants (GHZ):           0.7115011           0.4711252           0.2834421
 Standard basis: VSTO-6G (5D, 7F)
 There are    33 symmetry adapted cartesian basis functions of A'  symmetry.
 There are    11 symmetry adapted cartesian basis functions of A"  symmetry.
 There are    33 symmetry adapted basis functions of A'  symmetry.
 There are    11 symmetry adapted basis functions of A"  symmetry.
    44 basis functions,   264 primitive gaussians,    44 cartesian basis functions
    30 alpha electrons       29 beta electrons
       nuclear repulsion energy       353.5004682121 Hartrees.
 Integral buffers will be    131072 words long.
 Regular integral format.
 Two-electron integral symmetry is turned off.
 Do NDO integrals.
 One-electron integrals computed using PRISM.
 NBasis=    44 RedAO= T EigKep=  1.00D+00  NBF=    33    11
 NBsUse=    44 1.00D-06 EigRej= -1.00D+00 NBFU=    33    11
 Initial guess from the checkpoint file:  "geometry_chks/123_56ClBzNeutralRadical.chk"
 B after Tr=    -0.000000   -0.000000    0.000000
         Rot=    1.000000    0.000000   -0.000000   -0.000000 Ang=  -0.00 deg.
 Initial guess orbital symmetries:
 Alpha Orbitals:
       Occupied  (A') (A') (A') (A') (A') (A') (A') (A') (A') (A')
                 (A') (A') (A') (A') (A") (A') (A') (A") (A") (A")
                 (A') (A") (A') (A') (A') (A') (A") (A') (A") (A")
       Virtual   (A") (A") (A') (A') (A') (A') (A') (A") (A') (A')
                 (A') (A') (A') (A')
 Beta  Orbitals:
       Occupied  (A') (A') (A') (A') (A') (A') (A') (A') (A') (A')
                 (A') (A') (A') (A') (A") (A') (A') (A") (A") (A")
                 (A") (A') (A') (A') (A') (A') (A") (A") (A")
       Virtual   (A') (A") (A") (A') (A') (A') (A') (A') (A") (A')
                 (A') (A') (A') (A') (A')
 Initial guess <Sx>= 0.0000 <Sy>= 0.0000 <Sz>= 0.5000 <S**2>= 1.4182 S= 0.7916
 Keep J ints in memory in canonical form, NReq=865421.
 Overlap will be assumed to be unity.
 Requested convergence on RMS density matrix=1.00D-08 within  32 cycles.
 Requested convergence on MAX density matrix=1.00D-06.
 Requested convergence on             energy=1.00D-06.
 No special actions if energy rises.
 Fock symm off for IB=2 I1=    1 I=   34 J=   24 Cut=1.00D-07 Err=1.58D-04
 Fock matrix is not symmetric: symmetry in diagonalization turned off.
 SCF Done:  E(UAM1) =  0.756921531566E-01 A.U. after   14 cycles
            NFock= 13  Conv=0.41D-08     -V/T= 1.0005
 <Sx>= 0.0000 <Sy>= 0.0000 <Sz>= 0.5000 <S**2>= 1.4187 S= 0.7918
 <L.S>=  0.00000000000    
 Annihilation of the first spin contaminant:
 S**2 before annihilation     1.4187,   after     1.1644
 QCSCF skips out because SCF is already converged.
[...]
    R7        3.18233  -0.00006   0.00048  -0.00074  -0.00026   3.18207
    R8        2.59464   0.00006   0.00007  -0.00010  -0.00002   2.59462
    R9        3.16930  -0.00006  -0.00001  -0.00043  -0.00044   3.16886
   R10        2.59464   0.00006   0.00007  -0.00010  -0.00002   2.59462
   R11        3.16930  -0.00006  -0.00001  -0.00043  -0.00044   3.16886
    A1        2.08359  -0.00003  -0.00001  -0.00018  -0.00019   2.08341
    A2        2.10833   0.00011   0.00025   0.00036   0.00061   2.10894
    A3        2.09126  -0.00008  -0.00024  -0.00018  -0.00042   2.09084
    A4        2.12353   0.00009   0.00032   0.00019   0.00050   2.12403
    A5        2.07983  -0.00004  -0.00016  -0.00009  -0.00025   2.07958
    A6        2.07983  -0.00004  -0.00016  -0.00009  -0.00025   2.07958
    A7        2.08359  -0.00003  -0.00001  -0.00018  -0.00019   2.08341
    A8        2.10833   0.00011   0.00025   0.00036   0.00061   2.10894
    A9        2.09126  -0.00008  -0.00024  -0.00018  -0.00042   2.09084
   A10        2.00734  -0.00003  -0.00032  -0.00004  -0.00036   2.00697
   A11        2.14892  -0.00011  -0.00027  -0.00026  -0.00054   2.14838
   A12        2.12693   0.00014   0.00059   0.00031   0.00090   2.12783
   A13        2.26099   0.00004   0.00035   0.00025   0.00060   2.26158
   A14        2.00734  -0.00003  -0.00032  -0.00004  -0.00036   2.00697
   A15        2.14892  -0.00011  -0.00027  -0.00026  -0.00054   2.14838
   A16        2.12693   0.00014   0.00059   0.00031   0.00090   2.12783
    D1       -0.00000   0.00000   0.00000   0.00000   0.00000   0.00000
    D2        3.14159   0.00000   0.00000   0.00000   0.00000   3.14159
    D3        3.14159  -0.00000   0.00000  -0.00000   0.00000   3.14159
    D4       -0.00000   0.00000   0.00000   0.00000   0.00000   0.00000
    D5        0.00000   0.00000   0.00000   0.00000   0.00000   0.00000
    D6        3.14159  -0.00000   0.00000  -0.00000   0.00000   3.14159
    D7        3.14159   0.00000   0.00000   0.00000   0.00000   3.14159
    D8        0.00000   0.00000   0.00000   0.00000  -0.00000   0.00000
    D9        0.00000   0.00000   0.00000   0.00000  -0.00000   0.00000
   D10        3.14159   0.00000   0.00000   0.00000   0.00000   3.14159
   D11        3.14159  -0.00000   0.00000  -0.00000   0.00000   3.14159
   D12       -0.00000  -0.00000   0.00000  -0.00000   0.00000   0.00000
   D13       -0.00000  -0.00000   0.00000  -0.00000   0.00000   0.00000
   D14        3.14159   0.00000   0.00000   0.00000   0.00000   3.14159
   D15        3.14159  -0.00000   0.00000  -0.00000   0.00000   3.14159
   D16        0.00000  -0.00000   0.00000  -0.00000  -0.00000   0.00000
   D17        0.00000   0.00000   0.00000   0.00000   0.00000   0.00000
   D18        3.14159  -0.00000   0.00000  -0.00000   0.00000   3.14159
   D19       -0.00000  -0.00000   0.00000  -0.00000   0.00000   0.00000
   D20        3.14159   0.00000   0.00000   0.00000   0.00000   3.14159
         Item               Value     Threshold  Converged?
 Maximum Force            0.000254     0.000450     YES
 RMS     Force            0.000077     0.000300     YES
 Maximum Displacement     0.001357     0.001800     YES
 RMS     Displacement     0.000429     0.001200     YES
 Predicted change in Energy=-6.035468D-07
 Optimization completed.
    -- Stationary point found.
                           ----------------------------
                           !   Optimized Parameters   !
                           ! (Angstroms and Degrees)  !
 --------------------------                            --------------------------
 ! Name  Definition              Value          Derivative Info.                !
 --------------------------------------------------------------------------------
 ! R1    R(1,2)                  1.4163         -DE/DX =    0.0                 !
 ! R2    R(1,6)                  1.4208         -DE/DX =    0.0003              !
 ! R3    R(1,8)                  1.684          -DE/DX =   -0.0001              !
 ! R4    R(2,3)                  1.4163         -DE/DX =    0.0                 !
 ! R5    R(2,10)                 1.6902         -DE/DX =    0.0001              !
 ! R6    R(3,4)                  1.4208         -DE/DX =    0.0003              !
 ! R7    R(3,11)                 1.684          -DE/DX =   -0.0001              !
 ! R8    R(4,5)                  1.373          -DE/DX =    0.0001              !
 ! R9    R(4,9)                  1.6771         -DE/DX =   -0.0001              !
 ! R10   R(5,6)                  1.373          -DE/DX =    0.0001              !
 ! R11   R(6,7)                  1.6771         -DE/DX =   -0.0001              !
 ! A1    A(2,1,6)              119.381          -DE/DX =    0.0                 !
 ! A2    A(2,1,8)              120.7986         -DE/DX =    0.0001              !
 ! A3    A(6,1,8)              119.8204         -DE/DX =   -0.0001              !
 ! A4    A(1,2,3)              121.6691         -DE/DX =    0.0001              !
 ! A5    A(1,2,10)             119.1654         -DE/DX =    0.0                 !
 ! A6    A(3,2,10)             119.1655         -DE/DX =    0.0                 !
 ! A7    A(2,3,4)              119.381          -DE/DX =    0.0                 !
 ! A8    A(2,3,11)             120.7986         -DE/DX =    0.0001              !
 ! A9    A(4,3,11)             119.8204         -DE/DX =   -0.0001              !
 ! A10   A(3,4,5)              115.0119         -DE/DX =    0.0                 !
 ! A11   A(3,4,9)              123.124          -DE/DX =   -0.0001              !
 ! A12   A(5,4,9)              121.8641         -DE/DX =    0.0001              !
 ! A13   A(4,5,6)              129.5451         -DE/DX =    0.0                 !
 ! A14   A(1,6,5)              115.0119         -DE/DX =    0.0                 !
 ! A15   A(1,6,7)              123.124          -DE/DX =   -0.0001              !
 ! A16   A(5,6,7)              121.8641         -DE/DX =    0.0001              !
 ! D1    D(6,1,2,3)              0.0            -DE/DX =    0.0                 !
 ! D2    D(6,1,2,10)           180.0            -DE/DX =    0.0                 !
 ! D3    D(8,1,2,3)            180.0            -DE/DX =    0.0                 !
 ! D4    D(8,1,2,10)             0.0            -DE/DX =    0.0                 !
 ! D5    D(2,1,6,5)              0.0            -DE/DX =    0.0                 !
 ! D6    D(2,1,6,7)            180.0            -DE/DX =    0.0                 !
 ! D7    D(8,1,6,5)            180.0            -DE/DX =    0.0                 !
 ! D8    D(8,1,6,7)              0.0            -DE/DX =    0.0                 !
 ! D9    D(1,2,3,4)              0.0            -DE/DX =    0.0                 !
 ! D10   D(1,2,3,11)           180.0            -DE/DX =    0.0                 !
 ! D11   D(10,2,3,4)           180.0            -DE/DX =    0.0                 !
 ! D12   D(10,2,3,11)            0.0            -DE/DX =    0.0                 !
 ! D13   D(2,3,4,5)              0.0            -DE/DX =    0.0                 !
 ! D14   D(2,3,4,9)            180.0            -DE/DX =    0.0                 !
 ! D15   D(11,3,4,5)           180.0            -DE/DX =    0.0                 !
 ! D16   D(11,3,4,9)             0.0            -DE/DX =    0.0                 !
 ! D17   D(3,4,5,6)              0.0            -DE/DX =    0.0                 !
 ! D18   D(9,4,5,6)            180.0            -DE/DX =    0.0                 !
 ! D19   D(4,5,6,1)              0.0            -DE/DX =    0.0                 !
 ! D20   D(4,5,6,7)            180.0            -DE/DX =    0.0                 !
 --------------------------------------------------------------------------------
 GradGradGradGradGradGradGradGradGradGradGradGradGradGradGradGradGradGrad

                          Input orientation:                          
 ---------------------------------------------------------------------
 Center     Atomic      Atomic             Coordinates (Angstroms)
 Number     Number       Type             X           Y           Z
 ---------------------------------------------------------------------
      1          6           0       -3.228937    0.216516    0.000000
      2          6           0       -2.011633    0.940421    0.000000
      3          6           0       -0.756421    0.284439   -0.000000
      4          6           0       -0.712063   -1.135628   -0.000000
      5          6           0       -1.937594   -1.754716    0.000000
      6          6           0       -3.195266   -1.203844    0.000000
      7         17           0       -4.577720   -2.153342    0.000000
      8         17           0       -4.709406    1.019087    0.000000
      9         17           0        0.720435   -2.007797   -0.000000
     10         17           0       -2.058047    2.629987    0.000000
     11         17           0        0.677753    1.167078   -0.000000
 ---------------------------------------------------------------------
                    Distance matrix (angstroms):
                    1          2          3          4          5
     1  C    0.000000
     2  C    1.416287   0.000000
     3  C    2.473449   1.416287   0.000000
     4  C    2.857088   2.449257   1.420760   0.000000
     5  C    2.356549   2.696154   2.356549   1.373025   0.000000
     6  C    1.420760   2.449257   2.857088   2.484139   1.373025
     7  Cl   2.726801   4.019475   4.532671   3.997380   2.670050
     8  Cl   1.684015   2.698920   4.020671   4.541095   3.921342
     9  Cl   4.532671   4.019475   2.726801   1.677119   2.670050
    10  Cl   2.682504   1.690204   2.682504   3.998941   4.386357
    11  Cl   4.020672   2.698920   1.684015   2.689618   3.921342
                    6          7          8          9         10
     6  C    0.000000
     7  Cl   1.677119   0.000000
     8  Cl   2.689618   3.175161   0.000000
     9  Cl   3.997380   5.300154   6.216526   0.000000
    10  Cl   3.998941   5.406384   3.102370   5.406385   0.000000
    11  Cl   4.541096   6.216526   5.389191   3.175162   3.102371
                   11
    11  Cl   0.000000
 Stoichiometry    C6Cl5(2)
 Framework group  CS[SG(C6Cl5)]
 Deg. of freedom    19
 Full point group                 CS      NOp   2
 Largest Abelian subgroup         CS      NOp   2
 Largest concise Abelian subgroup C1      NOp   1
                         Standard orientation:                         
 ---------------------------------------------------------------------
 Center     Atomic      Atomic             Coordinates (Angstroms)
 Number     Number       Type             X           Y           Z
 ---------------------------------------------------------------------
      1          6           0        0.290105   -1.236725    0.000000
      2          6           0        0.980308    0.000000   -0.000000
      3          6           0        0.290105    1.236725   -0.000000
      4          6           0       -1.130645    1.242070   -0.000000
      5          6           0       -1.715846   -0.000000    0.000000
      6          6           0       -1.130645   -1.242070    0.000000
      7         17           0       -2.041821   -2.650077    0.000000
      8         17           0        1.133028   -2.694596    0.000000
      9         17           0       -2.041822    2.650077   -0.000000
     10         17           0        2.670512   -0.000000   -0.000000
     11         17           0        1.133028    2.694596   -0.000000
 ---------------------------------------------------------------------
 Rotational constants (GHZ):           0.7115011           0.4711252           0.2834421

 **********************************************************************

            Population analysis using the SCF Density.

 **********************************************************************

 Orbital symmetries:
 Alpha Orbitals:
       Occupied  (A') (A') (A') (A') (A') (A') (A') (A') (A') (A')
                 (A') (A') (A') (A') (A") (A') (A') (A") (A") (A")
                 (A') (A") (A') (A') (A') (A') (A") (A') (A") (A")
       Virtual   (A") (A") (A') (A') (A') (A') (A') (A") (A') (A')
                 (A') (A') (A') (A')
 Beta  Orbitals:
       Occupied  (A') (A') (A') (A') (A') (A') (A') (A') (A') (A')
                 (A') (A') (A') (A') (A") (A') (A') (A") (A") (A")
                 (A") (A') (A') (A') (A') (A') (A") (A") (A")
       Virtual   (A') (A") (A") (A') (A') (A') (A') (A') (A") (A')
                 (A') (A') (A') (A') (A')
 The electronic state is 2-A'.
 Alpha  occ. eigenvalues --   -1.49814  -1.43075  -1.41957  -1.40948  -1.40212
 Alpha  occ. eigenvalues --   -1.37637  -1.17284  -1.15835  -0.91592  -0.89486
 Alpha  occ. eigenvalues --   -0.71839  -0.67907  -0.66755  -0.61764  -0.60270
 Alpha  occ. eigenvalues --   -0.57958  -0.54871  -0.53617  -0.51701  -0.48780
 Alpha  occ. eigenvalues --   -0.48332  -0.48084  -0.46546  -0.46267  -0.45469
 Alpha  occ. eigenvalues --   -0.44661  -0.43637  -0.42022  -0.38584  -0.37169
 Alpha virt. eigenvalues --   -0.02748  -0.02183   0.00944   0.01774   0.02220
 Alpha virt. eigenvalues --    0.04050   0.04163   0.05054   0.10953   0.11104
 Alpha virt. eigenvalues --    0.12105   0.13174   0.14494   0.14855
  Beta  occ. eigenvalues --   -1.49265  -1.43020  -1.42055  -1.40857  -1.40145
  Beta  occ. eigenvalues --   -1.37157  -1.17081  -1.14404  -0.91274  -0.87331
  Beta  occ. eigenvalues --   -0.71886  -0.67504  -0.65254  -0.61595  -0.60094
  Beta  occ. eigenvalues --   -0.57429  -0.54543  -0.53606  -0.52521  -0.48750
  Beta  occ. eigenvalues --   -0.48003  -0.46934  -0.46432  -0.46156  -0.45291
  Beta  occ. eigenvalues --   -0.44619  -0.43116  -0.37693  -0.37137
  Beta virt. eigenvalues --   -0.03126  -0.02757  -0.00700   0.00616   0.02162
  Beta virt. eigenvalues --    0.02322   0.04077   0.04398   0.06077   0.11531
  Beta virt. eigenvalues --    0.11546   0.13051   0.13330   0.14895   0.16902
          Condensed to atoms (all electrons):
               1          2          3          4          5          6
     1  C    4.060456   0.000000   0.000000   0.000000   0.000000   0.000000
     2  C    0.000000   4.064275   0.000000   0.000000   0.000000   0.000000
     3  C    0.000000   0.000000   4.060456   0.000000   0.000000   0.000000
     4  C    0.000000   0.000000   0.000000   4.048050   0.000000   0.000000
     5  C    0.000000   0.000000   0.000000   0.000000   4.028436   0.000000
     6  C    0.000000   0.000000   0.000000   0.000000   0.000000   4.048050
     7  Cl   0.000000   0.000000   0.000000   0.000000   0.000000   0.000000
     8  Cl   0.000000   0.000000   0.000000   0.000000   0.000000   0.000000
     9  Cl   0.000000   0.000000   0.000000   0.000000   0.000000   0.000000
    10  Cl   0.000000   0.000000   0.000000   0.000000   0.000000   0.000000
    11  Cl   0.000000   0.000000   0.000000   0.000000   0.000000   0.000000
               7          8          9         10         11
     1  C    0.000000   0.000000   0.000000   0.000000   0.000000
     2  C    0.000000   0.000000   0.000000   0.000000   0.000000
     3  C    0.000000   0.000000   0.000000   0.000000   0.000000
     4  C    0.000000   0.000000   0.000000   0.000000   0.000000
     5  C    0.000000   0.000000   0.000000   0.000000   0.000000
     6  C    0.000000   0.000000   0.000000   0.000000   0.000000
     7  Cl   6.929535   0.000000   0.000000   0.000000   0.000000
     8  Cl   0.000000   6.941403   0.000000   0.000000   0.000000
     9  Cl   0.000000   0.000000   6.929535   0.000000   0.000000
    10  Cl   0.000000   0.000000   0.000000   6.948401   0.000000
    11  Cl   0.000000   0.000000   0.000000   0.000000   6.941403
          Atomic-Atomic Spin Densities.
               1          2          3          4          5          6
     1  C    0.549960   0.000000   0.000000   0.000000   0.000000   0.000000
     2  C    0.000000  -0.510599   0.000000   0.000000   0.000000   0.000000
     3  C    0.000000   0.000000   0.549960   0.000000   0.000000   0.000000
     4  C    0.000000   0.000000   0.000000  -0.530383   0.000000   0.000000
     5  C    0.000000   0.000000   0.000000   0.000000   1.444965   0.000000
     6  C    0.000000   0.000000   0.000000   0.000000   0.000000  -0.530383
     7  Cl   0.000000   0.000000   0.000000   0.000000   0.000000   0.000000
     8  Cl   0.000000   0.000000   0.000000   0.000000   0.000000   0.000000
     9  Cl   0.000000   0.000000   0.000000   0.000000   0.000000   0.000000
    10  Cl   0.000000   0.000000   0.000000   0.000000   0.000000   0.000000
    11  Cl   0.000000   0.000000   0.000000   0.000000   0.000000   0.000000
               7          8          9         10         11
     1  C    0.000000   0.000000   0.000000   0.000000   0.000000
     2  C    0.000000   0.000000   0.000000   0.000000   0.000000
     3  C    0.000000   0.000000   0.000000   0.000000   0.000000
     4  C    0.000000   0.000000   0.000000   0.000000   0.000000
     5  C    0.000000   0.000000   0.000000   0.000000   0.000000
     6  C    0.000000   0.000000   0.000000   0.000000   0.000000
     7  Cl  -0.002770   0.000000   0.000000   0.000000   0.000000
     8  Cl   0.000000   0.019275   0.000000   0.000000   0.000000
     9  Cl   0.000000   0.000000  -0.002770   0.000000   0.000000
    10  Cl   0.000000   0.000000   0.000000  -0.006531   0.000000
    11  Cl   0.000000   0.000000   0.000000   0.000000   0.019275
 Mulliken charges and spin densities:
               1          2
     1  C   -0.060456   0.549960
     2  C   -0.064275  -0.510599
     3  C   -0.060456   0.549960
     4  C   -0.048050  -0.530383
     5  C   -0.028436   1.444965
     6  C   -0.048050  -0.530383
     7  Cl   0.070465  -0.002770
     8  Cl   0.058597   0.019275
     9  Cl   0.070465  -0.002770
    10  Cl   0.051599  -0.006531
    11  Cl   0.058597   0.019275
 Sum of Mulliken charges =   0.00000   1.00000
 Mulliken charges and spin densities with hydrogens summed into heavy atoms:
               1          2
     1  C   -0.060456   0.549960
     2  C   -0.064275  -0.510599
     3  C   -0.060456   0.549960
     4  C   -0.048050  -0.530383
     5  C   -0.028436   1.444965
     6  C   -0.048050  -0.530383
     7  Cl   0.070465  -0.002770
     8  Cl   0.058597   0.019275
     9  Cl   0.070465  -0.002770
    10  Cl   0.051599  -0.006531
    11  Cl   0.058597   0.019275
 Charge=              0.0000 electrons
 Dipole moment (field-independent basis, Debye):
    X=              0.2453    Y=             -0.0000    Z=              0.0000  Tot=              0.2453
 N-N= 3.535004682121D+02 E-N=-5.059792516928D+02  KE=-1.553180841282D+02
 Symmetry A'   KE=-1.182142961828D+02
 Symmetry A"   KE=-3.710378794542D+01
 Symmetry A'   SP= 1.000000000000D+00
 Symmetry A"   SP= 5.828670879282D-15
 1\1\GINC-SH02-01N08\FOpt\UAM1\ZDO\C6Cl5(2)\JLAPIER\09-Dec-2025\0\\# op
 t am1 SCF=XQC\\Neutral Radical (removed 4) 123_56\\0,2\C,-3.228937448,
 0.2165160695,0.\C,-2.0116326794,0.9404207121,0.\C,-0.7564208618,0.2844
 387754,0.\C,-0.7120632258,-1.1356282596,0.\C,-1.9375944249,-1.75471638
 34,0.\C,-3.1952656453,-1.2038444731,0.\Cl,-4.5777204638,-2.1533422482,
 0.\Cl,-4.7094058562,1.0190872091,0.\Cl,0.7204345357,-2.0077965556,0.\C
 l,-2.0580470489,2.6299869107,0.\Cl,0.6777531184,1.1670782432,0.\\Versi
 on=ES64L-G16RevB.01\State=2-A'\HF=0.0756922\S2=1.418717\S2-1=0.\S2A=1.
 164363\RMSD=4.099e-09\RMSF=1.624e-04\Dipole=-0.0026501,0.0964653,0.\PG
 =CS [SG(C6Cl5)]\\@


 YE HAVE SOWN MUCH, AND BRING IN LITTLE.
 YE EAT, BUT YE HAVE NOT ENOUGH.
 YE DRINK, BUT YE ARE NOT FILLED WITH DRINK.
 YE CLOTHE YOU, BUT THERE IS NONE WARM.
 AND HE THAT EARNETH WAGES EARNETH WAGES TO PUT
 IT INTO A BAG WITH HOLES.
                                     HAGGAI I,6
 Job cpu time:       0 days  0 hours  0 minutes  4.9 seconds.
 Elapsed time:       0 days  0 hours  0 minutes 17.3 seconds.
 File lengths (MBytes):  RWF=     15 Int=      0 D2E=      0 Chk=      2 Scr=      1
 Normal termination of Gaussian 16 at Tue Dec  9 08:35:01 2025.
