 Entering Gaussian System, Link 0=g16
 Initial command:
 /share/software/user/restricted/gaussian/g16.B01/l1.exe "/home/users/jlapier/Chloroaromatics/Gau-23435.inp" -scrdir="/home/users/jlapier/Chloroaromatics/"
 Entering Link 1 = /share/software/user/restricted/gaussian/g16.B01/l1.exe PID=     23438.
  
 Copyright (c) 1988-2017, Gaussian, Inc.  All Rights Reserved.
  
 This is part of the Gaussian(R) 16 program.  It is based on
 the Gaussian(R) 09 system (copyright 2009, Gaussian, Inc.),
 the Gaussian(R) 03 system (copyright 2003, Gaussian, Inc.),
 the Gaussian(R) 98 system (copyright 1998, Gaussian, Inc.),
 the Gaussian(R) 94 system (copyright 1995, Gaussian, Inc.),
 the Gaussian 92(TM) system (copyright 1992, Gaussian, Inc.),
 the Gaussian 90(TM) system (copyright 1990, Gaussian, Inc.),
 the Gaussian 88(TM) system (copyright 1988, Gaussian, Inc.),
 the Gaussian 86(TM) system (copyright 1986, Carnegie Mellon
 University), and the Gaussian 82(TM) system (copyright 1983,
 Carnegie Mellon University). Gaussian is a federally registered
 trademark of Gaussian, Inc.
  
 This software contains proprietary and confidential information,
 including trade secrets, belonging to Gaussian, Inc.
  
 This software is provided under written license and may be
 used, copied, transmitted, or stored only in accord with that
 written license.
  
 The following legend is applicable only to US Government
 contracts under FAR:
  
                    RESTRICTED RIGHTS LEGEND
  
 Use, reproduction and disclosure by the US Government is
 subject to restrictions as set forth in subparagraphs (a)
 and (c) of the Commercial Computer Software - Restricted
 Rights clause in FAR 52.227-19.
  
 Gaussian, Inc.
 340 Quinnipiac St., Bldg. 40, Wallingford CT 06492
  
  
 ---------------------------------------------------------------
 Warning -- This program may not be used in any manner that
 competes with the business of Gaussian, Inc. or will provide
 assistance to any competitor of Gaussian, Inc.  The licensee
 of this program is prohibited from giving any competitor of
 Gaussian, Inc. access to this program.  By using this program,
 the user acknowledges that Gaussian, Inc. is engaged in the
 business of creating and licensing software in the field of
 computational chemistry and represents and warrants to the
 licensee that it is not a competitor of Gaussian, Inc. and that
 it will not use this program in any manner prohibited above.
 ---------------------------------------------------------------
  

 Cite this work as:
 Gaussian 16, Revision B.01,
 M. J. Frisch, G. W. Trucks, H. B. Schlegel, G. E. Scuseria, 
 M. A. Robb, J. R. Cheeseman, G. Scalmani, V. Barone, 
 G. A. Petersson, H. Nakatsuji, X. Li, M. Caricato, A. V. Marenich, 
 J. Bloino, B. G. Janesko, R. Gomperts, B. Mennucci, H. P. Hratchian, 
 J. V. Ortiz, A. F. Izmaylov, J. L. Sonnenberg, D. Williams-Young, 
 F. Ding, F. Lipparini, F. Egidi, J. Goings, B. Peng, A. Petrone, 
 T. Henderson, D. Ranasinghe, V. G. Zakrzewski, J. Gao, N. Rega, 
 G. Zheng, W. Liang, M. Hada, M. Ehara, K. Toyota, R. Fukuda, 
 J. Hasegawa, M. Ishida, T. Nakajima, Y. Honda, O. Kitao, H. Nakai, 
 T. Vreven, K. Throssell, J. A. Montgomery, Jr., J. E. Peralta, 
 F. Ogliaro, M. J. Bearpark, J. J. Heyd, E. N. Brothers, K. N. Kudin, 
 V. N. Staroverov, T. A. Keith, R. Kobayashi, J. Normand, 
 K. Raghavachari, A. P. Rendell, J. C. Burant, S. S. Iyengar, 
 J. Tomasi, M. Cossi, J. M. Millam, M. Klene, C. Adamo, R. Cammi, 
 J. W. Ochterski, R. L. Martin, K. Morokuma, O. Farkas, 
 J. B. Foresman, and D. J. Fox, Gaussian, Inc., Wallingford CT, 2016.
 
 ******************************************
 Gaussian 16:  ES64L-G16RevB.01 20-Dec-2017
                 9-Dec-2025 
 ******************************************
 %mem=2GB
 %nprocshare=1
 Will use up to    1 processors via shared memory.
 %chk=geometry_chks/123_56ClBzNeutralRadical.chk
 -----------------
 # opt am1 SCF=XQC
 -----------------
 1/18=20,19=15,26=1,38=1/1,3;
 2/9=110,12=2,17=6,18=5,40=1/2;
 3/5=2,25=1,41=700000,71=1/1,2,3;
 4/35=1/1;
 5/5=2,8=3,13=1,35=1,38=5/2,8;
 6/7=2,8=2,9=2,10=2,28=1/1;
 7//1,2,3,16;
 1/18=20,19=15,26=1/3(2);
 2/9=110/2;
 99//99;
 2/9=110/2;
 3/5=2,25=1,41=700000,71=1,135=20/1,2,3;
 4/5=5,16=3,35=1/1;
 5/5=2,8=3,13=1,35=1,38=5/2,8;
 7//1,2,3,16;
 1/18=20,19=15,26=1/3(-5);
 2/9=110/2;
 6/7=2,8=2,9=2,10=2,19=2,28=1/1;
 99/9=1/99;
 ----------------------------------
 Neutral Radical (removed 4) 123_56
 ----------------------------------
 Symbolic Z-matrix:
 Charge =  0 Multiplicity = 2
 C                    -3.20928   0.19943   0. 
 C                    -2.0115    0.93555   0. 
 C                    -0.77511   0.2663    0. 
 C                    -0.7365   -1.13907   0. 
 C                    -1.93429  -1.87519   0. 
 C                    -3.17067  -1.20594   0. 
 Cl                   -4.67483  -2.13035   0. 
 Cl                   -4.76193   1.03987   0. 
 Cl                   -2.05998   2.7004    0. 
 Cl                    0.81614  -1.97951   0. 
 Cl                   -1.8858   -3.64003   0. 
 

 GradGradGradGradGradGradGradGradGradGradGradGradGradGradGradGradGradGrad
 Berny optimization.
 Initialization pass.
                           ----------------------------
                           !    Initial Parameters    !
                           ! (Angstroms and Degrees)  !
 --------------------------                            --------------------------
 ! Name  Definition              Value          Derivative Info.                !
 --------------------------------------------------------------------------------
 ! R1    R(1,2)                  1.4059         estimate D2E/DX2                !
 ! R2    R(1,6)                  1.4059         estimate D2E/DX2                !
 ! R3    R(1,8)                  1.7655         estimate D2E/DX2                !
 ! R4    R(2,3)                  1.4059         estimate D2E/DX2                !
 ! R5    R(2,9)                  1.7655         estimate D2E/DX2                !
 ! R6    R(3,4)                  1.4059         estimate D2E/DX2                !
 ! R7    R(4,5)                  1.4059         estimate D2E/DX2                !
 ! R8    R(4,10)                 1.7655         estimate D2E/DX2                !
 ! R9    R(5,6)                  1.4059         estimate D2E/DX2                !
 ! R10   R(5,11)                 1.7655         estimate D2E/DX2                !
 ! R11   R(6,7)                  1.7655         estimate D2E/DX2                !
 ! A1    A(2,1,6)              119.9999         estimate D2E/DX2                !
 ! A2    A(2,1,8)              119.9999         estimate D2E/DX2                !
 ! A3    A(6,1,8)              120.0001         estimate D2E/DX2                !
 ! A4    A(1,2,3)              120.0            estimate D2E/DX2                !
 ! A5    A(1,2,9)              120.0001         estimate D2E/DX2                !
 ! A6    A(3,2,9)              119.9999         estimate D2E/DX2                !
 ! A7    A(2,3,4)              120.0001         estimate D2E/DX2                !
 ! A8    A(3,4,5)              119.9997         estimate D2E/DX2                !
 ! A9    A(3,4,10)             120.0003         estimate D2E/DX2                !
 ! A10   A(5,4,10)             120.0            estimate D2E/DX2                !
 ! A11   A(4,5,6)              120.0            estimate D2E/DX2                !
 ! A12   A(4,5,11)             119.9996         estimate D2E/DX2                !
 ! A13   A(6,5,11)             120.0004         estimate D2E/DX2                !
 ! A14   A(1,6,5)              120.0003         estimate D2E/DX2                !
 ! A15   A(1,6,7)              119.9999         estimate D2E/DX2                !
 ! A16   A(5,6,7)              119.9998         estimate D2E/DX2                !
 ! D1    D(6,1,2,3)              0.0            estimate D2E/DX2                !
 ! D2    D(6,1,2,9)            180.0            estimate D2E/DX2                !
 ! D3    D(8,1,2,3)            180.0            estimate D2E/DX2                !
 ! D4    D(8,1,2,9)              0.0            estimate D2E/DX2                !
 ! D5    D(2,1,6,5)              0.0            estimate D2E/DX2                !
 ! D6    D(2,1,6,7)            180.0            estimate D2E/DX2                !
 ! D7    D(8,1,6,5)            180.0            estimate D2E/DX2                !
 ! D8    D(8,1,6,7)              0.0            estimate D2E/DX2                !
 ! D9    D(1,2,3,4)              0.0            estimate D2E/DX2                !
 ! D10   D(9,2,3,4)            180.0            estimate D2E/DX2                !
 ! D11   D(2,3,4,5)              0.0            estimate D2E/DX2                !
 ! D12   D(2,3,4,10)           180.0            estimate D2E/DX2                !
 ! D13   D(3,4,5,6)              0.0            estimate D2E/DX2                !
 ! D14   D(3,4,5,11)           180.0            estimate D2E/DX2                !
 ! D15   D(10,4,5,6)           180.0            estimate D2E/DX2                !
 ! D16   D(10,4,5,11)            0.0            estimate D2E/DX2                !
 ! D17   D(4,5,6,1)              0.0            estimate D2E/DX2                !
 ! D18   D(4,5,6,7)            180.0            estimate D2E/DX2                !
 ! D19   D(11,5,6,1)           180.0            estimate D2E/DX2                !
 ! D20   D(11,5,6,7)             0.0            estimate D2E/DX2                !
 --------------------------------------------------------------------------------
 Trust Radius=3.00D-01 FncErr=1.00D-07 GrdErr=1.00D-07 EigMax=2.50D+02 EigMin=1.00D-04
 Number of steps in this run=     57 maximum allowed number of steps=    100.
 GradGradGradGradGradGradGradGradGradGradGradGradGradGradGradGradGradGrad

                          Input orientation:                          
 ---------------------------------------------------------------------
 Center     Atomic      Atomic             Coordinates (Angstroms)
 Number     Number       Type             X           Y           Z
 ---------------------------------------------------------------------
      1          6           0       -3.209280    0.199430    0.000000
      2          6           0       -2.011500    0.935550    0.000000
      3          6           0       -0.775110    0.266300    0.000000
      4          6           0       -0.736500   -1.139070    0.000000
      5          6           0       -1.934290   -1.875190    0.000000
      6          6           0       -3.170670   -1.205940    0.000000
      7         17           0       -4.674830   -2.130350    0.000000
      8         17           0       -4.761930    1.039870    0.000000
      9         17           0       -2.059980    2.700400    0.000000
     10         17           0        0.816140   -1.979510    0.000000
     11         17           0       -1.885800   -3.640030    0.000000
 ---------------------------------------------------------------------
                    Distance matrix (angstroms):
                    1          2          3          4          5
     1  C    0.000000
     2  C    1.405898   0.000000
     3  C    2.435088   1.405900   0.000000
     4  C    2.811801   2.435092   1.405900   0.000000
     5  C    2.435087   2.811800   2.435093   1.405907   0.000000
     6  C    1.405900   2.435088   2.811796   2.435088   1.405892
     7  Cl   2.752401   4.061166   4.577308   4.061167   2.752393
     8  Cl   1.765520   2.752408   4.061175   4.577321   4.061173
     9  Cl   2.752406   1.765516   2.752405   4.061173   4.577316
    10  Cl   4.577312   4.061173   2.752406   1.765511   2.752408
    11  Cl   4.061164   4.577306   4.061163   2.752397   1.765506
                    6          7          8          9         10
     6  C    0.000000
     7  Cl   1.765512   0.000000
     8  Cl   2.752412   3.171416   0.000000
     9  Cl   4.061173   5.493049   3.171418   0.000000
    10  Cl   4.061165   5.493041   6.342832   5.493052   0.000000
    11  Cl   2.752396   3.171407   5.493049   6.342822   3.171404
                   11
    11  Cl   0.000000
 Stoichiometry    C6Cl5(2)
 Framework group  CS[SG(C6Cl5)]
 Deg. of freedom    19
 Full point group                 CS      NOp   2
 Largest Abelian subgroup         CS      NOp   2
 Largest concise Abelian subgroup C1      NOp   1
                         Standard orientation:                         
 ---------------------------------------------------------------------
 Center     Atomic      Atomic             Coordinates (Angstroms)
 Number     Number       Type             X           Y           Z
 ---------------------------------------------------------------------
      1          6           0       -0.385875   -1.183113    0.000000
      2          6           0       -1.603419   -0.480165    0.000000
      3          6           0       -1.603419    0.925735    0.000000
      4          6           0       -0.385875    1.628688    0.000000
      5          6           0        0.831674    0.925731    0.000000
      6          6           0        0.831669   -0.480161    0.000000
      7         17           0        2.360647   -1.362917    0.000000
      8         17           0       -0.385875   -2.948633    0.000000
      9         17           0       -3.132402   -1.362920    0.000000
     10         17           0       -0.385869    3.394199    0.000000
     11         17           0        2.360644    1.808490    0.000000
 ---------------------------------------------------------------------
 Rotational constants (GHZ):           0.6973114           0.4487103           0.2730235
 Standard basis: VSTO-6G (5D, 7F)
 There are    33 symmetry adapted cartesian basis functions of A'  symmetry.
 There are    11 symmetry adapted cartesian basis functions of A"  symmetry.
 There are    33 symmetry adapted basis functions of A'  symmetry.
 There are    11 symmetry adapted basis functions of A"  symmetry.
    44 basis functions,   264 primitive gaussians,    44 cartesian basis functions
    30 alpha electrons       29 beta electrons
       nuclear repulsion energy       349.2652747444 Hartrees.
 Integral buffers will be    131072 words long.
 Regular integral format.
 Two-electron integral symmetry is turned off.
 Do NDO integrals.
 One-electron integrals computed using PRISM.
 NBasis=    44 RedAO= T EigKep=  1.00D+00  NBF=    33    11
 NBsUse=    44 1.00D-06 EigRej= -1.00D+00 NBFU=    33    11
 Simple Huckel Guess.
 Initial guess orbital symmetries:
 Alpha Orbitals:
       Occupied  (A') (A') (A') (A') (A') (A') (A') (A') (A') (A')
                 (A') (A") (A') (A') (A') (A") (A') (A") (A') (A")
                 (A") (A') (A') (A') (A") (A') (A') (A") (A") (A')
       Virtual   (A") (A") (A") (A') (A') (A') (A') (A') (A') (A')
                 (A') (A') (A') (A')
 Beta  Orbitals:
       Occupied  (A') (A') (A') (A') (A') (A') (A') (A') (A') (A')
                 (A') (A") (A') (A') (A') (A") (A') (A") (A') (A")
                 (A") (A') (A') (A') (A") (A') (A') (A") (A")
       Virtual   (A') (A") (A") (A") (A') (A') (A') (A') (A') (A')
                 (A') (A') (A') (A') (A')
 The electronic state of the initial guess is 2-A'.
 Initial guess <Sx>= 0.0000 <Sy>= 0.0000 <Sz>= 0.5000 <S**2>= 0.7500 S= 0.5000
 Keep J ints in memory in canonical form, NReq=865421.
 Overlap will be assumed to be unity.
 Requested convergence on RMS density matrix=1.00D-08 within  32 cycles.
 Requested convergence on MAX density matrix=1.00D-06.
 Requested convergence on             energy=1.00D-06.
 No special actions if energy rises.
 Fock symm off for IB=2 I1=    1 I=   34 J=   28 Cut=1.00D-07 Err=4.16D-03
 Fock matrix is not symmetric: symmetry in diagonalization turned off.
 Rare condition: small coef for last iteration:  0.000D+00
 Rare condition: small coef for last iteration:  0.000D+00
 Rare condition: small coef for last iteration:  0.000D+00
 Rare condition: small coef for last iteration:  0.000D+00
 Rare condition: small coef for last iteration:  0.000D+00
 Rare condition: small coef for last iteration:  0.000D+00
 Rare condition: small coef for last iteration:  0.000D+00
 Rare condition: small coef for last iteration:  0.000D+00
 Rare condition: small coef for last iteration:  0.000D+00
 Rare condition: small coef for last iteration:  0.000D+00
 Rare condition: small coef for last iteration:  0.000D+00
 Rare condition: small coef for last iteration:  0.000D+00
 Rare condition: small coef for last iteration:  0.000D+00
 >>>>>>>>>> Convergence criterion not met.
 SCF Done:  E(UAM1) =  0.109207633457     A.U. after   33 cycles
            NFock= 32  Conv=0.33D-03     -V/T= 1.0007
 <Sx>= 0.0000 <Sy>= 0.0000 <Sz>= 0.5000 <S**2>= 0.8719 S= 0.5592
 <L.S>=  0.00000000000    
 Annihilation of the first spin contaminant:
 S**2 before annihilation     0.8719,   after     0.7590
 Keep J ints in memory in canonical form, NReq=865821.
 LinEq1:  Iter=  0 NonCon=     1 RMS=4.43D-04 Max=5.97D-03 NDo=     1
 AX will form     1 AO Fock derivatives at one time.
 LinEq1:  Iter=  1 NonCon=     1 RMS=1.77D-05 Max=1.68D-04 NDo=     1
 LinEq1:  Iter=  2 NonCon=     1 RMS=3.15D-06 Max=2.37D-05 NDo=     1
 LinEq1:  Iter=  3 NonCon=     1 RMS=6.64D-07 Max=6.24D-06 NDo=     1
 LinEq1:  Iter=  4 NonCon=     1 RMS=1.73D-07 Max=1.81D-06 NDo=     1
 LinEq1:  Iter=  5 NonCon=     1 RMS=3.08D-08 Max=3.42D-07 NDo=     1
 LinEq1:  Iter=  6 NonCon=     1 RMS=4.71D-09 Max=3.21D-08 NDo=     1
 LinEq1:  Iter=  7 NonCon=     0 RMS=9.68D-10 Max=8.12D-09 NDo=     1
 Linear equations converged to 2.924D-09 2.924D-08 after     7 iterations.
 Incorrect curvature in search direction -- initial direction reversed.
     Minimum is close to point  4 DX= -1.26D-03 DF= -1.35D-04 DXR=  5.63D-02 DFR=  1.45D-02 which will be used.
 LinEq1:  Iter=  0 NonCon=     1 RMS=6.64D-04 Max=1.25D-02 NDo=     1
 LinEq1:  Iter=  1 NonCon=     1 RMS=1.42D-04 Max=1.10D-03 NDo=     1
 LinEq1:  Iter=  2 NonCon=     1 RMS=3.82D-05 Max=4.52D-04 NDo=     1
 LinEq1:  Iter=  3 NonCon=     1 RMS=9.57D-06 Max=1.11D-04 NDo=     1
 LinEq1:  Iter=  4 NonCon=     1 RMS=1.48D-06 Max=1.66D-05 NDo=     1
 LinEq1:  Iter=  5 NonCon=     1 RMS=2.97D-07 Max=4.46D-06 NDo=     1
 LinEq1:  Iter=  6 NonCon=     1 RMS=4.86D-08 Max=6.33D-07 NDo=     1
 LinEq1:  Iter=  7 NonCon=     1 RMS=8.14D-09 Max=8.75D-08 NDo=     1
 LinEq1:  Iter=  8 NonCon=     0 RMS=1.17D-09 Max=8.84D-09 NDo=     1
 Linear equations converged to 2.924D-09 2.924D-08 after     8 iterations.
     Minimum is close to point  2 DX=  6.44D-02 DF= -1.66D-06 DXR=  6.05D-02 DFR=  3.67D-03 which will be used.
 LinEq1:  Iter=  0 NonCon=     1 RMS=3.03D-05 Max=4.70D-04 NDo=     1
 LinEq1:  Iter=  1 NonCon=     1 RMS=5.75D-06 Max=9.42D-05 NDo=     1
 LinEq1:  Iter=  2 NonCon=     1 RMS=1.30D-06 Max=1.57D-05 NDo=     1
 LinEq1:  Iter=  3 NonCon=     1 RMS=3.18D-07 Max=4.37D-06 NDo=     1
 LinEq1:  Iter=  4 NonCon=     1 RMS=3.03D-08 Max=2.81D-07 NDo=     1
 LinEq1:  Iter=  5 NonCon=     1 RMS=6.41D-09 Max=6.03D-08 NDo=     1
 LinEq1:  Iter=  6 NonCon=     0 RMS=1.17D-09 Max=1.01D-08 NDo=     1
 Linear equations converged to 2.924D-09 2.924D-08 after     6 iterations.
     Minimum is close to point  2 DX=  1.27D-02 DF= -3.00D-10 DXR=  1.26D-02 DFR=  1.58D-04 which will be used.
 LinEq1:  Iter=  0 NonCon=     1 RMS=3.09D-07 Max=5.19D-06 NDo=     1
 LinEq1:  Iter=  1 NonCon=     1 RMS=7.55D-08 Max=7.67D-07 NDo=     1
 LinEq1:  Iter=  2 NonCon=     1 RMS=1.82D-08 Max=1.75D-07 NDo=     1
 LinEq1:  Iter=  3 NonCon=     1 RMS=3.44D-09 Max=4.68D-08 NDo=     1
 LinEq1:  Iter=  4 NonCon=     1 RMS=4.42D-10 Max=4.87D-09 NDo=     1
 LinEq1:  Iter=  5 NonCon=     1 RMS=9.85D-11 Max=1.93D-09 NDo=     1
 LinEq1:  Iter=  6 NonCon=     0 RMS=2.16D-11 Max=3.00D-10 NDo=     1
 Linear equations converged to 3.793D-11 3.793D-10 after     6 iterations.
 SCF Done:  E(UAM1) =  0.993058694601E-01 a.u. after    5 cycles
            Convg  =    0.2970D-07                    36 Fock formations.
              S**2 =  1.3757                  -V/T =  1.0006
 <Sx>= 0.0000 <Sy>= 0.0000 <Sz>= 0.5000 <S**2>= 1.3757 S= 0.7750
 <L.S>=  0.00000000000    
 Annihilation of the first spin contaminant:
 S**2 before annihilation     1.3757,   after     1.1028

 **********************************************************************

            Population analysis using the SCF Density.

 **********************************************************************

 Orbital symmetries:
 Alpha Orbitals:
       Occupied  (A') (A') (A') (A') (A') (A') (A') (A') (A') (A')
                 (A') (A') (A') (A') (A") (A') (A') (A") (A") (A')
                 (A") (A") (A') (A') (A') (A') (A") (A') (A") (A")
       Virtual   (A") (A") (A') (A') (A') (A') (A') (A") (A') (A')
                 (A') (A') (A') (A')
 Beta  Orbitals:
       Occupied  (A') (A') (A') (A') (A') (A') (A') (A') (A') (A')
                 (A') (A') (A') (A') (A") (A') (A') (A") (A") (A")
                 (A") (A') (A') (A') (A') (A') (A") (A") (A")
       Virtual   (A') (A") (A") (A') (A') (A') (A') (A') (A") (A')
                 (A') (A') (A') (A') (A')
 The electronic state is 2-A'.
 Alpha  occ. eigenvalues --   -1.48502  -1.40983  -1.40204  -1.39312  -1.38988
 Alpha  occ. eigenvalues --   -1.37221  -1.16915  -1.16543  -0.89875  -0.89501
 Alpha  occ. eigenvalues --   -0.70282  -0.67161  -0.64928  -0.60515  -0.59477
 Alpha  occ. eigenvalues --   -0.57377  -0.53303  -0.52482  -0.50659  -0.48962
 Alpha  occ. eigenvalues --   -0.48027  -0.47657  -0.46736  -0.46107  -0.45803
 Alpha  occ. eigenvalues --   -0.44593  -0.44371  -0.44208  -0.39770  -0.38431
 Alpha virt. eigenvalues --   -0.03408  -0.03178  -0.00985  -0.00047   0.00369
 Alpha virt. eigenvalues --    0.02344   0.02764   0.04242   0.10166   0.10310
 Alpha virt. eigenvalues --    0.11907   0.12133   0.13483   0.13849
  Beta  occ. eigenvalues --   -1.48010  -1.40903  -1.40207  -1.39260  -1.38923
  Beta  occ. eigenvalues --   -1.36903  -1.16693  -1.14924  -0.89703  -0.87229
  Beta  occ. eigenvalues --   -0.70151  -0.66668  -0.63686  -0.60373  -0.59320
  Beta  occ. eigenvalues --   -0.56574  -0.52952  -0.52493  -0.51332  -0.48057
  Beta  occ. eigenvalues --   -0.47569  -0.47442  -0.46687  -0.45904  -0.45729
  Beta  occ. eigenvalues --   -0.44561  -0.43901  -0.38604  -0.38593
  Beta virt. eigenvalues --   -0.04959  -0.03477  -0.01599  -0.01337   0.00355
  Beta virt. eigenvalues --    0.00573   0.02305   0.02846   0.05369   0.10590
  Beta virt. eigenvalues --    0.10656   0.12669   0.12771   0.13851   0.15660
          Condensed to atoms (all electrons):
               1          2          3          4          5          6
     1  C    4.031238   0.000000   0.000000   0.000000   0.000000   0.000000
     2  C    0.000000   4.043038   0.000000   0.000000   0.000000   0.000000
     3  C    0.000000   0.000000   3.965428   0.000000   0.000000   0.000000
     4  C    0.000000   0.000000   0.000000   4.043041   0.000000   0.000000
     5  C    0.000000   0.000000   0.000000   0.000000   4.031242   0.000000
     6  C    0.000000   0.000000   0.000000   0.000000   0.000000   4.038168
     7  Cl   0.000000   0.000000   0.000000   0.000000   0.000000   0.000000
     8  Cl   0.000000   0.000000   0.000000   0.000000   0.000000   0.000000
     9  Cl   0.000000   0.000000   0.000000   0.000000   0.000000   0.000000
    10  Cl   0.000000   0.000000   0.000000   0.000000   0.000000   0.000000
    11  Cl   0.000000   0.000000   0.000000   0.000000   0.000000   0.000000
               7          8          9         10         11
     1  C    0.000000   0.000000   0.000000   0.000000   0.000000
     2  C    0.000000   0.000000   0.000000   0.000000   0.000000
     3  C    0.000000   0.000000   0.000000   0.000000   0.000000
     4  C    0.000000   0.000000   0.000000   0.000000   0.000000
     5  C    0.000000   0.000000   0.000000   0.000000   0.000000
     6  C    0.000000   0.000000   0.000000   0.000000   0.000000
     7  Cl   6.968164   0.000000   0.000000   0.000000   0.000000
     8  Cl   0.000000   6.967389   0.000000   0.000000   0.000000
     9  Cl   0.000000   0.000000   6.972456   0.000000   0.000000
    10  Cl   0.000000   0.000000   0.000000   6.972453   0.000000
    11  Cl   0.000000   0.000000   0.000000   0.000000   6.967384
          Atomic-Atomic Spin Densities.
               1          2          3          4          5          6
     1  C    0.515194   0.000000   0.000000   0.000000   0.000000   0.000000
     2  C    0.000000  -0.516473   0.000000   0.000000   0.000000   0.000000
     3  C    0.000000   0.000000   1.462279   0.000000   0.000000   0.000000
     4  C    0.000000   0.000000   0.000000  -0.516482   0.000000   0.000000
     5  C    0.000000   0.000000   0.000000   0.000000   0.515192   0.000000
     6  C    0.000000   0.000000   0.000000   0.000000   0.000000  -0.496300
     7  Cl   0.000000   0.000000   0.000000   0.000000   0.000000   0.000000
     8  Cl   0.000000   0.000000   0.000000   0.000000   0.000000   0.000000
     9  Cl   0.000000   0.000000   0.000000   0.000000   0.000000   0.000000
    10  Cl   0.000000   0.000000   0.000000   0.000000   0.000000   0.000000
    11  Cl   0.000000   0.000000   0.000000   0.000000   0.000000   0.000000
               7          8          9         10         11
     1  C    0.000000   0.000000   0.000000   0.000000   0.000000
     2  C    0.000000   0.000000   0.000000   0.000000   0.000000
     3  C    0.000000   0.000000   0.000000   0.000000   0.000000
     4  C    0.000000   0.000000   0.000000   0.000000   0.000000
     5  C    0.000000   0.000000   0.000000   0.000000   0.000000
     6  C    0.000000   0.000000   0.000000   0.000000   0.000000
     7  Cl   0.006754   0.000000   0.000000   0.000000   0.000000
     8  Cl   0.000000   0.005626   0.000000   0.000000   0.000000
     9  Cl   0.000000   0.000000   0.009291   0.000000   0.000000
    10  Cl   0.000000   0.000000   0.000000   0.009290   0.000000
    11  Cl   0.000000   0.000000   0.000000   0.000000   0.005628
 Mulliken charges and spin densities:
               1          2
     1  C   -0.031238   0.515194
     2  C   -0.043038  -0.516473
     3  C    0.034572   1.462279
     4  C   -0.043041  -0.516482
     5  C   -0.031242   0.515192
     6  C   -0.038168  -0.496300
     7  Cl   0.031836   0.006754
     8  Cl   0.032611   0.005626
     9  Cl   0.027544   0.009291
    10  Cl   0.027547   0.009290
    11  Cl   0.032616   0.005628
 Sum of Mulliken charges =  -0.00000   1.00000
 Mulliken charges and spin densities with hydrogens summed into heavy atoms:
               1          2
     1  C   -0.031238   0.515194
     2  C   -0.043038  -0.516473
     3  C    0.034572   1.462279
     4  C   -0.043041  -0.516482
     5  C   -0.031242   0.515192
     6  C   -0.038168  -0.496300
     7  Cl   0.031836   0.006754
     8  Cl   0.032611   0.005626
     9  Cl   0.027544   0.009291
    10  Cl   0.027547   0.009290
    11  Cl   0.032616   0.005628
 Charge=              0.0000 electrons
 Dipole moment (field-independent basis, Debye):
    X=              0.1402    Y=             -0.0809    Z=              0.0000  Tot=              0.1619
 N-N= 3.492652747444D+02 E-N=-4.977810252328D+02  KE=-1.553284971691D+02
 Symmetry A'   KE=-1.181614557830D+02
 Symmetry A"   KE=-3.716704138618D+01
 Symmetry A'   SP= 1.000000000000D+00
 Symmetry A"   SP=-5.551115123126D-17
 Calling FoFJK, ICntrl=      2127 FMM=F ISym2X=1 I1Cent= 0 IOpClX= 1 NMat=1 NMatS=1 NMatT=0.
 ***** Axes restored to original set *****
 -------------------------------------------------------------------
 Center     Atomic                   Forces (Hartrees/Bohr)
 Number     Number              X              Y              Z
 -------------------------------------------------------------------
      1        6          -0.030973952    0.015998374    0.000000000
      2        6           0.024504939    0.043338294    0.000000000
      3        6          -0.052043029   -0.031986021   -0.000000000
      4        6           0.049728296    0.002286664    0.000000000
      5        6           0.000292825   -0.034855631    0.000000000
      6        6          -0.030644769   -0.018826605    0.000000000
      7       17           0.035545350    0.021845584   -0.000000000
      8       17           0.036898967   -0.019723251   -0.000000000
      9       17           0.003572480   -0.042107160    0.000000000
     10       17          -0.035951802    0.022206928    0.000000000
     11       17          -0.000929303    0.041822824   -0.000000000
 -------------------------------------------------------------------
 Cartesian Forces:  Max     0.052043029 RMS     0.025361030

 GradGradGradGradGradGradGradGradGradGradGradGradGradGradGradGradGradGrad
 Berny optimization.
 FormGI is forming the generalized inverse of G from B-inverse, IUseBI=4.
 Internal  Forces:  Max     0.042189380 RMS     0.016258086
 Search for a local minimum.
 Step number   1 out of a maximum of   57
 All quantities printed in internal units (Hartrees-Bohrs-Radians)
 Mixed Optimization -- RFO/linear search
 Second derivative matrix not updated -- first step.
 ITU=  0
     Eigenvalues ---    0.02011   0.02011   0.02011   0.02011   0.02011
     Eigenvalues ---    0.02011   0.02011   0.02011   0.25000   0.25000
     Eigenvalues ---    0.25000   0.25000   0.25000   0.25000   0.25000
     Eigenvalues ---    0.25000   0.29033   0.29033   0.29033   0.29033
     Eigenvalues ---    0.29034   0.41211   0.41600   0.44656   0.44657
     Eigenvalues ---    0.44657   0.44657
 RFO step:  Lambda=-3.63554259D-02 EMin= 2.01064753D-02
 Linear search not attempted -- first point.
 Maximum step size (   0.300) exceeded in Quadratic search.
    -- Step size scaled by   0.911
 Iteration  1 RMS(Cart)=  0.04878282 RMS(Int)=  0.00080774
 Iteration  2 RMS(Cart)=  0.00111031 RMS(Int)=  0.00022982
 Iteration  3 RMS(Cart)=  0.00000041 RMS(Int)=  0.00022982
 ClnCor:  largest displacement from symmetrization is 5.11D-09 for atom     2.
 Variable       Old X    -DE/DX   Delta X   Delta X   Delta X     New X
                                 (Linear)    (Quad)   (Total)
    R1        2.65676  -0.00598   0.00000  -0.01128  -0.01128   2.64549
    R2        2.65677  -0.00131   0.00000  -0.00046  -0.00078   2.65599
    R3        3.33635  -0.04184   0.00000  -0.11668  -0.11668   3.21967
    R4        2.65677  -0.03266   0.00000  -0.06362  -0.06330   2.59347
    R5        3.33634  -0.04219   0.00000  -0.11765  -0.11765   3.21869
    R6        2.65677  -0.03267   0.00000  -0.06362  -0.06330   2.59347
    R7        2.65678  -0.00598   0.00000  -0.01128  -0.01128   2.64549
    R8        3.33633  -0.04219   0.00000  -0.11765  -0.11765   3.21868
    R9        2.65675  -0.00130   0.00000  -0.00045  -0.00077   2.65598
   R10        3.33632  -0.04183   0.00000  -0.11666  -0.11666   3.21967
   R11        3.33633  -0.04172   0.00000  -0.11635  -0.11635   3.21999
    A1        2.09439  -0.00343   0.00000  -0.00695  -0.00731   2.08708
    A2        2.09439   0.00135   0.00000   0.00231   0.00249   2.09688
    A3        2.09440   0.00208   0.00000   0.00464   0.00482   2.09922
    A4        2.09439  -0.01189   0.00000  -0.04076  -0.04048   2.05391
    A5        2.09440   0.00998   0.00000   0.03320   0.03306   2.12745
    A6        2.09439   0.00192   0.00000   0.00756   0.00742   2.10182
    A7        2.09440   0.02978   0.00000   0.08520   0.08606   2.18046
    A8        2.09439  -0.01189   0.00000  -0.04076  -0.04048   2.05391
    A9        2.09440   0.00192   0.00000   0.00756   0.00742   2.10182
   A10        2.09440   0.00998   0.00000   0.03320   0.03306   2.12745
   A11        2.09439  -0.00343   0.00000  -0.00695  -0.00731   2.08708
   A12        2.09439   0.00135   0.00000   0.00231   0.00249   2.09688
   A13        2.09440   0.00208   0.00000   0.00464   0.00482   2.09923
   A14        2.09440   0.00088   0.00000   0.01021   0.00953   2.10393
   A15        2.09439  -0.00044   0.00000  -0.00511  -0.00477   2.08963
   A16        2.09439  -0.00044   0.00000  -0.00510  -0.00476   2.08963
    D1        0.00000   0.00000   0.00000   0.00000   0.00000   0.00000
    D2        3.14159   0.00000   0.00000   0.00000   0.00000   3.14159
    D3        3.14159   0.00000   0.00000   0.00000   0.00000   3.14159
    D4        0.00000   0.00000   0.00000   0.00000   0.00000   0.00000
    D5        0.00000  -0.00000   0.00000  -0.00000   0.00000   0.00000
    D6        3.14159  -0.00000   0.00000  -0.00000   0.00000   3.14159
    D7        3.14159  -0.00000   0.00000  -0.00000   0.00000   3.14159
    D8        0.00000  -0.00000   0.00000  -0.00000   0.00000   0.00000
    D9        0.00000  -0.00000   0.00000  -0.00000   0.00000   0.00000
   D10        3.14159  -0.00000   0.00000  -0.00000   0.00000   3.14159
   D11        0.00000   0.00000   0.00000   0.00000   0.00000   0.00000
   D12        3.14159   0.00000   0.00000   0.00000   0.00000   3.14159
   D13        0.00000  -0.00000   0.00000   0.00000   0.00000   0.00000
   D14        3.14159  -0.00000   0.00000  -0.00000   0.00000   3.14159
   D15        3.14159  -0.00000   0.00000  -0.00000   0.00000   3.14159
   D16        0.00000  -0.00000   0.00000  -0.00000   0.00000   0.00000
   D17        0.00000  -0.00000   0.00000  -0.00000   0.00000   0.00000
   D18        3.14159   0.00000   0.00000  -0.00000   0.00000   3.14159
   D19        3.14159  -0.00000   0.00000  -0.00000   0.00000   3.14159
   D20        0.00000   0.00000   0.00000   0.00000   0.00000   0.00000
         Item               Value     Threshold  Converged?
 Maximum Force            0.042189     0.000450     NO 
 RMS     Force            0.016258     0.000300     NO 
 Maximum Displacement     0.145698     0.001800     NO 
 RMS     Displacement     0.049179     0.001200     NO 
 Predicted change in Energy=-1.967681D-02
 GradGradGradGradGradGradGradGradGradGradGradGradGradGradGradGradGradGrad

                          Input orientation:                          
 ---------------------------------------------------------------------
 Center     Atomic      Atomic             Coordinates (Angstroms)
 Number     Number       Type             X           Y           Z
 ---------------------------------------------------------------------
      1          6           0       -3.216945    0.198216    0.000000
      2          6           0       -2.022384    0.928169    0.000000
      3          6           0       -0.844671    0.223549    0.000000
      4          6           0       -0.748003   -1.145446    0.000000
      5          6           0       -1.938832   -1.881479    0.000000
      6          6           0       -3.171655   -1.206542    0.000000
      7         17           0       -4.623362   -2.098711    0.000000
      8         17           0       -4.715249    1.009353    0.000000
      9         17           0       -2.008514    2.631369    0.000000
     10         17           0        0.777802   -1.902410    0.000000
     11         17           0       -1.891936   -3.584608    0.000000
 ---------------------------------------------------------------------
                    Distance matrix (angstroms):
                    1          2          3          4          5
     1  C    0.000000
     2  C    1.399931   0.000000
     3  C    2.372409   1.372405   0.000000
     4  C    2.810890   2.433911   1.372404   0.000000
     5  C    2.441045   2.810889   2.372410   1.399936   0.000000
     6  C    1.405487   2.424420   2.731302   2.424422   1.405486
     7  Cl   2.693303   3.990876   4.435245   3.990880   2.693305
     8  Cl   1.703777   2.694088   3.949539   4.514665   4.008166
     9  Cl   2.716715   1.703256   2.674346   3.981610   4.513385
    10  Cl   4.513384   3.981610   2.674345   1.703254   2.716715
    11  Cl   4.008167   4.514662   3.949535   2.694086   1.703775
                    6          7          8          9         10
     6  C    0.000000
     7  Cl   1.703943   0.000000
     8  Cl   2.700532   3.109423   0.000000
     9  Cl   4.010293   5.404728   3.155526   0.000000
    10  Cl   4.010292   5.404730   6.217071   5.321532   0.000000
    11  Cl   2.700533   3.109433   5.392177   6.217070   3.155518
                   11
    11  Cl   0.000000
 Stoichiometry    C6Cl5(2)
 Framework group  CS[SG(C6Cl5)]
 Deg. of freedom    19
 Full point group                 CS      NOp   2
 Largest Abelian subgroup         CS      NOp   2
 Largest concise Abelian subgroup C1      NOp   1
                         Standard orientation:                         
 ---------------------------------------------------------------------
 Center     Atomic      Atomic             Coordinates (Angstroms)
 Number     Number       Type             X           Y           Z
 ---------------------------------------------------------------------
      1          6           0       -1.220523   -0.275765   -0.000000
      2          6           0       -1.216955    1.124162   -0.000000
      3          6           0        0.000001    1.758602    0.000000
      4          6           0        1.216956    1.124164    0.000000
      5          6           0        1.220523   -0.275767    0.000000
      6          6           0       -0.000000   -0.972700   -0.000000
      7         17           0       -0.000004   -2.676643   -0.000000
      8         17           0       -2.696088   -1.127565   -0.000000
      9         17           0       -2.660765    2.027763   -0.000000
     10         17           0        2.660767    2.027760    0.000000
     11         17           0        2.696089   -1.127561    0.000000
 ---------------------------------------------------------------------
 Rotational constants (GHZ):           0.7141762           0.4702067           0.2835320
 Standard basis: VSTO-6G (5D, 7F)
 There are    33 symmetry adapted cartesian basis functions of A'  symmetry.
 There are    11 symmetry adapted cartesian basis functions of A"  symmetry.
 There are    33 symmetry adapted basis functions of A'  symmetry.
 There are    11 symmetry adapted basis functions of A"  symmetry.
    44 basis functions,   264 primitive gaussians,    44 cartesian basis functions
    30 alpha electrons       29 beta electrons
       nuclear repulsion energy       353.4827837535 Hartrees.
 Integral buffers will be    131072 words long.
 Regular integral format.
 Two-electron integral symmetry is turned off.
 Do NDO integrals.
 One-electron integrals computed using PRISM.
 NBasis=    44 RedAO= T EigKep=  1.00D+00  NBF=    33    11
 NBsUse=    44 1.00D-06 EigRej= -1.00D+00 NBFU=    33    11
 Initial guess from the checkpoint file:  "geometry_chks/123_56ClBzNeutralRadical.chk"
 B after Tr=     0.000000    0.000000    0.000000
         Rot=    0.866025    0.000000    0.000000    0.500000 Ang=  60.00 deg.
 Initial guess orbital symmetries:
 Alpha Orbitals:
       Occupied  (A') (A') (A') (A') (A') (A') (A') (A') (A') (A')
                 (A') (A') (A') (A') (A") (A') (A') (A") (A") (A')
                 (A") (A") (A') (A') (A') (A') (A") (A') (A") (A")
       Virtual   (A") (A") (A') (A') (A') (A') (A') (A") (A') (A')
                 (A') (A') (A') (A')
 Beta  Orbitals:
       Occupied  (A') (A') (A') (A') (A') (A') (A') (A') (A') (A')
                 (A') (A') (A') (A') (A") (A') (A') (A") (A") (A")
                 (A") (A') (A') (A') (A') (A') (A") (A") (A")
       Virtual   (A') (A") (A") (A') (A') (A') (A') (A') (A") (A')
                 (A') (A') (A') (A') (A')
 Initial guess <Sx>= 0.0000 <Sy>= 0.0000 <Sz>= 0.5000 <S**2>= 1.3757 S= 0.7750
 Keep J ints in memory in canonical form, NReq=865421.
 Overlap will be assumed to be unity.
 Requested convergence on RMS density matrix=1.00D-08 within  32 cycles.
 Requested convergence on MAX density matrix=1.00D-06.
 Requested convergence on             energy=1.00D-06.
 No special actions if energy rises.
 Fock symm off for IB=2 I1=    1 I=   34 J=   20 Cut=1.00D-07 Err=3.50D-03
 Fock matrix is not symmetric: symmetry in diagonalization turned off.
 SCF Done:  E(UAM1) =  0.787720751970E-01 A.U. after   16 cycles
            NFock= 15  Conv=0.57D-08     -V/T= 1.0005
 <Sx>= 0.0000 <Sy>= 0.0000 <Sz>= 0.5000 <S**2>= 1.3294 S= 0.7568
 <L.S>=  0.00000000000    
 Annihilation of the first spin contaminant:
 S**2 before annihilation     1.3294,   after     1.0493
 QCSCF skips out because SCF is already converged.
 Calling FoFJK, ICntrl=      2127 FMM=F ISym2X=1 I1Cent= 0 IOpClX= 1 NMat=1 NMatS=1 NMatT=0.
 ***** Axes restored to original set *****
 -------------------------------------------------------------------
 Center     Atomic                   Forces (Hartrees/Bohr)
 Number     Number              X              Y              Z
 -------------------------------------------------------------------
      1        6          -0.023006914    0.004362373    0.000000000
      2        6           0.011191477    0.034440878    0.000000000
      3        6          -0.010003308   -0.006146971    0.000000000
      4        6           0.035778842   -0.005574068    0.000000000
      5        6          -0.006497147   -0.022494138    0.000000000
      6        6          -0.014681048   -0.009022279   -0.000000000
      7       17           0.007118140    0.004374141   -0.000000000
      8       17           0.008585719   -0.004157961   -0.000000000
      9       17           0.000499190   -0.010512728   -0.000000000
     10       17          -0.009152776    0.005193780   -0.000000000
     11       17           0.000167827    0.009536972   -0.000000000
 -------------------------------------------------------------------
 Cartesian Forces:  Max     0.035778842 RMS     0.011841445

 GradGradGradGradGradGradGradGradGradGradGradGradGradGradGradGradGradGrad
 Berny optimization.
 Using GEDIIS/GDIIS optimizer.
 FormGI is forming the generalized inverse of G from B-inverse, IUseBI=4.
 Internal  Forces:  Max     0.016606331 RMS     0.006243116
 Search for a local minimum.
 Step number   2 out of a maximum of   57
 All quantities printed in internal units (Hartrees-Bohrs-Radians)
 Mixed Optimization -- RFO/linear search
 Update second derivatives using D2CorX and points    1    2
 DE= -2.05D-02 DEPred=-1.97D-02 R= 1.04D+00
 TightC=F SS=  1.41D+00  RLast= 3.00D-01 DXNew= 5.0454D-01 8.9996D-01
 Trust test= 1.04D+00 RLast= 3.00D-01 DXMaxT set to 5.05D-01
 ITU=  1  0
 Use linear search instead of GDIIS.
     Eigenvalues ---    0.02011   0.02011   0.02011   0.02011   0.02011
     Eigenvalues ---    0.02011   0.02011   0.02011   0.19637   0.25000
     Eigenvalues ---    0.25000   0.25000   0.25000   0.25000   0.25000
     Eigenvalues ---    0.25015   0.27651   0.29033   0.29033   0.29034
     Eigenvalues ---    0.29073   0.40792   0.41294   0.44491   0.44656
     Eigenvalues ---    0.44657   0.59406
 RFO step:  Lambda=-5.22388413D-03 EMin= 2.01064675D-02
 Quartic linear search produced a step of  0.22304.
 Iteration  1 RMS(Cart)=  0.02149628 RMS(Int)=  0.00042097
 Iteration  2 RMS(Cart)=  0.00047550 RMS(Int)=  0.00016013
 Iteration  3 RMS(Cart)=  0.00000014 RMS(Int)=  0.00016013
 ClnCor:  largest displacement from symmetrization is 2.55D-11 for atom     8.
 Variable       Old X    -DE/DX   Delta X   Delta X   Delta X     New X
                                 (Linear)    (Quad)   (Total)
    R1        2.64549   0.01661  -0.00251   0.04626   0.04375   2.68924
    R2        2.65599   0.01281  -0.00017   0.03524   0.03485   2.69083
    R3        3.21967  -0.00953  -0.02602  -0.02186  -0.04788   3.17179
    R4        2.59347   0.00596  -0.01412   0.02358   0.00969   2.60316
    R5        3.21869  -0.01051  -0.02624  -0.02575  -0.05199   3.16670
    R6        2.59347   0.00596  -0.01412   0.02358   0.00969   2.60316
    R7        2.64549   0.01660  -0.00252   0.04626   0.04374   2.68924
    R8        3.21868  -0.01051  -0.02624  -0.02575  -0.05199   3.16670
    R9        2.65598   0.01281  -0.00017   0.03524   0.03485   2.69083
   R10        3.21967  -0.00953  -0.02602  -0.02186  -0.04787   3.17179
   R11        3.21999  -0.00835  -0.02595  -0.01706  -0.04301   3.17698
    A1        2.08708  -0.00084  -0.00163  -0.00158  -0.00346   2.08362
    A2        2.09688  -0.00027   0.00056  -0.00234  -0.00166   2.09523
    A3        2.09922   0.00111   0.00108   0.00392   0.00512   2.10434
    A4        2.05391  -0.00774  -0.00903  -0.03144  -0.04027   2.01365
    A5        2.12745   0.00481   0.00737   0.01817   0.02544   2.15290
    A6        2.10182   0.00293   0.00166   0.01327   0.01483   2.11664
    A7        2.18046   0.01456   0.01919   0.05279   0.07257   2.25302
    A8        2.05391  -0.00774  -0.00903  -0.03144  -0.04027   2.01365
    A9        2.10182   0.00293   0.00166   0.01327   0.01482   2.11664
   A10        2.12745   0.00481   0.00737   0.01817   0.02544   2.15289
   A11        2.08708  -0.00084  -0.00163  -0.00158  -0.00346   2.08362
   A12        2.09688  -0.00027   0.00056  -0.00233  -0.00165   2.09523
   A13        2.09923   0.00111   0.00108   0.00391   0.00511   2.10434
   A14        2.10393   0.00260   0.00212   0.01324   0.01489   2.11882
   A15        2.08963  -0.00130  -0.00106  -0.00662  -0.00744   2.08218
   A16        2.08963  -0.00130  -0.00106  -0.00663  -0.00745   2.08218
    D1       -0.00000  -0.00000   0.00000  -0.00000   0.00000   0.00000
    D2        3.14159  -0.00000   0.00000  -0.00000   0.00000   3.14159
    D3        3.14159   0.00000   0.00000   0.00000   0.00000   3.14159
    D4       -0.00000  -0.00000   0.00000  -0.00000   0.00000   0.00000
    D5        0.00000   0.00000   0.00000   0.00000  -0.00000   0.00000
    D6        3.14159   0.00000   0.00000   0.00000   0.00000   3.14159
    D7        3.14159  -0.00000   0.00000  -0.00000   0.00000   3.14159
    D8       -0.00000  -0.00000   0.00000  -0.00000   0.00000   0.00000
    D9        0.00000  -0.00000   0.00000  -0.00000   0.00000   0.00000
   D10        3.14159   0.00000   0.00000   0.00000   0.00000   3.14159
   D11        0.00000   0.00000   0.00000   0.00000  -0.00000   0.00000
   D12        3.14159  -0.00000   0.00000  -0.00000   0.00000   3.14159
   D13       -0.00000  -0.00000   0.00000   0.00000   0.00000   0.00000
   D14        3.14159  -0.00000   0.00000  -0.00000   0.00000   3.14159
   D15        3.14159   0.00000   0.00000   0.00000   0.00000   3.14159
   D16       -0.00000   0.00000   0.00000   0.00000   0.00000   0.00000
   D17        0.00000  -0.00000   0.00000  -0.00000   0.00000   0.00000
   D18        3.14159  -0.00000   0.00000  -0.00000   0.00000   3.14159
   D19        3.14159   0.00000   0.00000   0.00000   0.00000   3.14159
   D20       -0.00000   0.00000   0.00000   0.00000   0.00000   0.00000
         Item               Value     Threshold  Converged?
 Maximum Force            0.016606     0.000450     NO 
 RMS     Force            0.006243     0.000300     NO 
 Maximum Displacement     0.056824     0.001800     NO 
 RMS     Displacement     0.021472     0.001200     NO 
 Predicted change in Energy=-3.710406D-03
 GradGradGradGradGradGradGradGradGradGradGradGradGradGradGradGradGradGrad

                          Input orientation:                          
 ---------------------------------------------------------------------
 Center     Atomic      Atomic             Coordinates (Angstroms)
 Number     Number       Type             X           Y           Z
 ---------------------------------------------------------------------
      1          6           0       -3.239393    0.209346    0.000000
      2          6           0       -2.028042    0.956200    0.000000
      3          6           0       -0.872364    0.206531   -0.000000
      4          6           0       -0.725552   -1.163155   -0.000000
      5          6           0       -1.939041   -1.906532   -0.000000
      6          6           0       -3.182912   -1.213460    0.000000
      7         17           0       -4.615227   -2.093718    0.000000
      8         17           0       -4.717268    1.004986    0.000000
      9         17           0       -1.978444    2.631210    0.000000
     10         17           0        0.791244   -1.875510   -0.000000
     11         17           0       -1.896752   -3.584440   -0.000000
 ---------------------------------------------------------------------
                    Distance matrix (angstroms):
                    1          2          3          4          5
     1  C    0.000000
     2  C    1.423082   0.000000
     3  C    2.367031   1.377532   0.000000
     4  C    2.864115   2.487598   1.377532   0.000000
     5  C    2.483516   2.864115   2.367031   1.423083   0.000000
     6  C    1.423927   2.457875   2.712012   2.457875   1.423925
     7  Cl   2.682727   3.999441   4.393196   3.999440   2.682724
     8  Cl   1.678439   2.689669   3.926935   4.542536   4.024361
     9  Cl   2.730461   1.675744   2.665048   3.995866   4.537913
    10  Cl   4.537914   3.995867   2.665049   1.675745   2.730461
    11  Cl   4.024363   4.542537   3.926937   2.689671   1.678441
                    6          7          8          9         10
     6  C    0.000000
     7  Cl   1.681184   0.000000
     8  Cl   2.697360   3.100384   0.000000
     9  Cl   4.028924   5.410875   3.185241   0.000000
    10  Cl   4.028924   5.410873   6.216186   5.289773   0.000000
    11  Cl   2.697360   3.100380   5.386849   6.216186   3.185241
                   11
    11  Cl   0.000000
 Stoichiometry    C6Cl5(2)
 Framework group  CS[SG(C6Cl5)]
 Deg. of freedom    19
 Full point group                 CS      NOp   2
 Largest Abelian subgroup         CS      NOp   2
 Largest concise Abelian subgroup C1      NOp   1
                         Standard orientation:                         
 ---------------------------------------------------------------------
 Center     Atomic      Atomic             Coordinates (Angstroms)
 Number     Number       Type             X           Y           Z
 ---------------------------------------------------------------------
      1          6           0       -0.293844    1.241759    0.000000
      2          6           0        1.129237    1.243800    0.000000
      3          6           0        1.721317    0.000001    0.000000
      4          6           0        1.129238   -1.243798    0.000000
      5          6           0       -0.293843   -1.241757    0.000000
      6          6           0       -0.990695   -0.000000    0.000000
      7         17           0       -2.671879   -0.000002    0.000000
      8         17           0       -1.136355    2.693425    0.000000
      9         17           0        2.048516    2.644887    0.000000
     10         17           0        2.048516   -2.644886    0.000000
     11         17           0       -1.136355   -2.693425    0.000000
 ---------------------------------------------------------------------
 Rotational constants (GHZ):           0.7083635           0.4719880           0.2832538
 Standard basis: VSTO-6G (5D, 7F)
 There are    33 symmetry adapted cartesian basis functions of A'  symmetry.
 There are    11 symmetry adapted cartesian basis functions of A"  symmetry.
 There are    33 symmetry adapted basis functions of A'  symmetry.
 There are    11 symmetry adapted basis functions of A"  symmetry.
    44 basis functions,   264 primitive gaussians,    44 cartesian basis functions
    30 alpha electrons       29 beta electrons
       nuclear repulsion energy       353.3624755117 Hartrees.
 Integral buffers will be    131072 words long.
 Regular integral format.
 Two-electron integral symmetry is turned off.
 Do NDO integrals.
 One-electron integrals computed using PRISM.
 NBasis=    44 RedAO= T EigKep=  1.00D+00  NBF=    33    11
 NBsUse=    44 1.00D-06 EigRej= -1.00D+00 NBFU=    33    11
 Initial guess from the checkpoint file:  "geometry_chks/123_56ClBzNeutralRadical.chk"
 B after Tr=    -0.000000    0.000000   -0.000000
         Rot=    0.707107   -0.000000    0.000000    0.707107 Ang=  90.00 deg.
 Initial guess orbital symmetries:
 Alpha Orbitals:
       Occupied  (A') (A') (A') (A') (A') (A') (A') (A') (A') (A')
                 (A') (A') (A') (A') (A") (A') (A') (A") (A") (A')
                 (A") (A") (A') (A') (A') (A') (A") (A') (A") (A")
       Virtual   (A") (A") (A') (A') (A') (A') (A') (A") (A') (A')
                 (A') (A') (A') (A')
 Beta  Orbitals:
       Occupied  (A') (A') (A') (A') (A') (A') (A') (A') (A') (A')
                 (A') (A') (A') (A') (A") (A') (A') (A") (A") (A")
                 (A") (A') (A') (A') (A') (A') (A") (A") (A")
       Virtual   (A') (A") (A") (A') (A') (A') (A') (A') (A") (A')
                 (A') (A') (A') (A') (A')
 Initial guess <Sx>= 0.0000 <Sy>= 0.0000 <Sz>= 0.5000 <S**2>= 1.3294 S= 0.7568
 Keep J ints in memory in canonical form, NReq=865421.
 Overlap will be assumed to be unity.
 Requested convergence on RMS density matrix=1.00D-08 within  32 cycles.
 Requested convergence on MAX density matrix=1.00D-06.
 Requested convergence on             energy=1.00D-06.
 No special actions if energy rises.
 Fock symm off for IB=2 I1=    1 I=   34 J=   24 Cut=1.00D-07 Err=1.60D-03
 Fock matrix is not symmetric: symmetry in diagonalization turned off.
 SCF Done:  E(UAM1) =  0.759775080596E-01 A.U. after   16 cycles
            NFock= 15  Conv=0.70D-08     -V/T= 1.0005
 <Sx>= 0.0000 <Sy>= 0.0000 <Sz>= 0.5000 <S**2>= 1.4545 S= 0.8056
 <L.S>=  0.00000000000    
 Annihilation of the first spin contaminant:
 S**2 before annihilation     1.4545,   after     1.2160
 QCSCF skips out because SCF is already converged.
 Calling FoFJK, ICntrl=      2127 FMM=F ISym2X=1 I1Cent= 0 IOpClX= 1 NMat=1 NMatS=1 NMatT=0.
 ***** Axes restored to original set *****
 -------------------------------------------------------------------
 Center     Atomic                   Forces (Hartrees/Bohr)
 Number     Number              X              Y              Z
 -------------------------------------------------------------------
      1        6           0.005656767   -0.006918000    0.000000000
      2        6           0.002411313   -0.004181693   -0.000000000
      3        6          -0.006794525   -0.004175503    0.000000000
      4        6          -0.002641744    0.004039329    0.000000000
      5        6          -0.003615629    0.008170784    0.000000000
      6        6           0.010658566    0.006551180    0.000000000
      7       17          -0.003552650   -0.002183047   -0.000000000
      8       17          -0.002117325    0.001709940   -0.000000000
      9       17          -0.000909955    0.000837407   -0.000000000
     10       17           0.000335837   -0.001189874   -0.000000000
     11       17           0.000569346   -0.002660525   -0.000000000
 -------------------------------------------------------------------
 Cartesian Forces:  Max     0.010658566 RMS     0.003740305

 GradGradGradGradGradGradGradGradGradGradGradGradGradGradGradGradGradGrad
 Berny optimization.
 Using GEDIIS/GDIIS optimizer.
 FormGI is forming the generalized inverse of G from B-inverse, IUseBI=4.
 Internal  Forces:  Max     0.007111599 RMS     0.002316336
 Search for a local minimum.
 Step number   3 out of a maximum of   57
 All quantities printed in internal units (Hartrees-Bohrs-Radians)
 Mixed Optimization -- RFO/linear search
 Update second derivatives using D2CorX and points    1    2    3
 DE= -2.79D-03 DEPred=-3.71D-03 R= 7.53D-01
 TightC=F SS=  1.41D+00  RLast= 1.70D-01 DXNew= 8.4853D-01 5.1036D-01
 Trust test= 7.53D-01 RLast= 1.70D-01 DXMaxT set to 5.10D-01
 ITU=  1  1  0
 Use linear search instead of GDIIS.
     Eigenvalues ---    0.02011   0.02011   0.02011   0.02011   0.02011
     Eigenvalues ---    0.02011   0.02011   0.02011   0.19110   0.25000
     Eigenvalues ---    0.25000   0.25000   0.25000   0.25000   0.25000
     Eigenvalues ---    0.25167   0.28710   0.29033   0.29033   0.29034
     Eigenvalues ---    0.32603   0.41295   0.41467   0.44623   0.44656
     Eigenvalues ---    0.44657   0.62613
 RFO step:  Lambda=-3.10521648D-04 EMin= 2.01064628D-02
 Quartic linear search produced a step of -0.15705.
 Iteration  1 RMS(Cart)=  0.00467924 RMS(Int)=  0.00001934
 Iteration  2 RMS(Cart)=  0.00001296 RMS(Int)=  0.00001720
 Iteration  3 RMS(Cart)=  0.00000000 RMS(Int)=  0.00001720
 ClnCor:  largest displacement from symmetrization is 1.28D-11 for atom    11.
 Variable       Old X    -DE/DX   Delta X   Delta X   Delta X     New X
                                 (Linear)    (Quad)   (Total)
    R1        2.68924  -0.00446  -0.00687  -0.00005  -0.00692   2.68232
    R2        2.69083  -0.00711  -0.00547  -0.00714  -0.01259   2.67824
    R3        3.17179   0.00267   0.00752   0.00077   0.00829   3.18008
    R4        2.60316  -0.00543  -0.00152  -0.00732  -0.00887   2.59429
    R5        3.16670   0.00081   0.00817  -0.00551   0.00265   3.16935
    R6        2.60316  -0.00543  -0.00152  -0.00732  -0.00887   2.59429
    R7        2.68924  -0.00446  -0.00687  -0.00005  -0.00692   2.68232
    R8        3.16670   0.00081   0.00816  -0.00551   0.00265   3.16935
    R9        2.69083  -0.00711  -0.00547  -0.00714  -0.01258   2.67824
   R10        3.17179   0.00267   0.00752   0.00077   0.00829   3.18008
   R11        3.17698   0.00417   0.00675   0.00611   0.01286   3.18984
    A1        2.08362   0.00007   0.00054  -0.00055   0.00002   2.08364
    A2        2.09523  -0.00083   0.00026  -0.00308  -0.00284   2.09239
    A3        2.10434   0.00076  -0.00080   0.00363   0.00281   2.10715
    A4        2.01365  -0.00125   0.00632  -0.01111  -0.00481   2.00883
    A5        2.15290  -0.00085  -0.00400   0.00128  -0.00270   2.15019
    A6        2.11664   0.00211  -0.00233   0.00983   0.00752   2.12416
    A7        2.25302   0.00141  -0.01140   0.01781   0.00635   2.25937
    A8        2.01365  -0.00125   0.00632  -0.01111  -0.00481   2.00883
    A9        2.11664   0.00211  -0.00233   0.00983   0.00752   2.12416
   A10        2.15289  -0.00085  -0.00400   0.00128  -0.00270   2.15019
   A11        2.08362   0.00007   0.00054  -0.00055   0.00002   2.08364
   A12        2.09523  -0.00083   0.00026  -0.00308  -0.00284   2.09239
   A13        2.10434   0.00076  -0.00080   0.00363   0.00281   2.10716
   A14        2.11882   0.00096  -0.00234   0.00552   0.00323   2.12205
   A15        2.08218  -0.00048   0.00117  -0.00276  -0.00162   2.08057
   A16        2.08218  -0.00048   0.00117  -0.00276  -0.00161   2.08057
    D1        0.00000  -0.00000   0.00000  -0.00000   0.00000   0.00000
    D2        3.14159  -0.00000   0.00000  -0.00000   0.00000   3.14159
    D3        3.14159   0.00000   0.00000   0.00000   0.00000   3.14159
    D4        0.00000  -0.00000   0.00000  -0.00000   0.00000   0.00000
    D5        0.00000   0.00000   0.00000   0.00000   0.00000   0.00000
    D6        3.14159   0.00000   0.00000   0.00000   0.00000   3.14159
    D7        3.14159  -0.00000   0.00000  -0.00000   0.00000   3.14159
    D8        0.00000  -0.00000   0.00000  -0.00000   0.00000   0.00000
    D9        0.00000   0.00000   0.00000   0.00000   0.00000   0.00000
   D10        3.14159   0.00000   0.00000   0.00000   0.00000   3.14159
   D11        0.00000   0.00000   0.00000   0.00000   0.00000   0.00000
   D12        3.14159  -0.00000   0.00000  -0.00000   0.00000   3.14159
   D13        0.00000  -0.00000   0.00000  -0.00000   0.00000   0.00000
   D14        3.14159  -0.00000   0.00000  -0.00000   0.00000   3.14159
   D15        3.14159   0.00000   0.00000   0.00000   0.00000   3.14159
   D16        0.00000   0.00000   0.00000   0.00000   0.00000   0.00000
   D17        0.00000   0.00000   0.00000   0.00000   0.00000   0.00000
   D18        3.14159  -0.00000   0.00000  -0.00000   0.00000   3.14159
   D19        3.14159   0.00000   0.00000   0.00000   0.00000   3.14159
   D20        0.00000   0.00000   0.00000   0.00000   0.00000   0.00000
         Item               Value     Threshold  Converged?
 Maximum Force            0.007112     0.000450     NO 
 RMS     Force            0.002316     0.000300     NO 
 Maximum Displacement     0.013165     0.001800     NO 
 RMS     Displacement     0.004682     0.001200     NO 
 Predicted change in Energy=-2.541695D-04
 GradGradGradGradGradGradGradGradGradGradGradGradGradGradGradGradGradGrad

                          Input orientation:                          
 ---------------------------------------------------------------------
 Center     Atomic      Atomic             Coordinates (Angstroms)
 Number     Number       Type             X           Y           Z
 ---------------------------------------------------------------------
      1          6           0       -3.234448    0.206880   -0.000000
      2          6           0       -2.027434    0.953792   -0.000000
      3          6           0       -0.878069    0.203024   -0.000000
      4          6           0       -0.727426   -1.161526   -0.000000
      5          6           0       -1.939007   -1.901006   -0.000000
      6          6           0       -3.175946   -1.209179   -0.000000
      7         17           0       -4.614061   -2.092999   -0.000000
      8         17           0       -4.715227    1.006376   -0.000000
      9         17           0       -1.985076    2.630406   -0.000000
     10         17           0        0.787531   -1.881063   -0.000000
     11         17           0       -1.894587   -3.583245   -0.000000
 ---------------------------------------------------------------------
                    Distance matrix (angstroms):
                    1          2          3          4          5
     1  C    0.000000
     2  C    1.419422   0.000000
     3  C    2.356382   1.372840   0.000000
     4  C    2.856167   2.482859   1.372840   0.000000
     5  C    2.474136   2.856167   2.356381   1.419422   0.000000
     6  C    1.417266   2.448983   2.697138   2.448983   1.417266
     7  Cl   2.681935   3.996695   4.385130   3.996696   2.681936
     8  Cl   1.682826   2.688307   3.920351   4.538982   4.019984
     9  Cl   2.726611   1.677149   2.667891   3.995050   4.531646
    10  Cl   4.531646   3.995051   2.667892   1.677149   2.726611
    11  Cl   4.019984   4.538981   3.920350   2.688306   1.682825
                    6          7          8          9         10
     6  C    0.000000
     7  Cl   1.687992   0.000000
     8  Cl   2.697790   3.101026   0.000000
     9  Cl   4.020022   5.405749   3.176664   0.000000
    10  Cl   4.020022   5.405749   6.214310   5.295347   0.000000
    11  Cl   2.697790   3.101028   5.387080   6.214310   3.176662
                   11
    11  Cl   0.000000
 Stoichiometry    C6Cl5(2)
 Framework group  CS[SG(C6Cl5)]
 Deg. of freedom    19
 Full point group                 CS      NOp   2
 Largest Abelian subgroup         CS      NOp   2
 Largest concise Abelian subgroup C1      NOp   1
                         Standard orientation:                         
 ---------------------------------------------------------------------
 Center     Atomic      Atomic             Coordinates (Angstroms)
 Number     Number       Type             X           Y           Z
 ---------------------------------------------------------------------
      1          6           0       -0.290391    1.237068    0.000000
      2          6           0        1.129025    1.241429    0.000000
      3          6           0        1.715150   -0.000000    0.000000
      4          6           0        1.129025   -1.241430    0.000000
      5          6           0       -0.290391   -1.237068    0.000000
      6          6           0       -0.981987    0.000000    0.000000
      7         17           0       -2.669979    0.000001    0.000000
      8         17           0       -1.133357    2.693540    0.000000
      9         17           0        2.042977    2.647673    0.000000
     10         17           0        2.042975   -2.647674    0.000000
     11         17           0       -1.133356   -2.693540    0.000000
 ---------------------------------------------------------------------
 Rotational constants (GHZ):           0.7112914           0.4716995           0.2836166
 Standard basis: VSTO-6G (5D, 7F)
 There are    33 symmetry adapted cartesian basis functions of A'  symmetry.
 There are    11 symmetry adapted cartesian basis functions of A"  symmetry.
 There are    33 symmetry adapted basis functions of A'  symmetry.
 There are    11 symmetry adapted basis functions of A"  symmetry.
    44 basis functions,   264 primitive gaussians,    44 cartesian basis functions
    30 alpha electrons       29 beta electrons
       nuclear repulsion energy       353.5643225565 Hartrees.
 Integral buffers will be    131072 words long.
 Regular integral format.
 Two-electron integral symmetry is turned off.
 Do NDO integrals.
 One-electron integrals computed using PRISM.
 NBasis=    44 RedAO= T EigKep=  1.00D+00  NBF=    33    11
 NBsUse=    44 1.00D-06 EigRej= -1.00D+00 NBFU=    33    11
 Initial guess from the checkpoint file:  "geometry_chks/123_56ClBzNeutralRadical.chk"
 B after Tr=    -0.000000    0.000000    0.000000
         Rot=    1.000000    0.000000   -0.000000    0.000000 Ang=   0.00 deg.
 Initial guess orbital symmetries:
 Alpha Orbitals:
       Occupied  (A') (A') (A') (A') (A') (A') (A') (A') (A') (A')
                 (A') (A') (A') (A') (A") (A') (A') (A") (A") (A")
                 (A') (A") (A') (A') (A') (A') (A") (A') (A") (A")
       Virtual   (A") (A") (A') (A') (A') (A') (A') (A") (A') (A')
                 (A') (A') (A') (A')
 Beta  Orbitals:
       Occupied  (A') (A') (A') (A') (A') (A') (A') (A') (A') (A')
                 (A') (A') (A') (A') (A") (A') (A') (A") (A") (A")
                 (A") (A') (A') (A') (A') (A') (A") (A") (A")
       Virtual   (A') (A") (A") (A') (A') (A') (A') (A') (A") (A')
                 (A') (A') (A') (A') (A')
 Initial guess <Sx>= 0.0000 <Sy>= 0.0000 <Sz>= 0.5000 <S**2>= 1.4545 S= 0.8056
 Keep J ints in memory in canonical form, NReq=865421.
 Overlap will be assumed to be unity.
 Requested convergence on RMS density matrix=1.00D-08 within  32 cycles.
 Requested convergence on MAX density matrix=1.00D-06.
 Requested convergence on             energy=1.00D-06.
 No special actions if energy rises.
 Fock symm off for IB=2 I1=    1 I=   34 J=   16 Cut=1.00D-07 Err=4.11D-04
 Fock matrix is not symmetric: symmetry in diagonalization turned off.
 SCF Done:  E(UAM1) =  0.757058531549E-01 A.U. after   14 cycles
            NFock= 13  Conv=0.74D-08     -V/T= 1.0005
 <Sx>= 0.0000 <Sy>= 0.0000 <Sz>= 0.5000 <S**2>= 1.4182 S= 0.7916
 <L.S>=  0.00000000000    
 Annihilation of the first spin contaminant:
 S**2 before annihilation     1.4182,   after     1.1636
 QCSCF skips out because SCF is already converged.
 Calling FoFJK, ICntrl=      2127 FMM=F ISym2X=1 I1Cent= 0 IOpClX= 1 NMat=1 NMatS=1 NMatT=0.
 ***** Axes restored to original set *****
 -------------------------------------------------------------------
 Center     Atomic                   Forces (Hartrees/Bohr)
 Number     Number              X              Y              Z
 -------------------------------------------------------------------
      1        6          -0.000743506   -0.001720945    0.000000000
      2        6           0.001108949    0.001206957    0.000000000
      3        6          -0.000220135   -0.000135090   -0.000000000
      4        6           0.001577659    0.000444045    0.000000000
      5        6          -0.001871198    0.000113882   -0.000000000
      6        6           0.001826424    0.001122565   -0.000000000
      7       17          -0.001034817   -0.000636041   -0.000000000
      8       17          -0.000575740    0.000484702   -0.000000000
      9       17          -0.000275545    0.000179391   -0.000000000
     10       17           0.000035656   -0.000326795   -0.000000000
     11       17           0.000172253   -0.000732671   -0.000000000
 -------------------------------------------------------------------
 Cartesian Forces:  Max     0.001871198 RMS     0.000776329

 GradGradGradGradGradGradGradGradGradGradGradGradGradGradGradGradGradGrad
 Berny optimization.
 Using GEDIIS/GDIIS optimizer.
 FormGI is forming the generalized inverse of G from B-inverse, IUseBI=4.
 Internal  Forces:  Max     0.001307184 RMS     0.000424797
 Search for a local minimum.
 Step number   4 out of a maximum of   57
 All quantities printed in internal units (Hartrees-Bohrs-Radians)
 Mixed Optimization -- En-DIIS/RFO-DIIS
 Update second derivatives using D2CorX and points    1    2    3    4
 DE= -2.72D-04 DEPred=-2.54D-04 R= 1.07D+00
 TightC=F SS=  1.41D+00  RLast= 3.39D-02 DXNew= 8.5832D-01 1.0167D-01
 Trust test= 1.07D+00 RLast= 3.39D-02 DXMaxT set to 5.10D-01
 ITU=  1  1  1  0
 Use linear search instead of GDIIS.
     Eigenvalues ---    0.02011   0.02011   0.02011   0.02011   0.02011
     Eigenvalues ---    0.02011   0.02011   0.02011   0.18492   0.24551
     Eigenvalues ---    0.25000   0.25000   0.25000   0.25000   0.25000
     Eigenvalues ---    0.25004   0.28516   0.29032   0.29033   0.29033
     Eigenvalues ---    0.29719   0.40759   0.41459   0.42857   0.44656
     Eigenvalues ---    0.44657   0.72904
 RFO step:  Lambda=-2.19696146D-05 EMin= 2.01064649D-02
 Quartic linear search produced a step of  0.06470.
 Iteration  1 RMS(Cart)=  0.00138599 RMS(Int)=  0.00000135
 Iteration  2 RMS(Cart)=  0.00000146 RMS(Int)=  0.00000007
 Iteration  3 RMS(Cart)=  0.00000000 RMS(Int)=  0.00000007
 ClnCor:  largest displacement from symmetrization is 1.81D-11 for atom    11.
 Variable       Old X    -DE/DX   Delta X   Delta X   Delta X     New X
                                 (Linear)    (Quad)   (Total)
    R1        2.68232   0.00131  -0.00045   0.00297   0.00253   2.68485
    R2        2.67824  -0.00044  -0.00081  -0.00104  -0.00185   2.67639
    R3        3.18008   0.00074   0.00054   0.00171   0.00225   3.18233
    R4        2.59429   0.00051  -0.00057   0.00092   0.00035   2.59464
    R5        3.16935   0.00017   0.00017  -0.00023  -0.00006   3.16930
    R6        2.59429   0.00051  -0.00057   0.00092   0.00035   2.59464
    R7        2.68232   0.00131  -0.00045   0.00298   0.00253   2.68485
    R8        3.16935   0.00017   0.00017  -0.00023  -0.00006   3.16930
    R9        2.67824  -0.00044  -0.00081  -0.00104  -0.00185   2.67639
   R10        3.18008   0.00074   0.00054   0.00171   0.00225   3.18233
   R11        3.18984   0.00121   0.00083   0.00335   0.00418   3.19402
    A1        2.08364   0.00004   0.00000  -0.00005  -0.00005   2.08359
    A2        2.09239  -0.00027  -0.00018  -0.00094  -0.00113   2.09126
    A3        2.10715   0.00022   0.00018   0.00100   0.00118   2.10833
    A4        2.00883  -0.00030  -0.00031  -0.00119  -0.00150   2.00734
    A5        2.15019  -0.00030  -0.00017  -0.00110  -0.00127   2.14892
    A6        2.12416   0.00059   0.00049   0.00228   0.00277   2.12693
    A7        2.25937   0.00011   0.00041   0.00121   0.00162   2.26099
    A8        2.00883  -0.00030  -0.00031  -0.00119  -0.00150   2.00734
    A9        2.12416   0.00059   0.00049   0.00228   0.00277   2.12693
   A10        2.15019  -0.00030  -0.00017  -0.00110  -0.00127   2.14892
   A11        2.08364   0.00004   0.00000  -0.00005  -0.00005   2.08359
   A12        2.09239  -0.00026  -0.00018  -0.00094  -0.00113   2.09126
   A13        2.10716   0.00022   0.00018   0.00100   0.00118   2.10833
   A14        2.12205   0.00039   0.00021   0.00127   0.00148   2.12353
   A15        2.08057  -0.00020  -0.00010  -0.00064  -0.00074   2.07983
   A16        2.08057  -0.00020  -0.00010  -0.00064  -0.00074   2.07983
    D1        0.00000   0.00000   0.00000   0.00000   0.00000   0.00000
    D2        3.14159  -0.00000   0.00000  -0.00000   0.00000   3.14159
    D3        3.14159   0.00000   0.00000   0.00000   0.00000   3.14159
    D4        0.00000   0.00000   0.00000   0.00000   0.00000   0.00000
    D5        0.00000   0.00000   0.00000  -0.00000   0.00000   0.00000
    D6        3.14159   0.00000   0.00000   0.00000   0.00000   3.14159
    D7        3.14159  -0.00000   0.00000  -0.00000   0.00000   3.14159
    D8        0.00000  -0.00000   0.00000  -0.00000   0.00000   0.00000
    D9        0.00000  -0.00000   0.00000  -0.00000   0.00000   0.00000
   D10        3.14159   0.00000   0.00000   0.00000   0.00000   3.14159
   D11        0.00000   0.00000   0.00000   0.00000   0.00000   0.00000
   D12        3.14159  -0.00000   0.00000  -0.00000   0.00000   3.14159
   D13        0.00000  -0.00000   0.00000  -0.00000   0.00000   0.00000
   D14        3.14159  -0.00000   0.00000  -0.00000   0.00000   3.14159
   D15        3.14159   0.00000   0.00000   0.00000   0.00000   3.14159
   D16        0.00000   0.00000   0.00000   0.00000   0.00000   0.00000
   D17        0.00000   0.00000   0.00000   0.00000   0.00000   0.00000
   D18        3.14159  -0.00000   0.00000  -0.00000   0.00000   3.14159
   D19        3.14159   0.00000   0.00000   0.00000   0.00000   3.14159
   D20        0.00000   0.00000   0.00000   0.00000   0.00000   0.00000
         Item               Value     Threshold  Converged?
 Maximum Force            0.001307     0.000450     NO 
 RMS     Force            0.000425     0.000300     NO 
 Maximum Displacement     0.005370     0.001800     NO 
 RMS     Displacement     0.001385     0.001200     NO 
 Predicted change in Energy=-1.204987D-05
 GradGradGradGradGradGradGradGradGradGradGradGradGradGradGradGradGradGrad

                          Input orientation:                          
 ---------------------------------------------------------------------
 Center     Atomic      Atomic             Coordinates (Angstroms)
 Number     Number       Type             X           Y           Z
 ---------------------------------------------------------------------
      1          6           0       -3.234334    0.206546   -0.000000
      2          6           0       -2.026699    0.954995   -0.000000
      3          6           0       -0.877787    0.203198   -0.000000
      4          6           0       -0.726020   -1.161413   -0.000000
      5          6           0       -1.939253   -1.900754   -0.000000
      6          6           0       -3.174825   -1.208490   -0.000000
      7         17           0       -4.614825   -2.093469   -0.000000
      8         17           0       -4.715809    1.007258   -0.000000
      9         17           0       -1.987628    2.631658   -0.000000
     10         17           0        0.787496   -1.883905   -0.000000
     11         17           0       -1.894066   -3.584163   -0.000000
 ---------------------------------------------------------------------
                    Distance matrix (angstroms):
                    1          2          3          4          5
     1  C    0.000000
     2  C    1.420760   0.000000
     3  C    2.356549   1.373025   0.000000
     4  C    2.857088   2.484139   1.373025   0.000000
     5  C    2.473449   2.857088   2.356549   1.420760   0.000000
     6  C    1.416287   2.449257   2.696154   2.449257   1.416287
     7  Cl   2.682504   3.998941   4.386357   3.998941   2.682504
     8  Cl   1.684015   2.689618   3.921342   4.541095   4.020671
     9  Cl   2.726801   1.677119   2.670050   3.997380   4.532671
    10  Cl   4.532671   3.997380   2.670050   1.677119   2.726801
    11  Cl   4.020671   4.541095   3.921342   2.689618   1.684015
                    6          7          8          9         10
     6  C    0.000000
     7  Cl   1.690204   0.000000
     8  Cl   2.698920   3.102371   0.000000
     9  Cl   4.019475   5.406384   3.175161   0.000000
    10  Cl   4.019475   5.406385   6.216526   5.300154   0.000000
    11  Cl   2.698920   3.102370   5.389191   6.216526   3.175162
                   11
    11  Cl   0.000000
 Stoichiometry    C6Cl5(2)
 Framework group  CS[SG(C6Cl5)]
 Deg. of freedom    19
 Full point group                 CS      NOp   2
 Largest Abelian subgroup         CS      NOp   2
 Largest concise Abelian subgroup C1      NOp   1
                         Standard orientation:                         
 ---------------------------------------------------------------------
 Center     Atomic      Atomic             Coordinates (Angstroms)
 Number     Number       Type             X           Y           Z
 ---------------------------------------------------------------------
      1          6           0       -1.236725   -0.290105    0.000000
      2          6           0       -1.242070    1.130645    0.000000
      3          6           0        0.000000    1.715846    0.000000
      4          6           0        1.242070    1.130645    0.000000
      5          6           0        1.236725   -0.290105    0.000000
      6          6           0        0.000000   -0.980308    0.000000
      7         17           0       -0.000000   -2.670512    0.000000
      8         17           0       -2.694596   -1.133028    0.000000
      9         17           0       -2.650077    2.041822    0.000000
     10         17           0        2.650077    2.041822    0.000000
     11         17           0        2.694596   -1.133028    0.000000
 ---------------------------------------------------------------------
 Rotational constants (GHZ):           0.7115010           0.4711252           0.2834421
 Standard basis: VSTO-6G (5D, 7F)
 There are    33 symmetry adapted cartesian basis functions of A'  symmetry.
 There are    11 symmetry adapted cartesian basis functions of A"  symmetry.
 There are    33 symmetry adapted basis functions of A'  symmetry.
 There are    11 symmetry adapted basis functions of A"  symmetry.
    44 basis functions,   264 primitive gaussians,    44 cartesian basis functions
    30 alpha electrons       29 beta electrons
       nuclear repulsion energy       353.5004684015 Hartrees.
 Integral buffers will be    131072 words long.
 Regular integral format.
 Two-electron integral symmetry is turned off.
 Do NDO integrals.
 One-electron integrals computed using PRISM.
 NBasis=    44 RedAO= T EigKep=  1.00D+00  NBF=    33    11
 NBsUse=    44 1.00D-06 EigRej= -1.00D+00 NBFU=    33    11
 Initial guess from the checkpoint file:  "geometry_chks/123_56ClBzNeutralRadical.chk"
 B after Tr=     0.000000    0.000000    0.000000
         Rot=    0.707107   -0.000000   -0.000000   -0.707107 Ang= -90.00 deg.
 Initial guess orbital symmetries:
 Alpha Orbitals:
       Occupied  (A') (A') (A') (A') (A') (A') (A') (A') (A') (A')
                 (A') (A') (A') (A') (A") (A') (A') (A") (A") (A")
                 (A') (A") (A') (A') (A') (A') (A") (A') (A") (A")
       Virtual   (A") (A") (A') (A') (A') (A') (A') (A") (A') (A')
                 (A') (A') (A') (A')
 Beta  Orbitals:
       Occupied  (A') (A') (A') (A') (A') (A') (A') (A') (A') (A')
                 (A') (A') (A') (A') (A") (A') (A') (A") (A") (A")
                 (A") (A') (A') (A') (A') (A') (A") (A") (A")
       Virtual   (A') (A") (A") (A') (A') (A') (A') (A') (A") (A')
                 (A') (A') (A') (A') (A')
 Initial guess <Sx>= 0.0000 <Sy>= 0.0000 <Sz>= 0.5000 <S**2>= 1.4182 S= 0.7916
 Keep J ints in memory in canonical form, NReq=865421.
 Overlap will be assumed to be unity.
 Requested convergence on RMS density matrix=1.00D-08 within  32 cycles.
 Requested convergence on MAX density matrix=1.00D-06.
 Requested convergence on             energy=1.00D-06.
 No special actions if energy rises.
 Fock symm off for IB=2 I1=    1 I=   34 J=   24 Cut=1.00D-07 Err=1.58D-04
 Fock matrix is not symmetric: symmetry in diagonalization turned off.
 SCF Done:  E(UAM1) =  0.756921531691E-01 A.U. after   14 cycles
            NFock= 13  Conv=0.43D-08     -V/T= 1.0005
 <Sx>= 0.0000 <Sy>= 0.0000 <Sz>= 0.5000 <S**2>= 1.4187 S= 0.7918
 <L.S>=  0.00000000000    
 Annihilation of the first spin contaminant:
 S**2 before annihilation     1.4187,   after     1.1644
 QCSCF skips out because SCF is already converged.
 Calling FoFJK, ICntrl=      2127 FMM=F ISym2X=1 I1Cent= 0 IOpClX= 1 NMat=1 NMatS=1 NMatT=0.
[...]
    R5        3.16930  -0.00006  -0.00001  -0.00043  -0.00044   3.16886
    R6        2.59464   0.00006   0.00007  -0.00010  -0.00002   2.59462
    R7        2.68485   0.00025   0.00054   0.00017   0.00071   2.68556
    R8        3.16930  -0.00006  -0.00001  -0.00043  -0.00044   3.16886
    R9        2.67639  -0.00001  -0.00040   0.00017  -0.00022   2.67617
   R10        3.18233  -0.00006   0.00048  -0.00074  -0.00026   3.18207
   R11        3.19402   0.00010   0.00089  -0.00035   0.00055   3.19457
    A1        2.08359  -0.00003  -0.00001  -0.00018  -0.00019   2.08341
    A2        2.09126  -0.00008  -0.00024  -0.00018  -0.00042   2.09084
    A3        2.10833   0.00011   0.00025   0.00036   0.00061   2.10894
    A4        2.00734  -0.00003  -0.00032  -0.00004  -0.00036   2.00697
    A5        2.14892  -0.00011  -0.00027  -0.00026  -0.00054   2.14838
    A6        2.12693   0.00014   0.00059   0.00031   0.00090   2.12783
    A7        2.26099   0.00004   0.00035   0.00025   0.00060   2.26158
    A8        2.00734  -0.00003  -0.00032  -0.00004  -0.00036   2.00697
    A9        2.12693   0.00014   0.00059   0.00031   0.00090   2.12783
   A10        2.14892  -0.00011  -0.00027  -0.00026  -0.00054   2.14838
   A11        2.08359  -0.00003  -0.00001  -0.00018  -0.00019   2.08341
   A12        2.09126  -0.00008  -0.00024  -0.00018  -0.00042   2.09084
   A13        2.10833   0.00011   0.00025   0.00036   0.00061   2.10894
   A14        2.12353   0.00009   0.00032   0.00019   0.00050   2.12403
   A15        2.07983  -0.00004  -0.00016  -0.00009  -0.00025   2.07958
   A16        2.07983  -0.00004  -0.00016  -0.00009  -0.00025   2.07958
    D1        0.00000   0.00000   0.00000   0.00000   0.00000   0.00000
    D2        3.14159  -0.00000   0.00000  -0.00000   0.00000   3.14159
    D3        3.14159   0.00000   0.00000   0.00000   0.00000   3.14159
    D4        0.00000  -0.00000   0.00000  -0.00000   0.00000   0.00000
    D5        0.00000   0.00000   0.00000   0.00000   0.00000   0.00000
    D6        3.14159   0.00000   0.00000   0.00000   0.00000   3.14159
    D7        3.14159  -0.00000   0.00000  -0.00000   0.00000   3.14159
    D8        0.00000  -0.00000   0.00000  -0.00000   0.00000   0.00000
    D9        0.00000  -0.00000   0.00000  -0.00000   0.00000   0.00000
   D10        3.14159   0.00000   0.00000   0.00000   0.00000   3.14159
   D11        0.00000   0.00000   0.00000   0.00000   0.00000   0.00000
   D12        3.14159  -0.00000   0.00000  -0.00000   0.00000   3.14159
   D13        0.00000   0.00000   0.00000   0.00000   0.00000   0.00000
   D14        3.14159  -0.00000   0.00000  -0.00000   0.00000   3.14159
   D15        3.14159   0.00000   0.00000   0.00000   0.00000   3.14159
   D16        0.00000  -0.00000   0.00000  -0.00000   0.00000   0.00000
   D17        0.00000  -0.00000   0.00000  -0.00000   0.00000   0.00000
   D18        3.14159  -0.00000   0.00000  -0.00000   0.00000   3.14159
   D19        3.14159   0.00000   0.00000   0.00000   0.00000   3.14159
   D20        0.00000  -0.00000   0.00000  -0.00000   0.00000   0.00000
         Item               Value     Threshold  Converged?
 Maximum Force            0.000254     0.000450     YES
 RMS     Force            0.000077     0.000300     YES
 Maximum Displacement     0.001643     0.001800     YES
 RMS     Displacement     0.000429     0.001200     YES
 Predicted change in Energy=-6.035725D-07
 Optimization completed.
    -- Stationary point found.
                           ----------------------------
                           !   Optimized Parameters   !
                           ! (Angstroms and Degrees)  !
 --------------------------                            --------------------------
 ! Name  Definition              Value          Derivative Info.                !
 --------------------------------------------------------------------------------
 ! R1    R(1,2)                  1.4208         -DE/DX =    0.0003              !
 ! R2    R(1,6)                  1.4163         -DE/DX =    0.0                 !
 ! R3    R(1,8)                  1.684          -DE/DX =   -0.0001              !
 ! R4    R(2,3)                  1.373          -DE/DX =    0.0001              !
 ! R5    R(2,9)                  1.6771         -DE/DX =   -0.0001              !
 ! R6    R(3,4)                  1.373          -DE/DX =    0.0001              !
 ! R7    R(4,5)                  1.4208         -DE/DX =    0.0003              !
 ! R8    R(4,10)                 1.6771         -DE/DX =   -0.0001              !
 ! R9    R(5,6)                  1.4163         -DE/DX =    0.0                 !
 ! R10   R(5,11)                 1.684          -DE/DX =   -0.0001              !
 ! R11   R(6,7)                  1.6902         -DE/DX =    0.0001              !
 ! A1    A(2,1,6)              119.381          -DE/DX =    0.0                 !
 ! A2    A(2,1,8)              119.8204         -DE/DX =   -0.0001              !
 ! A3    A(6,1,8)              120.7986         -DE/DX =    0.0001              !
 ! A4    A(1,2,3)              115.0119         -DE/DX =    0.0                 !
 ! A5    A(1,2,9)              123.124          -DE/DX =   -0.0001              !
 ! A6    A(3,2,9)              121.864          -DE/DX =    0.0001              !
 ! A7    A(2,3,4)              129.5451         -DE/DX =    0.0                 !
 ! A8    A(3,4,5)              115.0119         -DE/DX =    0.0                 !
 ! A9    A(3,4,10)             121.8641         -DE/DX =    0.0001              !
 ! A10   A(5,4,10)             123.124          -DE/DX =   -0.0001              !
 ! A11   A(4,5,6)              119.381          -DE/DX =    0.0                 !
 ! A12   A(4,5,11)             119.8204         -DE/DX =   -0.0001              !
 ! A13   A(6,5,11)             120.7986         -DE/DX =    0.0001              !
 ! A14   A(1,6,5)              121.6691         -DE/DX =    0.0001              !
 ! A15   A(1,6,7)              119.1654         -DE/DX =    0.0                 !
 ! A16   A(5,6,7)              119.1654         -DE/DX =    0.0                 !
 ! D1    D(6,1,2,3)              0.0            -DE/DX =    0.0                 !
 ! D2    D(6,1,2,9)            180.0            -DE/DX =    0.0                 !
 ! D3    D(8,1,2,3)            180.0            -DE/DX =    0.0                 !
 ! D4    D(8,1,2,9)              0.0            -DE/DX =    0.0                 !
 ! D5    D(2,1,6,5)              0.0            -DE/DX =    0.0                 !
 ! D6    D(2,1,6,7)            180.0            -DE/DX =    0.0                 !
 ! D7    D(8,1,6,5)            180.0            -DE/DX =    0.0                 !
 ! D8    D(8,1,6,7)              0.0            -DE/DX =    0.0                 !
 ! D9    D(1,2,3,4)              0.0            -DE/DX =    0.0                 !
 ! D10   D(9,2,3,4)            180.0            -DE/DX =    0.0                 !
 ! D11   D(2,3,4,5)              0.0            -DE/DX =    0.0                 !
 ! D12   D(2,3,4,10)           180.0            -DE/DX =    0.0                 !
 ! D13   D(3,4,5,6)              0.0            -DE/DX =    0.0                 !
 ! D14   D(3,4,5,11)           180.0            -DE/DX =    0.0                 !
 ! D15   D(10,4,5,6)           180.0            -DE/DX =    0.0                 !
 ! D16   D(10,4,5,11)            0.0            -DE/DX =    0.0                 !
 ! D17   D(4,5,6,1)              0.0            -DE/DX =    0.0                 !
 ! D18   D(4,5,6,7)            180.0            -DE/DX =    0.0                 !
 ! D19   D(11,5,6,1)           180.0            -DE/DX =    0.0                 !
 ! D20   D(11,5,6,7)             0.0            -DE/DX =    0.0                 !
 --------------------------------------------------------------------------------
 GradGradGradGradGradGradGradGradGradGradGradGradGradGradGradGradGradGrad

                          Input orientation:                          
 ---------------------------------------------------------------------
 Center     Atomic      Atomic             Coordinates (Angstroms)
 Number     Number       Type             X           Y           Z
 ---------------------------------------------------------------------
      1          6           0       -3.234334    0.206546   -0.000000
      2          6           0       -2.026699    0.954995   -0.000000
      3          6           0       -0.877787    0.203198   -0.000000
      4          6           0       -0.726020   -1.161413   -0.000000
      5          6           0       -1.939253   -1.900754   -0.000000
      6          6           0       -3.174825   -1.208490   -0.000000
      7         17           0       -4.614825   -2.093469   -0.000000
      8         17           0       -4.715809    1.007258   -0.000000
      9         17           0       -1.987628    2.631658   -0.000000
     10         17           0        0.787496   -1.883905   -0.000000
     11         17           0       -1.894066   -3.584163   -0.000000
 ---------------------------------------------------------------------
                    Distance matrix (angstroms):
                    1          2          3          4          5
     1  C    0.000000
     2  C    1.420760   0.000000
     3  C    2.356549   1.373025   0.000000
     4  C    2.857088   2.484139   1.373025   0.000000
     5  C    2.473449   2.857088   2.356549   1.420760   0.000000
     6  C    1.416287   2.449257   2.696154   2.449257   1.416287
     7  Cl   2.682504   3.998941   4.386357   3.998941   2.682504
     8  Cl   1.684015   2.689618   3.921342   4.541095   4.020671
     9  Cl   2.726801   1.677119   2.670050   3.997380   4.532671
    10  Cl   4.532671   3.997380   2.670050   1.677119   2.726801
    11  Cl   4.020671   4.541095   3.921342   2.689618   1.684015
                    6          7          8          9         10
     6  C    0.000000
     7  Cl   1.690204   0.000000
     8  Cl   2.698920   3.102371   0.000000
     9  Cl   4.019475   5.406384   3.175161   0.000000
    10  Cl   4.019475   5.406385   6.216526   5.300154   0.000000
    11  Cl   2.698920   3.102370   5.389191   6.216526   3.175162
                   11
    11  Cl   0.000000
 Stoichiometry    C6Cl5(2)
 Framework group  CS[SG(C6Cl5)]
 Deg. of freedom    19
 Full point group                 CS      NOp   2
 Largest Abelian subgroup         CS      NOp   2
 Largest concise Abelian subgroup C1      NOp   1
                         Standard orientation:                         
 ---------------------------------------------------------------------
 Center     Atomic      Atomic             Coordinates (Angstroms)
 Number     Number       Type             X           Y           Z
 ---------------------------------------------------------------------
      1          6           0       -1.236725   -0.290105    0.000000
      2          6           0       -1.242070    1.130645    0.000000
      3          6           0        0.000000    1.715846    0.000000
      4          6           0        1.242070    1.130645    0.000000
      5          6           0        1.236725   -0.290105    0.000000
      6          6           0        0.000000   -0.980308    0.000000
      7         17           0       -0.000000   -2.670512    0.000000
      8         17           0       -2.694596   -1.133028    0.000000
      9         17           0       -2.650077    2.041822    0.000000
     10         17           0        2.650077    2.041822    0.000000
     11         17           0        2.694596   -1.133028    0.000000
 ---------------------------------------------------------------------
 Rotational constants (GHZ):           0.7115010           0.4711252           0.2834421

 **********************************************************************

            Population analysis using the SCF Density.

 **********************************************************************

 Orbital symmetries:
 Alpha Orbitals:
       Occupied  (A') (A') (A') (A') (A') (A') (A') (A') (A') (A')
                 (A') (A') (A') (A') (A") (A') (A') (A") (A") (A")
                 (A') (A") (A') (A') (A') (A') (A") (A') (A") (A")
       Virtual   (A") (A") (A') (A') (A') (A') (A') (A") (A') (A')
                 (A') (A') (A') (A')
 Beta  Orbitals:
       Occupied  (A') (A') (A') (A') (A') (A') (A') (A') (A') (A')
                 (A') (A') (A') (A') (A") (A') (A') (A") (A") (A")
                 (A") (A') (A') (A') (A') (A') (A") (A") (A")
       Virtual   (A') (A") (A") (A') (A') (A') (A') (A') (A") (A')
                 (A') (A') (A') (A') (A')
 The electronic state is 2-A'.
 Alpha  occ. eigenvalues --   -1.49814  -1.43075  -1.41957  -1.40948  -1.40212
 Alpha  occ. eigenvalues --   -1.37637  -1.17284  -1.15835  -0.91592  -0.89486
 Alpha  occ. eigenvalues --   -0.71839  -0.67907  -0.66755  -0.61764  -0.60270
 Alpha  occ. eigenvalues --   -0.57958  -0.54871  -0.53617  -0.51701  -0.48780
 Alpha  occ. eigenvalues --   -0.48332  -0.48084  -0.46546  -0.46267  -0.45469
 Alpha  occ. eigenvalues --   -0.44661  -0.43637  -0.42022  -0.38584  -0.37169
 Alpha virt. eigenvalues --   -0.02748  -0.02183   0.00944   0.01774   0.02220
 Alpha virt. eigenvalues --    0.04050   0.04163   0.05054   0.10953   0.11104
 Alpha virt. eigenvalues --    0.12105   0.13174   0.14494   0.14855
  Beta  occ. eigenvalues --   -1.49265  -1.43020  -1.42055  -1.40857  -1.40145
  Beta  occ. eigenvalues --   -1.37157  -1.17081  -1.14404  -0.91274  -0.87331
  Beta  occ. eigenvalues --   -0.71886  -0.67504  -0.65254  -0.61595  -0.60094
  Beta  occ. eigenvalues --   -0.57429  -0.54543  -0.53606  -0.52521  -0.48750
  Beta  occ. eigenvalues --   -0.48003  -0.46934  -0.46432  -0.46156  -0.45291
  Beta  occ. eigenvalues --   -0.44619  -0.43116  -0.37693  -0.37137
  Beta virt. eigenvalues --   -0.03126  -0.02757  -0.00700   0.00616   0.02162
  Beta virt. eigenvalues --    0.02322   0.04077   0.04398   0.06077   0.11531
  Beta virt. eigenvalues --    0.11546   0.13051   0.13330   0.14895   0.16902
          Condensed to atoms (all electrons):
               1          2          3          4          5          6
     1  C    4.060456   0.000000   0.000000   0.000000   0.000000   0.000000
     2  C    0.000000   4.048050   0.000000   0.000000   0.000000   0.000000
     3  C    0.000000   0.000000   4.028436   0.000000   0.000000   0.000000
     4  C    0.000000   0.000000   0.000000   4.048050   0.000000   0.000000
     5  C    0.000000   0.000000   0.000000   0.000000   4.060456   0.000000
     6  C    0.000000   0.000000   0.000000   0.000000   0.000000   4.064275
     7  Cl   0.000000   0.000000   0.000000   0.000000   0.000000   0.000000
     8  Cl   0.000000   0.000000   0.000000   0.000000   0.000000   0.000000
     9  Cl   0.000000   0.000000   0.000000   0.000000   0.000000   0.000000
    10  Cl   0.000000   0.000000   0.000000   0.000000   0.000000   0.000000
    11  Cl   0.000000   0.000000   0.000000   0.000000   0.000000   0.000000
               7          8          9         10         11
     1  C    0.000000   0.000000   0.000000   0.000000   0.000000
     2  C    0.000000   0.000000   0.000000   0.000000   0.000000
     3  C    0.000000   0.000000   0.000000   0.000000   0.000000
     4  C    0.000000   0.000000   0.000000   0.000000   0.000000
     5  C    0.000000   0.000000   0.000000   0.000000   0.000000
     6  C    0.000000   0.000000   0.000000   0.000000   0.000000
     7  Cl   6.948401   0.000000   0.000000   0.000000   0.000000
     8  Cl   0.000000   6.941403   0.000000   0.000000   0.000000
     9  Cl   0.000000   0.000000   6.929535   0.000000   0.000000
    10  Cl   0.000000   0.000000   0.000000   6.929535   0.000000
    11  Cl   0.000000   0.000000   0.000000   0.000000   6.941403
          Atomic-Atomic Spin Densities.
               1          2          3          4          5          6
     1  C    0.549960   0.000000   0.000000   0.000000   0.000000   0.000000
     2  C    0.000000  -0.530383   0.000000   0.000000   0.000000   0.000000
     3  C    0.000000   0.000000   1.444965   0.000000   0.000000   0.000000
     4  C    0.000000   0.000000   0.000000  -0.530383   0.000000   0.000000
     5  C    0.000000   0.000000   0.000000   0.000000   0.549960   0.000000
     6  C    0.000000   0.000000   0.000000   0.000000   0.000000  -0.510599
     7  Cl   0.000000   0.000000   0.000000   0.000000   0.000000   0.000000
     8  Cl   0.000000   0.000000   0.000000   0.000000   0.000000   0.000000
     9  Cl   0.000000   0.000000   0.000000   0.000000   0.000000   0.000000
    10  Cl   0.000000   0.000000   0.000000   0.000000   0.000000   0.000000
    11  Cl   0.000000   0.000000   0.000000   0.000000   0.000000   0.000000
               7          8          9         10         11
     1  C    0.000000   0.000000   0.000000   0.000000   0.000000
     2  C    0.000000   0.000000   0.000000   0.000000   0.000000
     3  C    0.000000   0.000000   0.000000   0.000000   0.000000
     4  C    0.000000   0.000000   0.000000   0.000000   0.000000
     5  C    0.000000   0.000000   0.000000   0.000000   0.000000
     6  C    0.000000   0.000000   0.000000   0.000000   0.000000
     7  Cl  -0.006531   0.000000   0.000000   0.000000   0.000000
     8  Cl   0.000000   0.019275   0.000000   0.000000   0.000000
     9  Cl   0.000000   0.000000  -0.002770   0.000000   0.000000
    10  Cl   0.000000   0.000000   0.000000  -0.002770   0.000000
    11  Cl   0.000000   0.000000   0.000000   0.000000   0.019275
 Mulliken charges and spin densities:
               1          2
     1  C   -0.060456   0.549960
     2  C   -0.048050  -0.530383
     3  C   -0.028436   1.444965
     4  C   -0.048050  -0.530383
     5  C   -0.060456   0.549960
     6  C   -0.064275  -0.510599
     7  Cl   0.051599  -0.006531
     8  Cl   0.058597   0.019275
     9  Cl   0.070465  -0.002770
    10  Cl   0.070465  -0.002770
    11  Cl   0.058597   0.019275
 Sum of Mulliken charges =  -0.00000   1.00000
 Mulliken charges and spin densities with hydrogens summed into heavy atoms:
               1          2
     1  C   -0.060456   0.549960
     2  C   -0.048050  -0.530383
     3  C   -0.028436   1.444965
     4  C   -0.048050  -0.530383
     5  C   -0.060456   0.549960
     6  C   -0.064275  -0.510599
     7  Cl   0.051599  -0.006531
     8  Cl   0.058597   0.019275
     9  Cl   0.070465  -0.002770
    10  Cl   0.070465  -0.002770
    11  Cl   0.058597   0.019275
 Charge=             -0.0000 electrons
 Dipole moment (field-independent basis, Debye):
    X=              0.0000    Y=             -0.2453    Z=              0.0000  Tot=              0.2453
 N-N= 3.535004684015D+02 E-N=-5.059792519948D+02  KE=-1.553180841580D+02
 Symmetry A'   KE=-1.182142962057D+02
 Symmetry A"   KE=-3.710378795230D+01
 Symmetry A'   SP= 1.000000000000D+00
 Symmetry A"   SP=-5.662137425588D-15
 1\1\GINC-SH02-01N39\FOpt\UAM1\ZDO\C6Cl5(2)\JLAPIER\09-Dec-2025\0\\# op
 t am1 SCF=XQC\\Neutral Radical (removed 4) 123_56\\0,2\C,-3.2343340327
 ,0.2065463252,0.\C,-2.0266989254,0.9549947553,0.\C,-0.8777871692,0.203
 1979374,0.\C,-0.7260203824,-1.1614131906,0.\C,-1.9392528103,-1.9007544
 096,0.\C,-3.1748250498,-1.2084899713,0.\Cl,-4.6148251182,-2.0934690614
 ,0.\Cl,-4.7158092162,1.0072575574,0.\Cl,-1.9876281446,2.6316583694,0.\
 Cl,0.7874963616,-1.8839050156,0.\Cl,-1.8940655094,-3.5841633018,0.\\Ve
 rsion=ES64L-G16RevB.01\State=2-A'\HF=0.0756922\S2=1.418717\S2-1=0.\S2A
 =1.164363\RMSD=4.254e-09\RMSF=1.624e-04\Dipole=-0.0822165,-0.0505277,0
 .\PG=CS [SG(C6Cl5)]\\@


 WORK FAITHFULLY FOR EIGHT HOURS A DAY AND DON'T WORRY.
 IN TIME YOU MAY BECOME BOSS AND WORK TWELVE HOURS A DAY
 AND HAVE ALL THE WORRY.
 Job cpu time:       0 days  0 hours  0 minutes  5.0 seconds.
 Elapsed time:       0 days  0 hours  0 minutes 15.2 seconds.
 File lengths (MBytes):  RWF=     15 Int=      0 D2E=      0 Chk=      2 Scr=      1
 Normal termination of Gaussian 16 at Tue Dec  9 09:58:51 2025.
