 Entering Gaussian System, Link 0=g16
 Initial command:
 /share/software/user/restricted/gaussian/g16.B01/l1.exe "/home/users/jlapier/Chloroaromatics/Gau-24097.inp" -scrdir="/home/users/jlapier/Chloroaromatics/"
 Entering Link 1 = /share/software/user/restricted/gaussian/g16.B01/l1.exe PID=     24098.
  
 Copyright (c) 1988-2017, Gaussian, Inc.  All Rights Reserved.
  
 This is part of the Gaussian(R) 16 program.  It is based on
 the Gaussian(R) 09 system (copyright 2009, Gaussian, Inc.),
 the Gaussian(R) 03 system (copyright 2003, Gaussian, Inc.),
 the Gaussian(R) 98 system (copyright 1998, Gaussian, Inc.),
 the Gaussian(R) 94 system (copyright 1995, Gaussian, Inc.),
 the Gaussian 92(TM) system (copyright 1992, Gaussian, Inc.),
 the Gaussian 90(TM) system (copyright 1990, Gaussian, Inc.),
 the Gaussian 88(TM) system (copyright 1988, Gaussian, Inc.),
 the Gaussian 86(TM) system (copyright 1986, Carnegie Mellon
 University), and the Gaussian 82(TM) system (copyright 1983,
 Carnegie Mellon University). Gaussian is a federally registered
 trademark of Gaussian, Inc.
  
 This software contains proprietary and confidential information,
 including trade secrets, belonging to Gaussian, Inc.
  
 This software is provided under written license and may be
 used, copied, transmitted, or stored only in accord with that
 written license.
  
 The following legend is applicable only to US Government
 contracts under FAR:
  
                    RESTRICTED RIGHTS LEGEND
  
 Use, reproduction and disclosure by the US Government is
 subject to restrictions as set forth in subparagraphs (a)
 and (c) of the Commercial Computer Software - Restricted
 Rights clause in FAR 52.227-19.
  
 Gaussian, Inc.
 340 Quinnipiac St., Bldg. 40, Wallingford CT 06492
  
  
 ---------------------------------------------------------------
 Warning -- This program may not be used in any manner that
 competes with the business of Gaussian, Inc. or will provide
 assistance to any competitor of Gaussian, Inc.  The licensee
 of this program is prohibited from giving any competitor of
 Gaussian, Inc. access to this program.  By using this program,
 the user acknowledges that Gaussian, Inc. is engaged in the
 business of creating and licensing software in the field of
 computational chemistry and represents and warrants to the
 licensee that it is not a competitor of Gaussian, Inc. and that
 it will not use this program in any manner prohibited above.
 ---------------------------------------------------------------
  

 Cite this work as:
 Gaussian 16, Revision B.01,
 M. J. Frisch, G. W. Trucks, H. B. Schlegel, G. E. Scuseria, 
 M. A. Robb, J. R. Cheeseman, G. Scalmani, V. Barone, 
 G. A. Petersson, H. Nakatsuji, X. Li, M. Caricato, A. V. Marenich, 
 J. Bloino, B. G. Janesko, R. Gomperts, B. Mennucci, H. P. Hratchian, 
 J. V. Ortiz, A. F. Izmaylov, J. L. Sonnenberg, D. Williams-Young, 
 F. Ding, F. Lipparini, F. Egidi, J. Goings, B. Peng, A. Petrone, 
 T. Henderson, D. Ranasinghe, V. G. Zakrzewski, J. Gao, N. Rega, 
 G. Zheng, W. Liang, M. Hada, M. Ehara, K. Toyota, R. Fukuda, 
 J. Hasegawa, M. Ishida, T. Nakajima, Y. Honda, O. Kitao, H. Nakai, 
 T. Vreven, K. Throssell, J. A. Montgomery, Jr., J. E. Peralta, 
 F. Ogliaro, M. J. Bearpark, J. J. Heyd, E. N. Brothers, K. N. Kudin, 
 V. N. Staroverov, T. A. Keith, R. Kobayashi, J. Normand, 
 K. Raghavachari, A. P. Rendell, J. C. Burant, S. S. Iyengar, 
 J. Tomasi, M. Cossi, J. M. Millam, M. Klene, C. Adamo, R. Cammi, 
 J. W. Ochterski, R. L. Martin, K. Morokuma, O. Farkas, 
 J. B. Foresman, and D. J. Fox, Gaussian, Inc., Wallingford CT, 2016.
 
 ******************************************
 Gaussian 16:  ES64L-G16RevB.01 20-Dec-2017
                 9-Dec-2025 
 ******************************************
 %mem=2GB
 %nprocshare=1
 Will use up to    1 processors via shared memory.
 %chk=geometry_chks/123_ClBzNeutralRadical.chk
 -----------------
 # opt am1 SCF=XQC
 -----------------
 1/18=20,19=15,26=1,38=1/1,3;
 2/9=110,12=2,17=6,18=5,40=1/2;
 3/5=2,25=1,41=700000,71=1/1,2,3;
 4/35=1/1;
 5/5=2,8=3,13=1,35=1,38=5/2,8;
 6/7=2,8=2,9=2,10=2,28=1/1;
 7//1,2,3,16;
 1/18=20,19=15,26=1/3(2);
 2/9=110/2;
 99//99;
 2/9=110/2;
 3/5=2,25=1,41=700000,71=1,135=20/1,2,3;
 4/5=5,16=3,35=1/1;
 5/5=2,8=3,13=1,35=1,38=5/2,8;
 7//1,2,3,16;
 1/18=20,19=15,26=1/3(-5);
 2/9=110/2;
 6/7=2,8=2,9=2,10=2,19=2,28=1/1;
 99/9=1/99;
 --------------------------------
 Neutral Radical (removed 5) 123_
 --------------------------------
 Symbolic Z-matrix:
 Charge =  0 Multiplicity = 2
 C                    -3.20928   0.19943   0. 
 C                    -2.0115    0.93555   0. 
 C                    -0.77511   0.2663    0. 
 C                    -0.7365   -1.13907   0. 
 C                    -1.93429  -1.87519   0. 
 C                    -3.17067  -1.20594   0. 
 Cl                   -4.67483  -2.13035   0. 
 Cl                   -4.76193   1.03987   0. 
 Cl                   -2.05998   2.7004    0. 
 H                     0.72905   1.19071   0. 
 H                    -1.8858   -3.64003   0. 
 
 Add virtual bond connecting atoms H11        and C5         Dist= 3.34D+00.
 Add virtual bond connecting atoms H10        and C3         Dist= 3.34D+00.

 GradGradGradGradGradGradGradGradGradGradGradGradGradGradGradGradGradGrad
 Berny optimization.
 Initialization pass.
                           ----------------------------
                           !    Initial Parameters    !
                           ! (Angstroms and Degrees)  !
 --------------------------                            --------------------------
 ! Name  Definition              Value          Derivative Info.                !
 --------------------------------------------------------------------------------
 ! R1    R(1,2)                  1.4059         estimate D2E/DX2                !
 ! R2    R(1,6)                  1.4059         estimate D2E/DX2                !
 ! R3    R(1,8)                  1.7655         estimate D2E/DX2                !
 ! R4    R(2,3)                  1.4059         estimate D2E/DX2                !
 ! R5    R(2,9)                  1.7655         estimate D2E/DX2                !
 ! R6    R(3,4)                  1.4059         estimate D2E/DX2                !
 ! R7    R(3,10)                 1.7655         estimate D2E/DX2                !
 ! R8    R(4,5)                  1.4059         estimate D2E/DX2                !
 ! R9    R(5,6)                  1.4059         estimate D2E/DX2                !
 ! R10   R(5,11)                 1.7655         estimate D2E/DX2                !
 ! R11   R(6,7)                  1.7655         estimate D2E/DX2                !
 ! A1    A(2,1,6)              119.9999         estimate D2E/DX2                !
 ! A2    A(2,1,8)              119.9999         estimate D2E/DX2                !
 ! A3    A(6,1,8)              120.0001         estimate D2E/DX2                !
 ! A4    A(1,2,3)              120.0            estimate D2E/DX2                !
 ! A5    A(1,2,9)              120.0001         estimate D2E/DX2                !
 ! A6    A(3,2,9)              119.9999         estimate D2E/DX2                !
 ! A7    A(2,3,4)              120.0001         estimate D2E/DX2                !
 ! A8    A(2,3,10)             120.0            estimate D2E/DX2                !
 ! A9    A(4,3,10)             119.9999         estimate D2E/DX2                !
 ! A10   A(3,4,5)              119.9997         estimate D2E/DX2                !
 ! A11   A(4,5,6)              120.0            estimate D2E/DX2                !
 ! A12   A(4,5,11)             119.9996         estimate D2E/DX2                !
 ! A13   A(6,5,11)             120.0004         estimate D2E/DX2                !
 ! A14   A(1,6,5)              120.0003         estimate D2E/DX2                !
 ! A15   A(1,6,7)              119.9999         estimate D2E/DX2                !
 ! A16   A(5,6,7)              119.9998         estimate D2E/DX2                !
 ! D1    D(6,1,2,3)              0.0            estimate D2E/DX2                !
 ! D2    D(6,1,2,9)            180.0            estimate D2E/DX2                !
 ! D3    D(8,1,2,3)            180.0            estimate D2E/DX2                !
 ! D4    D(8,1,2,9)              0.0            estimate D2E/DX2                !
 ! D5    D(2,1,6,5)              0.0            estimate D2E/DX2                !
 ! D6    D(2,1,6,7)            180.0            estimate D2E/DX2                !
 ! D7    D(8,1,6,5)            180.0            estimate D2E/DX2                !
 ! D8    D(8,1,6,7)              0.0            estimate D2E/DX2                !
 ! D9    D(1,2,3,4)              0.0            estimate D2E/DX2                !
 ! D10   D(1,2,3,10)           180.0            estimate D2E/DX2                !
 ! D11   D(9,2,3,4)            180.0            estimate D2E/DX2                !
 ! D12   D(9,2,3,10)             0.0            estimate D2E/DX2                !
 ! D13   D(2,3,4,5)              0.0            estimate D2E/DX2                !
 ! D14   D(10,3,4,5)           180.0            estimate D2E/DX2                !
 ! D15   D(3,4,5,6)              0.0            estimate D2E/DX2                !
 ! D16   D(3,4,5,11)           180.0            estimate D2E/DX2                !
 ! D17   D(4,5,6,1)              0.0            estimate D2E/DX2                !
 ! D18   D(4,5,6,7)            180.0            estimate D2E/DX2                !
 ! D19   D(11,5,6,1)           180.0            estimate D2E/DX2                !
 ! D20   D(11,5,6,7)             0.0            estimate D2E/DX2                !
 --------------------------------------------------------------------------------
 Trust Radius=3.00D-01 FncErr=1.00D-07 GrdErr=1.00D-07 EigMax=2.50D+02 EigMin=1.00D-04
 Number of steps in this run=     57 maximum allowed number of steps=    100.
 GradGradGradGradGradGradGradGradGradGradGradGradGradGradGradGradGradGrad

                          Input orientation:                          
 ---------------------------------------------------------------------
 Center     Atomic      Atomic             Coordinates (Angstroms)
 Number     Number       Type             X           Y           Z
 ---------------------------------------------------------------------
      1          6           0       -3.209280    0.199430    0.000000
      2          6           0       -2.011500    0.935550    0.000000
      3          6           0       -0.775110    0.266300    0.000000
      4          6           0       -0.736500   -1.139070    0.000000
      5          6           0       -1.934290   -1.875190    0.000000
      6          6           0       -3.170670   -1.205940    0.000000
      7         17           0       -4.674830   -2.130350    0.000000
      8         17           0       -4.761930    1.039870    0.000000
      9         17           0       -2.059980    2.700400    0.000000
     10          1           0        0.729050    1.190710    0.000000
     11          1           0       -1.885800   -3.640030    0.000000
 ---------------------------------------------------------------------
                    Distance matrix (angstroms):
                    1          2          3          4          5
     1  C    0.000000
     2  C    1.405898   0.000000
     3  C    2.435088   1.405900   0.000000
     4  C    2.811801   2.435092   1.405900   0.000000
     5  C    2.435087   2.811800   2.435093   1.405907   0.000000
     6  C    1.405900   2.435088   2.811796   2.435088   1.405892
     7  Cl   2.752401   4.061166   4.577308   4.061167   2.752393
     8  Cl   1.765520   2.752408   4.061175   4.577321   4.061173
     9  Cl   2.752406   1.765516   2.752405   4.061173   4.577316
    10  H    4.061167   2.752403   1.765512   2.752401   4.061173
    11  H    4.061164   4.577306   4.061163   2.752397   1.765506
                    6          7          8          9         10
     6  C    0.000000
     7  Cl   1.765512   0.000000
     8  Cl   2.752412   3.171416   0.000000
     9  Cl   4.061173   5.493049   3.171418   0.000000
    10  H    4.577308   6.342819   5.493051   3.171412   0.000000
    11  H    2.752396   3.171407   5.493049   6.342822   5.493040
                   11
    11  H    0.000000
 Stoichiometry    C6H2Cl3(2)
 Framework group  CS[SG(C6H2Cl3)]
 Deg. of freedom    19
 Full point group                 CS      NOp   2
 Largest Abelian subgroup         CS      NOp   2
 Largest concise Abelian subgroup C1      NOp   1
                         Standard orientation:                         
 ---------------------------------------------------------------------
 Center     Atomic      Atomic             Coordinates (Angstroms)
 Number     Number       Type             X           Y           Z
 ---------------------------------------------------------------------
      1          6           0       -0.000001    0.229981    0.000000
      2          6           0        1.217543   -0.472967    0.000000
      3          6           0        1.217543   -1.878867    0.000000
      4          6           0       -0.000001   -2.581819    0.000000
      5          6           0       -1.217550   -1.878863    0.000000
      6          6           0       -1.217545   -0.472971    0.000000
      7         17           0       -2.746523    0.409785    0.000000
      8         17           0       -0.000000    1.995501    0.000000
      9         17           0        2.746526    0.409789    0.000000
     10          1           0        2.746521   -2.761623    0.000000
     11          1           0       -2.746519   -2.761622    0.000000
 ---------------------------------------------------------------------
 Rotational constants (GHZ):           1.5009622           0.8231885           0.5316242
 Standard basis: VSTO-6G (5D, 7F)
 There are    29 symmetry adapted cartesian basis functions of A'  symmetry.
 There are     9 symmetry adapted cartesian basis functions of A"  symmetry.
 There are    29 symmetry adapted basis functions of A'  symmetry.
 There are     9 symmetry adapted basis functions of A"  symmetry.
    38 basis functions,   228 primitive gaussians,    38 cartesian basis functions
    24 alpha electrons       23 beta electrons
       nuclear repulsion energy       242.5001018460 Hartrees.
 Integral buffers will be    131072 words long.
 Regular integral format.
 Two-electron integral symmetry is turned off.
 Do NDO integrals.
 One-electron integrals computed using PRISM.
 NBasis=    38 RedAO= T EigKep=  1.00D+00  NBF=    29     9
 NBsUse=    38 1.00D-06 EigRej= -1.00D+00 NBFU=    29     9
 Simple Huckel Guess.
 Initial guess orbital symmetries:
 Alpha Orbitals:
       Occupied  (A') (A') (A') (A') (A') (A') (A') (A') (A') (A")
                 (A') (A') (A') (A') (A") (A") (A') (A") (A') (A')
                 (A') (A") (A") (A')
       Virtual   (A") (A") (A') (A') (A") (A') (A') (A') (A') (A')
                 (A') (A') (A') (A')
 Beta  Orbitals:
       Occupied  (A') (A') (A') (A') (A') (A') (A') (A') (A') (A")
                 (A') (A') (A') (A') (A") (A") (A') (A") (A') (A')
                 (A') (A") (A")
       Virtual   (A') (A") (A") (A') (A') (A") (A') (A') (A') (A')
                 (A') (A') (A') (A') (A')
 The electronic state of the initial guess is 2-A'.
 Initial guess <Sx>= 0.0000 <Sy>= 0.0000 <Sz>= 0.5000 <S**2>= 0.7500 S= 0.5000
 Keep J ints in memory in canonical form, NReq=863588.
 Overlap will be assumed to be unity.
 Requested convergence on RMS density matrix=1.00D-08 within  32 cycles.
 Requested convergence on MAX density matrix=1.00D-06.
 Requested convergence on             energy=1.00D-06.
 No special actions if energy rises.
 Fock symm off for IB=2 I1=    1 I=   30 J=   28 Cut=1.00D-07 Err=4.16D-03
 Fock matrix is not symmetric: symmetry in diagonalization turned off.
 Rare condition: small coef for last iteration:  0.000D+00
 Rare condition: small coef for last iteration:  0.000D+00
 Rare condition: small coef for last iteration:  0.000D+00
 Rare condition: small coef for last iteration:  0.000D+00
 Rare condition: small coef for last iteration:  0.000D+00
 Rare condition: small coef for last iteration:  0.000D+00
 Rare condition: small coef for last iteration:  0.000D+00
 Rare condition: small coef for last iteration:  0.000D+00
 Rare condition: small coef for last iteration:  0.000D+00
 Rare condition: small coef for last iteration:  0.000D+00
 Rare condition: small coef for last iteration:  0.000D+00
 Rare condition: small coef for last iteration:  0.000D+00
 Rare condition: small coef for last iteration:  0.000D+00
 Rare condition: small coef for last iteration:  0.000D+00
 >>>>>>>>>> Convergence criterion not met.
 SCF Done:  E(UAM1) =  0.354483881990     A.U. after   33 cycles
            NFock= 32  Conv=0.62D-03     -V/T= 1.0032
 <Sx>= 0.0000 <Sy>= 0.0000 <Sz>= 0.5000 <S**2>= 0.9781 S= 0.6082
 <L.S>=  0.00000000000    
 Annihilation of the first spin contaminant:
 S**2 before annihilation     0.9781,   after     0.7963
 Keep J ints in memory in canonical form, NReq=863988.
 LinEq1:  Iter=  0 NonCon=     1 RMS=2.44D-04 Max=2.82D-03 NDo=     1
 AX will form     1 AO Fock derivatives at one time.
 LinEq1:  Iter=  1 NonCon=     1 RMS=4.20D-05 Max=2.42D-04 NDo=     1
 LinEq1:  Iter=  2 NonCon=     1 RMS=8.62D-06 Max=7.13D-05 NDo=     1
 LinEq1:  Iter=  3 NonCon=     1 RMS=2.12D-06 Max=2.51D-05 NDo=     1
 LinEq1:  Iter=  4 NonCon=     1 RMS=4.83D-07 Max=5.11D-06 NDo=     1
 LinEq1:  Iter=  5 NonCon=     1 RMS=1.53D-07 Max=1.89D-06 NDo=     1
 LinEq1:  Iter=  6 NonCon=     1 RMS=3.76D-08 Max=4.50D-07 NDo=     1
 LinEq1:  Iter=  7 NonCon=     1 RMS=6.08D-09 Max=3.42D-08 NDo=     1
 LinEq1:  Iter=  8 NonCon=     0 RMS=8.50D-10 Max=4.95D-09 NDo=     1
 Linear equations converged to 2.610D-09 2.610D-08 after     8 iterations.
 Incorrect curvature in search direction -- initial direction reversed.
     Accept linear search using points  3 and  4.
     Minimum is close to point  4 DX= -1.09D-01 DF= -5.94D-05 DXR=  5.45D-02 DFR=  8.16D-03 which will be used.
 Gradient too large for Newton-Raphson -- use scaled steepest descent instead.
 Gradient too large for Newton-Raphson -- use scaled steepest descent instead.
     Minimum is close to point  3 DX=  7.56D-02 DF= -9.32D-07 DXR=  3.18D-02 DFR=  1.01D-03 which will be used.
 Gradient too large for Newton-Raphson -- use scaled steepest descent instead.
 Gradient too large for Newton-Raphson -- use scaled steepest descent instead.
 Gradient too large for Newton-Raphson -- use scaled steepest descent instead.
     Minimum is close to point  2 DX=  2.81D-02 DF= -6.48D-08 DXR=  1.21D-02 DFR=  1.46D-04 which will be used.
 Gradient too large for Newton-Raphson -- use scaled steepest descent instead.
 LinEq1:  Iter=  0 NonCon=     1 RMS=6.65D-04 Max=6.68D-03 NDo=     1
 LinEq1:  Iter=  1 NonCon=     1 RMS=3.10D-04 Max=2.68D-03 NDo=     1
 LinEq1:  Iter=  2 NonCon=     1 RMS=1.51D-05 Max=1.25D-04 NDo=     1
 LinEq1:  Iter=  3 NonCon=     1 RMS=3.46D-06 Max=3.62D-05 NDo=     1
 LinEq1:  Iter=  4 NonCon=     1 RMS=8.67D-07 Max=6.31D-06 NDo=     1
 LinEq1:  Iter=  5 NonCon=     1 RMS=1.23D-07 Max=7.48D-07 NDo=     1
 LinEq1:  Iter=  6 NonCon=     1 RMS=1.77D-08 Max=1.42D-07 NDo=     1
 LinEq1:  Iter=  7 NonCon=     1 RMS=2.79D-09 Max=2.54D-08 NDo=     1
 LinEq1:  Iter=  8 NonCon=     0 RMS=5.16D-10 Max=4.41D-09 NDo=     1
 Linear equations converged to 2.610D-09 2.610D-08 after     8 iterations.
     Accept linear search using points  1 and  2.
 LinEq1:  Iter=  0 NonCon=     1 RMS=1.93D-04 Max=1.89D-03 NDo=     1
 LinEq1:  Iter=  1 NonCon=     1 RMS=2.85D-05 Max=2.58D-04 NDo=     1
 LinEq1:  Iter=  2 NonCon=     1 RMS=5.98D-06 Max=6.44D-05 NDo=     1
 LinEq1:  Iter=  3 NonCon=     1 RMS=1.54D-06 Max=1.37D-05 NDo=     1
 LinEq1:  Iter=  4 NonCon=     1 RMS=3.10D-07 Max=2.61D-06 NDo=     1
 LinEq1:  Iter=  5 NonCon=     1 RMS=6.11D-08 Max=4.40D-07 NDo=     1
 LinEq1:  Iter=  6 NonCon=     1 RMS=1.27D-08 Max=9.80D-08 NDo=     1
 LinEq1:  Iter=  7 NonCon=     1 RMS=3.35D-09 Max=3.89D-08 NDo=     1
 LinEq1:  Iter=  8 NonCon=     0 RMS=6.45D-10 Max=5.82D-09 NDo=     1
 Linear equations converged to 2.610D-09 2.610D-08 after     8 iterations.
     Minimum is close to point  2 DX=  6.98D-04 DF= -7.60D-12 DXR=  6.98D-04 DFR=  4.87D-07 which will be used.
 LinEq1:  Iter=  0 NonCon=     1 RMS=3.78D-07 Max=3.02D-06 NDo=     1
 LinEq1:  Iter=  1 NonCon=     1 RMS=8.67D-08 Max=8.89D-07 NDo=     1
 LinEq1:  Iter=  2 NonCon=     1 RMS=2.16D-08 Max=1.51D-07 NDo=     1
 LinEq1:  Iter=  3 NonCon=     1 RMS=5.98D-09 Max=5.69D-08 NDo=     1
 LinEq1:  Iter=  4 NonCon=     1 RMS=1.30D-09 Max=8.69D-09 NDo=     1
 LinEq1:  Iter=  5 NonCon=     1 RMS=2.46D-10 Max=2.65D-09 NDo=     1
 LinEq1:  Iter=  6 NonCon=     1 RMS=5.93D-11 Max=7.25D-10 NDo=     1
 LinEq1:  Iter=  7 NonCon=     0 RMS=1.34D-11 Max=1.33D-10 NDo=     1
 Linear equations converged to 5.837D-11 5.837D-10 after     7 iterations.
 SCF Done:  E(UAM1) =  0.341205093665     a.u. after   11 cycles
            Convg  =    0.8318D-07                    61 Fock formations.
              S**2 =  1.8423                  -V/T =  1.0031
 <Sx>= 0.0000 <Sy>= 0.0000 <Sz>= 0.5000 <S**2>= 1.8423 S= 0.9465
 <L.S>=  0.00000000000    
 Annihilation of the first spin contaminant:
 S**2 before annihilation     1.8423,   after     2.4348

 **********************************************************************

            Population analysis using the SCF Density.

 **********************************************************************

 Orbital symmetries:
 Alpha Orbitals:
       Occupied  (A') (A') (A') (A') (A') (A') (A') (A') (A') (A')
                 (A') (A") (A') (A") (A') (A") (A') (A') (A") (A')
                 (A') (A') (A") (A")
       Virtual   (A') (A") (A') (A') (A") (A') (A') (A") (A') (A')
                 (A') (A') (A') (A')
 Beta  Orbitals:
       Occupied  (A') (A') (A') (A') (A') (A') (A') (A') (A') (A')
                 (A') (A") (A') (A") (A') (A") (A') (A') (A") (A')
                 (A') (A") (A")
       Virtual   (A') (A") (A') (A") (A') (A') (A') (A') (A") (A')
                 (A') (A') (A') (A') (A')
 The electronic state is 2-A'.
 Alpha  occ. eigenvalues --   -1.44554  -1.38565  -1.37513  -1.36068  -1.13005
 Alpha  occ. eigenvalues --   -1.12518  -0.84987  -0.83316  -0.66117  -0.62395
 Alpha  occ. eigenvalues --   -0.57801  -0.56052  -0.55061  -0.49625  -0.47851
 Alpha  occ. eigenvalues --   -0.46550  -0.45522  -0.45517  -0.45119  -0.43846
 Alpha  occ. eigenvalues --   -0.41192  -0.40736  -0.38008  -0.37093
 Alpha virt. eigenvalues --   -0.01658  -0.00507   0.00515   0.00913   0.01298
 Alpha virt. eigenvalues --    0.03733   0.03986   0.07962   0.13284   0.13292
 Alpha virt. eigenvalues --    0.15164   0.16106   0.16695   0.18214
  Beta  occ. eigenvalues --   -1.44478  -1.38437  -1.37523  -1.35999  -1.13084
  Beta  occ. eigenvalues --   -1.11893  -0.84976  -0.83153  -0.65203  -0.62211
  Beta  occ. eigenvalues --   -0.57838  -0.55953  -0.54957  -0.48563  -0.47467
  Beta  occ. eigenvalues --   -0.47091  -0.45661  -0.45514  -0.44552  -0.43816
  Beta  occ. eigenvalues --   -0.40626  -0.38148  -0.37242
  Beta virt. eigenvalues --   -0.02246  -0.00671   0.00843   0.00901   0.02002
  Beta virt. eigenvalues --    0.02014   0.04076   0.04548   0.08263   0.13169
  Beta virt. eigenvalues --    0.13386   0.15177   0.15997   0.16731   0.19183
          Condensed to atoms (all electrons):
               1          2          3          4          5          6
     1  C    4.044680   0.000000   0.000000   0.000000   0.000000   0.000000
     2  C    0.000000   4.029689   0.000000   0.000000   0.000000   0.000000
     3  C    0.000000   0.000000   4.132602   0.000000   0.000000   0.000000
     4  C    0.000000   0.000000   0.000000   4.020080   0.000000   0.000000
     5  C    0.000000   0.000000   0.000000   0.000000   4.132603   0.000000
     6  C    0.000000   0.000000   0.000000   0.000000   0.000000   4.029691
     7  Cl   0.000000   0.000000   0.000000   0.000000   0.000000   0.000000
     8  Cl   0.000000   0.000000   0.000000   0.000000   0.000000   0.000000
     9  Cl   0.000000   0.000000   0.000000   0.000000   0.000000   0.000000
    10  H    0.000000   0.000000   0.000000   0.000000   0.000000   0.000000
    11  H    0.000000   0.000000   0.000000   0.000000   0.000000   0.000000
               7          8          9         10         11
     1  C    0.000000   0.000000   0.000000   0.000000   0.000000
     2  C    0.000000   0.000000   0.000000   0.000000   0.000000
     3  C    0.000000   0.000000   0.000000   0.000000   0.000000
     4  C    0.000000   0.000000   0.000000   0.000000   0.000000
     5  C    0.000000   0.000000   0.000000   0.000000   0.000000
     6  C    0.000000   0.000000   0.000000   0.000000   0.000000
     7  Cl   7.004023   0.000000   0.000000   0.000000   0.000000
     8  Cl   0.000000   6.988789   0.000000   0.000000   0.000000
     9  Cl   0.000000   0.000000   7.004023   0.000000   0.000000
    10  H    0.000000   0.000000   0.000000   0.806911   0.000000
    11  H    0.000000   0.000000   0.000000   0.000000   0.806907
          Atomic-Atomic Spin Densities.
               1          2          3          4          5          6
     1  C   -0.550386   0.000000   0.000000   0.000000   0.000000   0.000000
     2  C    0.000000   0.564157   0.000000   0.000000   0.000000   0.000000
     3  C    0.000000   0.000000  -0.960646   0.000000   0.000000   0.000000
     4  C    0.000000   0.000000   0.000000   1.478755   0.000000   0.000000
     5  C    0.000000   0.000000   0.000000   0.000000  -0.960626   0.000000
     6  C    0.000000   0.000000   0.000000   0.000000   0.000000   0.564150
     7  Cl   0.000000   0.000000   0.000000   0.000000   0.000000   0.000000
     8  Cl   0.000000   0.000000   0.000000   0.000000   0.000000   0.000000
     9  Cl   0.000000   0.000000   0.000000   0.000000   0.000000   0.000000
    10  H    0.000000   0.000000   0.000000   0.000000   0.000000   0.000000
    11  H    0.000000   0.000000   0.000000   0.000000   0.000000   0.000000
               7          8          9         10         11
     1  C    0.000000   0.000000   0.000000   0.000000   0.000000
     2  C    0.000000   0.000000   0.000000   0.000000   0.000000
     3  C    0.000000   0.000000   0.000000   0.000000   0.000000
     4  C    0.000000   0.000000   0.000000   0.000000   0.000000
     5  C    0.000000   0.000000   0.000000   0.000000   0.000000
     6  C    0.000000   0.000000   0.000000   0.000000   0.000000
     7  Cl  -0.000701   0.000000   0.000000   0.000000   0.000000
     8  Cl   0.000000   0.003277   0.000000   0.000000   0.000000
     9  Cl   0.000000   0.000000  -0.000701   0.000000   0.000000
    10  H    0.000000   0.000000   0.000000   0.431369   0.000000
    11  H    0.000000   0.000000   0.000000   0.000000   0.431352
 Mulliken charges and spin densities:
               1          2
     1  C   -0.044680  -0.550386
     2  C   -0.029689   0.564157
     3  C   -0.132602  -0.960646
     4  C   -0.020080   1.478755
     5  C   -0.132603  -0.960626
     6  C   -0.029691   0.564150
     7  Cl  -0.004023  -0.000701
     8  Cl   0.011211   0.003277
     9  Cl  -0.004023  -0.000701
    10  H    0.193089   0.431369
    11  H    0.193093   0.431352
 Sum of Mulliken charges =  -0.00000   1.00000
 Mulliken charges and spin densities with hydrogens summed into heavy atoms:
               1          2
     1  C   -0.044680  -0.550386
     2  C   -0.029689   0.564157
     3  C    0.060487  -0.529276
     4  C   -0.020080   1.478755
     5  C    0.060490  -0.529275
     6  C   -0.029691   0.564150
     7  Cl  -0.004023  -0.000701
     8  Cl   0.011211   0.003277
     9  Cl  -0.004023  -0.000701
 Charge=             -0.0000 electrons
 Dipole moment (field-independent basis, Debye):
    X=             -0.0000    Y=             -2.0712    Z=              0.0000  Tot=              2.0712
 N-N= 2.425001018460D+02 E-N=-3.384114967915D+02  KE=-1.117723532775D+02
 Symmetry A'   KE=-8.579122279146D+01
 Symmetry A"   KE=-2.598113048599D+01
 Symmetry A'   SP= 1.000000000000D+00
 Symmetry A"   SP=-5.551115123126D-16
 Calling FoFJK, ICntrl=      2127 FMM=F ISym2X=1 I1Cent= 0 IOpClX= 1 NMat=1 NMatS=1 NMatT=0.
 ***** Axes restored to original set *****
 -------------------------------------------------------------------
 Center     Atomic                   Forces (Hartrees/Bohr)
 Number     Number              X              Y              Z
 -------------------------------------------------------------------
      1        6          -0.032527885    0.017607899    0.000000000
      2        6           0.018874529    0.030543054    0.000000000
      3        6           0.071974118    0.010376596    0.000000000
      4        6          -0.060351668    0.032665202    0.000000000
      5        6           0.030676401   -0.065938182    0.000000000
      6        6          -0.015257380   -0.032500049    0.000000000
      7       17           0.035589702    0.018533136    0.000000000
      8       17           0.034888844   -0.018885355   -0.000000000
      9       17           0.003943126   -0.039934614    0.000000000
     10        1          -0.084819527   -0.051821955   -0.000000000
     11        1          -0.002990260    0.099354270   -0.000000000
 -------------------------------------------------------------------
 Cartesian Forces:  Max     0.099354270 RMS     0.036426278

 GradGradGradGradGradGradGradGradGradGradGradGradGradGradGradGradGradGrad
 Berny optimization.
 FormGI is forming the generalized inverse of G from B-inverse, IUseBI=4.
 Internal  Forces:  Max     0.099398917 RMS     0.026186214
 Search for a local minimum.
 Step number   1 out of a maximum of   57
 All quantities printed in internal units (Hartrees-Bohrs-Radians)
 Mixed Optimization -- RFO/linear search
 Second derivative matrix not updated -- first step.
 ITU=  0
     Eigenvalues ---    0.02011   0.02011   0.02011   0.02011   0.02011
     Eigenvalues ---    0.02011   0.02011   0.02011   0.06524   0.06524
     Eigenvalues ---    0.16000   0.16000   0.23229   0.23477   0.25000
     Eigenvalues ---    0.25000   0.25000   0.25000   0.29033   0.29033
     Eigenvalues ---    0.29033   0.40971   0.41556   0.44656   0.44657
     Eigenvalues ---    0.44657   0.44657
 RFO step:  Lambda=-1.27773537D-01 EMin= 2.01067519D-02
 Linear search not attempted -- first point.
 Maximum step size (   0.300) exceeded in Quadratic search.
    -- Step size scaled by   0.393
 Iteration  1 RMS(Cart)=  0.04856630 RMS(Int)=  0.00050838
 Iteration  2 RMS(Cart)=  0.00055211 RMS(Int)=  0.00002636
 Iteration  3 RMS(Cart)=  0.00000020 RMS(Int)=  0.00002636
 ClnCor:  largest displacement from symmetrization is 1.50D-08 for atom     7.
 Variable       Old X    -DE/DX   Delta X   Delta X   Delta X     New X
                                 (Linear)    (Quad)   (Total)
    R1        2.65676   0.00029   0.00000   0.00120   0.00117   2.65793
    R2        2.65677   0.00029   0.00000   0.00120   0.00117   2.65793
    R3        3.33635  -0.03967   0.00000  -0.03727  -0.03727   3.29908
    R4        2.65677  -0.02588   0.00000  -0.01770  -0.01770   2.63907
    R5        3.33634  -0.04003   0.00000  -0.03760  -0.03760   3.29874
    R6        2.65677  -0.05272   0.00000  -0.03706  -0.03703   2.61974
    R7        3.33633  -0.09940   0.00000  -0.20228  -0.20228   3.13406
    R8        2.65678  -0.05273   0.00000  -0.03706  -0.03703   2.61975
    R9        2.65675  -0.02587   0.00000  -0.01769  -0.01769   2.63906
   R10        3.33632  -0.09940   0.00000  -0.20228  -0.20228   3.13404
   R11        3.33633  -0.04003   0.00000  -0.03760  -0.03760   3.29873
    A1        2.09439  -0.00676   0.00000  -0.00360  -0.00368   2.09071
    A2        2.09439   0.00338   0.00000   0.00180   0.00184   2.09624
    A3        2.09440   0.00338   0.00000   0.00180   0.00184   2.09624
    A4        2.09439  -0.00664   0.00000  -0.00504  -0.00508   2.08932
    A5        2.09440   0.00807   0.00000   0.00745   0.00747   2.10187
    A6        2.09439  -0.00143   0.00000  -0.00242  -0.00240   2.09200
    A7        2.09440  -0.00112   0.00000  -0.00263  -0.00260   2.09180
    A8        2.09440   0.00012   0.00000   0.00072   0.00071   2.09510
    A9        2.09439   0.00099   0.00000   0.00191   0.00189   2.09628
   A10        2.09439   0.02228   0.00000   0.01893   0.01903   2.11343
   A11        2.09439  -0.00112   0.00000  -0.00263  -0.00260   2.09180
   A12        2.09439   0.00099   0.00000   0.00191   0.00189   2.09628
   A13        2.09440   0.00012   0.00000   0.00072   0.00071   2.09511
   A14        2.09440  -0.00664   0.00000  -0.00504  -0.00508   2.08932
   A15        2.09439   0.00807   0.00000   0.00745   0.00747   2.10187
   A16        2.09439  -0.00143   0.00000  -0.00242  -0.00239   2.09200
    D1        0.00000   0.00000   0.00000   0.00000   0.00000   0.00000
    D2        3.14159  -0.00000   0.00000  -0.00000   0.00000   3.14159
    D3        3.14159   0.00000   0.00000   0.00000   0.00000   3.14159
    D4        0.00000   0.00000   0.00000   0.00000   0.00000   0.00000
    D5        0.00000   0.00000   0.00000   0.00000   0.00000   0.00000
    D6        3.14159   0.00000   0.00000   0.00000   0.00000   3.14159
    D7        3.14159  -0.00000   0.00000  -0.00000   0.00000   3.14159
    D8        0.00000  -0.00000   0.00000  -0.00000   0.00000   0.00000
    D9        0.00000  -0.00000   0.00000  -0.00000   0.00000   0.00000
   D10        3.14159  -0.00000   0.00000  -0.00000   0.00000   3.14159
   D11        3.14159   0.00000   0.00000   0.00000   0.00000   3.14159
   D12        0.00000  -0.00000   0.00000  -0.00000   0.00000   0.00000
   D13        0.00000   0.00000   0.00000   0.00000   0.00000   0.00000
   D14        3.14159   0.00000   0.00000   0.00000   0.00000   3.14159
   D15        0.00000   0.00000   0.00000   0.00000   0.00000   0.00000
   D16        3.14159  -0.00000   0.00000  -0.00000   0.00000   3.14159
   D17        0.00000  -0.00000   0.00000  -0.00000   0.00000   0.00000
   D18        3.14159  -0.00000   0.00000  -0.00000   0.00000   3.14159
   D19        3.14159   0.00000   0.00000   0.00000   0.00000   3.14159
   D20        0.00000   0.00000   0.00000   0.00000   0.00000   0.00000
         Item               Value     Threshold  Converged?
 Maximum Force            0.099399     0.000450     NO 
 RMS     Force            0.026186     0.000300     NO 
 Maximum Displacement     0.221316     0.001800     NO 
 RMS     Displacement     0.049021     0.001200     NO 
 Predicted change in Energy=-4.608151D-02
 GradGradGradGradGradGradGradGradGradGradGradGradGradGradGradGradGradGrad

                          Input orientation:                          
 ---------------------------------------------------------------------
 Center     Atomic      Atomic             Coordinates (Angstroms)
 Number     Number       Type             X           Y           Z
 ---------------------------------------------------------------------
      1          6           0       -3.204274    0.196720    0.000000
      2          6           0       -2.004614    0.930956    0.000000
      3          6           0       -0.781090    0.257681    0.000000
      4          6           0       -0.756208   -1.128403    0.000000
      5          6           0       -1.930342   -1.865471    0.000000
      6          6           0       -3.163059   -1.209193    0.000000
      7         17           0       -4.641689   -2.136998    0.000000
      8         17           0       -4.739579    1.027772    0.000000
      9         17           0       -2.036291    2.676285    0.000000
     10          1           0        0.638456    1.115246    0.000000
     11          1           0       -1.872151   -3.522915    0.000000
 ---------------------------------------------------------------------
                    Distance matrix (angstroms):
                    1          2          3          4          5
     1  C    0.000000
     2  C    1.406515   0.000000
     3  C    2.423951   1.396535   0.000000
     4  C    2.783699   2.408210   1.386307   0.000000
     5  C    2.423951   2.797413   2.414241   1.386312   0.000000
     6  C    1.406518   2.433564   2.797410   2.408207   1.396529
     7  Cl   2.740876   4.045554   4.542986   4.014253   2.724909
     8  Cl   1.745797   2.736678   4.032701   4.529496   4.032700
     9  Cl   2.740880   1.745617   2.724917   4.014257   4.542992
    10  H    3.950983   2.649487   1.658471   2.641788   3.934895
    11  H    3.950979   4.455840   3.934885   2.641783   1.658464
                    6          7          8          9         10
     6  C    0.000000
     7  Cl   1.745614   0.000000
     8  Cl   2.736682   3.166283   0.000000
     9  Cl   4.045559   5.473188   3.166285   0.000000
    10  H    4.455843   6.201373   5.378747   3.096952   0.000000
    11  H    2.649481   3.096951   5.378745   6.201372   5.274057
                   11
    11  H    0.000000
 Stoichiometry    C6H2Cl3(2)
 Framework group  CS[SG(C6H2Cl3)]
 Deg. of freedom    19
 Full point group                 CS      NOp   2
 Largest Abelian subgroup         CS      NOp   2
 Largest concise Abelian subgroup C1      NOp   1
                         Standard orientation:                         
 ---------------------------------------------------------------------
 Center     Atomic      Atomic             Coordinates (Angstroms)
 Number     Number       Type             X           Y           Z
 ---------------------------------------------------------------------
      1          6           0       -0.000001    0.240333    0.000000
      2          6           0        1.216781   -0.465166    0.000000
      3          6           0        1.207118   -1.861667    0.000000
      4          6           0       -0.000001   -2.543366    0.000000
      5          6           0       -1.207123   -1.861665    0.000000
      6          6           0       -1.216783   -0.465169    0.000000
      7         17           0       -2.736593    0.393519    0.000000
      8         17           0       -0.000000    1.986130    0.000000
      9         17           0        2.736595    0.393520    0.000000
     10          1           0        2.637031   -2.701832    0.000000
     11          1           0       -2.637026   -2.701832    0.000000
 ---------------------------------------------------------------------
 Rotational constants (GHZ):           1.5323131           0.8308312           0.5387286
 Standard basis: VSTO-6G (5D, 7F)
 There are    29 symmetry adapted cartesian basis functions of A'  symmetry.
 There are     9 symmetry adapted cartesian basis functions of A"  symmetry.
 There are    29 symmetry adapted basis functions of A'  symmetry.
 There are     9 symmetry adapted basis functions of A"  symmetry.
    38 basis functions,   228 primitive gaussians,    38 cartesian basis functions
    24 alpha electrons       23 beta electrons
       nuclear repulsion energy       243.8359457786 Hartrees.
 Integral buffers will be    131072 words long.
 Regular integral format.
 Two-electron integral symmetry is turned off.
 Do NDO integrals.
 One-electron integrals computed using PRISM.
 NBasis=    38 RedAO= T EigKep=  1.00D+00  NBF=    29     9
 NBsUse=    38 1.00D-06 EigRej= -1.00D+00 NBFU=    29     9
 Initial guess from the checkpoint file:  "geometry_chks/123_ClBzNeutralRadical.chk"
 B after Tr=    -0.000000   -0.000000    0.000000
         Rot=    1.000000    0.000000    0.000000    0.000000 Ang=   0.00 deg.
 Initial guess orbital symmetries:
 Alpha Orbitals:
       Occupied  (A') (A') (A') (A') (A') (A') (A') (A') (A') (A')
                 (A') (A") (A') (A") (A') (A") (A') (A') (A") (A')
                 (A') (A') (A") (A")
       Virtual   (A') (A") (A') (A') (A") (A') (A') (A") (A') (A')
                 (A') (A') (A') (A')
 Beta  Orbitals:
       Occupied  (A') (A') (A') (A') (A') (A') (A') (A') (A') (A')
                 (A') (A") (A') (A") (A') (A") (A') (A') (A") (A')
                 (A') (A") (A")
       Virtual   (A') (A") (A') (A") (A') (A') (A') (A') (A") (A')
                 (A') (A') (A') (A') (A')
 Initial guess <Sx>= 0.0000 <Sy>= 0.0000 <Sz>= 0.5000 <S**2>= 1.8423 S= 0.9465
 Keep J ints in memory in canonical form, NReq=863588.
 Overlap will be assumed to be unity.
 Requested convergence on RMS density matrix=1.00D-08 within  32 cycles.
 Requested convergence on MAX density matrix=1.00D-06.
 Requested convergence on             energy=1.00D-06.
 No special actions if energy rises.
 Fock symm off for IB=2 I1=    1 I=   30 J=   15 Cut=1.00D-07 Err=2.71D-03
 Fock matrix is not symmetric: symmetry in diagonalization turned off.
 SCF Done:  E(UAM1) =  0.288391966451     A.U. after   17 cycles
            NFock= 16  Conv=0.64D-08     -V/T= 1.0026
 <Sx>= 0.0000 <Sy>= 0.0000 <Sz>= 0.5000 <S**2>= 1.3984 S= 0.7839
 <L.S>=  0.00000000000    
 Annihilation of the first spin contaminant:
 S**2 before annihilation     1.3984,   after     1.2004
 QCSCF skips out because SCF is already converged.
 Calling FoFJK, ICntrl=      2127 FMM=F ISym2X=1 I1Cent= 0 IOpClX= 1 NMat=1 NMatS=1 NMatT=0.
 ***** Axes restored to original set *****
 -------------------------------------------------------------------
 Center     Atomic                   Forces (Hartrees/Bohr)
 Number     Number              X              Y              Z
 -------------------------------------------------------------------
      1        6          -0.028341851    0.015341465    0.000000000
      2        6           0.009835057    0.027243984   -0.000000000
      3        6           0.100909934    0.036883084   -0.000000000
      4        6          -0.039903343    0.021596908   -0.000000000
      5        6           0.024303151   -0.104656988    0.000000000
      6        6          -0.017436570   -0.023128415    0.000000000
      7       17           0.026570971    0.014336622    0.000000000
      8       17           0.026731029   -0.014469558   -0.000000000
      9       17           0.002525247   -0.030088104   -0.000000000
     10        1          -0.100698836   -0.060395440   -0.000000000
     11        1          -0.004494789    0.117336443   -0.000000000
 -------------------------------------------------------------------
 Cartesian Forces:  Max     0.117336443 RMS     0.041990331

 GradGradGradGradGradGradGradGradGradGradGradGradGradGradGradGradGradGrad
 Berny optimization.
 Using GEDIIS/GDIIS optimizer.
 FormGI is forming the generalized inverse of G from B-inverse, IUseBI=4.
 Internal  Forces:  Max     0.117421904 RMS     0.026443749
 Search for a local minimum.
 Step number   2 out of a maximum of   57
 All quantities printed in internal units (Hartrees-Bohrs-Radians)
 Mixed Optimization -- RFO/linear search
 Update second derivatives using D2CorX and points    1    2
 DE= -5.28D-02 DEPred=-4.61D-02 R= 1.15D+00
 TightC=F SS=  1.41D+00  RLast= 3.00D-01 DXNew= 5.0454D-01 9.0000D-01
 Trust test= 1.15D+00 RLast= 3.00D-01 DXMaxT set to 5.05D-01
 ITU=  1  0
 Use linear search instead of GDIIS.
     Eigenvalues ---   -0.38576   0.02011   0.02011   0.02011   0.02011
     Eigenvalues ---    0.02011   0.02011   0.02011   0.02011   0.03097
     Eigenvalues ---    0.06524   0.15999   0.16000   0.23123   0.23465
     Eigenvalues ---    0.24999   0.25000   0.25000   0.25087   0.29032
     Eigenvalues ---    0.29033   0.32550   0.40959   0.42408   0.44651
     Eigenvalues ---    0.44656   0.44657
 RFO step:  Lambda=-3.97260026D-01 EMin=-3.85759080D-01
 Skip linear search -- no minimum in search direction.
 Maximum step size (   0.505) exceeded in Quadratic search.
    -- Step size scaled by   0.469
 Iteration  1 RMS(Cart)=  0.04501155 RMS(Int)=  0.02414334
 Iteration  2 RMS(Cart)=  0.02369548 RMS(Int)=  0.00016041
 Iteration  3 RMS(Cart)=  0.00003519 RMS(Int)=  0.00015927
 Iteration  4 RMS(Cart)=  0.00000000 RMS(Int)=  0.00015927
 ClnCor:  largest displacement from symmetrization is 1.91D-10 for atom    11.
 Variable       Old X    -DE/DX   Delta X   Delta X   Delta X     New X
                                 (Linear)    (Quad)   (Total)
    R1        2.65793   0.00411   0.00000   0.02464   0.02443   2.68236
    R2        2.65793   0.00411   0.00000   0.02464   0.02443   2.68236
    R3        3.29908  -0.03040   0.00000   0.04499   0.04499   3.34407
    R4        2.63907  -0.01131   0.00000   0.08158   0.08158   2.72065
    R5        3.29874  -0.03013   0.00000   0.04977   0.04977   3.34851
    R6        2.61974  -0.02980   0.00000   0.12203   0.12224   2.74198
    R7        3.13406  -0.11742   0.00000  -0.31649  -0.31649   2.81757
    R8        2.61975  -0.02980   0.00000   0.12203   0.12224   2.74200
    R9        2.63906  -0.01131   0.00000   0.08157   0.08157   2.72062
   R10        3.13404  -0.11742   0.00000  -0.31648  -0.31648   2.81757
   R11        3.29873  -0.03013   0.00000   0.04977   0.04977   3.34850
    A1        2.09071  -0.00373   0.00000   0.01751   0.01703   2.10775
    A2        2.09624   0.00187   0.00000  -0.00875  -0.00852   2.08772
    A3        2.09624   0.00187   0.00000  -0.00875  -0.00852   2.08772
    A4        2.08932  -0.00390   0.00000   0.01666   0.01640   2.10572
    A5        2.10187   0.00521   0.00000  -0.01721  -0.01708   2.08479
    A6        2.09200  -0.00131   0.00000   0.00055   0.00068   2.09268
    A7        2.09180  -0.00344   0.00000  -0.02015  -0.01996   2.07184
    A8        2.09510   0.00113   0.00000   0.00817   0.00807   2.10317
    A9        2.09628   0.00231   0.00000   0.01198   0.01189   2.10818
   A10        2.11343   0.01842   0.00000  -0.01052  -0.00991   2.10352
   A11        2.09180  -0.00344   0.00000  -0.02015  -0.01996   2.07184
   A12        2.09628   0.00231   0.00000   0.01198   0.01189   2.10817
   A13        2.09511   0.00113   0.00000   0.00816   0.00807   2.10318
   A14        2.08932  -0.00390   0.00000   0.01666   0.01640   2.10572
   A15        2.10187   0.00521   0.00000  -0.01721  -0.01708   2.08479
   A16        2.09200  -0.00131   0.00000   0.00055   0.00068   2.09268
    D1        0.00000  -0.00000   0.00000  -0.00000   0.00000   0.00000
    D2        3.14159  -0.00000   0.00000  -0.00000   0.00000   3.14159
    D3        3.14159   0.00000   0.00000   0.00000   0.00000   3.14159
    D4        0.00000   0.00000   0.00000   0.00000   0.00000   0.00000
    D5        0.00000   0.00000   0.00000   0.00000   0.00000   0.00000
    D6        3.14159   0.00000   0.00000   0.00000   0.00000   3.14159
    D7        3.14159  -0.00000   0.00000  -0.00000   0.00000   3.14159
    D8        0.00000  -0.00000   0.00000  -0.00000   0.00000   0.00000
    D9        0.00000   0.00000   0.00000   0.00000   0.00000   0.00000
   D10        3.14159  -0.00000   0.00000   0.00000   0.00000   3.14159
   D11        3.14159   0.00000   0.00000   0.00000   0.00000   3.14159
   D12        0.00000   0.00000   0.00000   0.00000   0.00000   0.00000
   D13        0.00000  -0.00000   0.00000  -0.00000   0.00000   0.00000
   D14        3.14159   0.00000   0.00000  -0.00000   0.00000   3.14159
   D15        0.00000  -0.00000   0.00000  -0.00000   0.00000   0.00000
   D16        3.14159  -0.00000   0.00000  -0.00000   0.00000   3.14159
   D17        0.00000   0.00000   0.00000   0.00000   0.00000   0.00000
   D18        3.14159  -0.00000   0.00000  -0.00000   0.00000   3.14159
   D19        3.14159   0.00000   0.00000   0.00000   0.00000   3.14159
   D20        0.00000   0.00000   0.00000   0.00000   0.00000   0.00000
         Item               Value     Threshold  Converged?
 Maximum Force            0.117422     0.000450     NO 
 RMS     Force            0.026444     0.000300     NO 
 Maximum Displacement     0.182084     0.001800     NO 
 RMS     Displacement     0.057083     0.001200     NO 
 Predicted change in Energy=-1.024906D-01
 GradGradGradGradGradGradGradGradGradGradGradGradGradGradGradGradGradGrad

                          Input orientation:                          
 ---------------------------------------------------------------------
 Center     Atomic      Atomic             Coordinates (Angstroms)
 Number     Number       Type             X           Y           Z
 ---------------------------------------------------------------------
      1          6           0       -3.194327    0.191336    0.000000
      2          6           0       -1.989995    0.942605    0.000000
      3          6           0       -0.711748    0.280161    0.000000
      4          6           0       -0.678519   -1.170454    0.000000
      5          6           0       -1.911250   -1.935817    0.000000
      6          6           0       -3.164817   -1.227803    0.000000
      7         17           0       -4.689366   -2.130882    0.000000
      8         17           0       -4.750568    1.033718    0.000000
      9         17           0       -2.067485    2.712864    0.000000
     10          1           0        0.551280    1.072512    0.000000
     11          1           0       -1.884044   -3.426560    0.000000
 ---------------------------------------------------------------------
                    Distance matrix (angstroms):
                    1          2          3          4          5
     1  C    0.000000
     2  C    1.419444   0.000000
     3  C    2.484167   1.439704   0.000000
     4  C    2.860727   2.486964   1.450995   0.000000
     5  C    2.484162   2.879499   2.519794   1.451002   0.000000
     6  C    1.419445   2.467971   2.879496   2.486959   1.439692
     7  Cl   2.761854   4.090591   4.651298   4.124235   2.784956
     8  Cl   1.769603   2.762077   4.108518   4.630331   4.108511
     9  Cl   2.761861   1.771954   2.784972   4.124244   4.651306
    10  H    3.847862   2.544593   1.490993   2.557988   3.887685
    11  H    3.847858   4.370450   3.887680   2.557988   1.490991
                    6          7          8          9         10
     6  C    0.000000
     7  Cl   1.771949   0.000000
     8  Cl   2.762080   3.165192   0.000000
     9  Cl   4.090598   5.507825   3.165196   0.000000
    10  H    4.370449   6.142158   5.301990   3.090095   0.000000
    11  H    2.544585   3.090083   5.301985   6.142164   5.115902
                   11
    11  H    0.000000
 Stoichiometry    C6H2Cl3(2)
 Framework group  CS[SG(C6H2Cl3)]
 Deg. of freedom    19
 Full point group                 CS      NOp   2
 Largest Abelian subgroup         CS      NOp   2
 Largest concise Abelian subgroup C1      NOp   1
                         Standard orientation:                         
 ---------------------------------------------------------------------
 Center     Atomic      Atomic             Coordinates (Angstroms)
 Number     Number       Type             X           Y           Z
 ---------------------------------------------------------------------
      1          6           0        0.000000    0.222721    0.000000
      2          6           0        1.233983   -0.478784    0.000000
      3          6           0        1.259885   -1.918254    0.000000
      4          6           0       -0.000014   -2.638006    0.000000
      5          6           0       -1.259909   -1.918235    0.000000
      6          6           0       -1.233988   -0.478776    0.000000
      7         17           0       -2.753908    0.432072    0.000000
      8         17           0        0.000008    1.992324    0.000000
      9         17           0        2.753917    0.432052    0.000000
     10          1           0        2.557937   -2.651823    0.000000
     11          1           0       -2.557965   -2.651792    0.000000
 ---------------------------------------------------------------------
 Rotational constants (GHZ):           1.4708733           0.8174479           0.5254342
 Standard basis: VSTO-6G (5D, 7F)
 There are    29 symmetry adapted cartesian basis functions of A'  symmetry.
 There are     9 symmetry adapted cartesian basis functions of A"  symmetry.
 There are    29 symmetry adapted basis functions of A'  symmetry.
 There are     9 symmetry adapted basis functions of A"  symmetry.
    38 basis functions,   228 primitive gaussians,    38 cartesian basis functions
    24 alpha electrons       23 beta electrons
       nuclear repulsion energy       241.7402334090 Hartrees.
 Integral buffers will be    131072 words long.
 Regular integral format.
 Two-electron integral symmetry is turned off.
 Do NDO integrals.
 One-electron integrals computed using PRISM.
 NBasis=    38 RedAO= T EigKep=  1.00D+00  NBF=    29     9
 NBsUse=    38 1.00D-06 EigRej= -1.00D+00 NBFU=    29     9
 Initial guess from the checkpoint file:  "geometry_chks/123_ClBzNeutralRadical.chk"
 B after Tr=     0.000000   -0.000000    0.000000
         Rot=    1.000000    0.000000    0.000000    0.000002 Ang=   0.00 deg.
 Initial guess orbital symmetries:
 Alpha Orbitals:
       Occupied  (A') (A') (A') (A') (A') (A') (A') (A') (A') (A')
                 (A') (A") (A') (A") (A') (A") (A') (A') (A") (A')
                 (A') (A') (A") (A")
       Virtual   (A") (A') (A") (A') (A') (A') (A') (A") (A') (A')
                 (A') (A') (A') (A')
 Beta  Orbitals:
       Occupied  (A') (A') (A') (A') (A') (A') (A') (A') (A') (A')
                 (A') (A") (A') (A") (A') (A") (A') (A') (A") (A')
                 (A') (A") (A")
       Virtual   (A') (A") (A") (A') (A') (A') (A') (A') (A") (A')
                 (A') (A') (A') (A') (A')
 Initial guess <Sx>= 0.0000 <Sy>= 0.0000 <Sz>= 0.5000 <S**2>= 1.3984 S= 0.7839
 Keep J ints in memory in canonical form, NReq=863588.
 Overlap will be assumed to be unity.
 Requested convergence on RMS density matrix=1.00D-08 within  32 cycles.
 Requested convergence on MAX density matrix=1.00D-06.
 Requested convergence on             energy=1.00D-06.
 No special actions if energy rises.
 Fock symm off for IB=2 I1=    1 I=   30 J=   22 Cut=1.00D-07 Err=6.64D-03
 Fock matrix is not symmetric: symmetry in diagonalization turned off.
 SCF Done:  E(UAM1) =  0.239714965598     A.U. after   18 cycles
            NFock= 17  Conv=0.88D-08     -V/T= 1.0021
 <Sx>= 0.0000 <Sy>= 0.0000 <Sz>= 0.5000 <S**2>= 1.5393 S= 0.8376
 <L.S>=  0.00000000000    
 Annihilation of the first spin contaminant:
 S**2 before annihilation     1.5393,   after     1.3625
 QCSCF skips out because SCF is already converged.
 Calling FoFJK, ICntrl=      2127 FMM=F ISym2X=1 I1Cent= 0 IOpClX= 1 NMat=1 NMatS=1 NMatT=0.
 ***** Axes restored to original set *****
 -------------------------------------------------------------------
 Center     Atomic                   Forces (Hartrees/Bohr)
 Number     Number              X              Y              Z
 -------------------------------------------------------------------
      1        6          -0.016169443    0.008754695    0.000000000
      2        6           0.027529807    0.003410360    0.000000000
      3        6           0.061876261    0.003612462   -0.000000000
      4        6          -0.095732729    0.051817980    0.000000000
      5        6           0.030817933   -0.053784191    0.000000000
      6        6           0.012192344   -0.024912023   -0.000000000
      7       17           0.040567535    0.019577845    0.000000000
      8       17           0.036966376   -0.020009748   -0.000000000
      9       17           0.005790423   -0.044674181   -0.000000000
     10        1          -0.101505145   -0.063503017   -0.000000000
     11        1          -0.002333363    0.119709818   -0.000000000
 -------------------------------------------------------------------
 Cartesian Forces:  Max     0.119709818 RMS     0.041160435

 GradGradGradGradGradGradGradGradGradGradGradGradGradGradGradGradGradGrad
 Berny optimization.
 Using GEDIIS/GDIIS optimizer.
 FormGI is forming the generalized inverse of G from B-inverse, IUseBI=4.
 Internal  Forces:  Max     0.119732642 RMS     0.035729207
 Search for a local minimum.
 Step number   3 out of a maximum of   57
 All quantities printed in internal units (Hartrees-Bohrs-Radians)
 Mixed Optimization -- RFO/linear search
 Update second derivatives using D2CorX and points    2    3
 DE= -4.87D-02 DEPred=-1.02D-01 R= 4.75D-01
 Trust test= 4.75D-01 RLast= 5.05D-01 DXMaxT set to 5.05D-01
 ITU=  0  1  0
 Use linear search instead of GDIIS.
 Linear search step of   0.577 exceeds DXMaxT=   0.505 but not scaled.
 Quartic linear search produced a step of  1.14431.
 Iteration  1 RMS(Cart)=  0.04913138 RMS(Int)=  0.03359576
 Iteration  2 RMS(Cart)=  0.03296782 RMS(Int)=  0.00037014
 Iteration  3 RMS(Cart)=  0.00005946 RMS(Int)=  0.00036829
 Iteration  4 RMS(Cart)=  0.00000000 RMS(Int)=  0.00036829
 ClnCor:  largest displacement from symmetrization is 3.79D-15 for atom    11.
 Variable       Old X    -DE/DX   Delta X   Delta X   Delta X     New X
                                 (Linear)    (Quad)   (Total)
    R1        2.68236  -0.02389   0.02796   0.00000   0.02748   2.70984
    R2        2.68236  -0.02389   0.02795   0.00000   0.02747   2.70984
    R3        3.34407  -0.04203   0.05148   0.00000   0.05148   3.39554
    R4        2.72065  -0.06077   0.09335   0.00000   0.09332   2.81397
    R5        3.34851  -0.04488   0.05695   0.00000   0.05695   3.40546
    R6        2.74198  -0.08882   0.13988   0.00000   0.14036   2.88234
    R7        2.81757  -0.11973  -0.36216   0.00000  -0.36216   2.45541
    R8        2.74200  -0.08882   0.13989   0.00000   0.14036   2.88236
    R9        2.72062  -0.06076   0.09334   0.00000   0.09331   2.81394
   R10        2.81757  -0.11973  -0.36215   0.00000  -0.36215   2.45542
   R11        3.34850  -0.04488   0.05695   0.00000   0.05695   3.40545
    A1        2.10775  -0.01008   0.01949   0.00000   0.01841   2.12615
    A2        2.08772   0.00504  -0.00975   0.00000  -0.00920   2.07852
    A3        2.08772   0.00504  -0.00975   0.00000  -0.00920   2.07852
    A4        2.10572  -0.00584   0.01877   0.00000   0.01816   2.12388
    A5        2.08479   0.00933  -0.01955   0.00000  -0.01924   2.06555
    A6        2.09268  -0.00350   0.00078   0.00000   0.00108   2.09376
    A7        2.07184  -0.00308  -0.02284   0.00000  -0.02242   2.04942
    A8        2.10317   0.00133   0.00924   0.00000   0.00902   2.11220
    A9        2.10818   0.00175   0.01361   0.00000   0.01339   2.12157
   A10        2.10352   0.02792  -0.01134   0.00000  -0.00991   2.09361
   A11        2.07184  -0.00308  -0.02284   0.00000  -0.02241   2.04942
   A12        2.10817   0.00175   0.01361   0.00000   0.01339   2.12156
   A13        2.10318   0.00133   0.00924   0.00000   0.00902   2.11220
   A14        2.10572  -0.00584   0.01877   0.00000   0.01817   2.12389
   A15        2.08479   0.00933  -0.01955   0.00000  -0.01924   2.06554
   A16        2.09268  -0.00349   0.00078   0.00000   0.00108   2.09375
    D1        0.00000   0.00000   0.00000   0.00000   0.00000   0.00000
    D2        3.14159  -0.00000   0.00000   0.00000   0.00000   3.14159
    D3        3.14159   0.00000   0.00000   0.00000   0.00000   3.14159
    D4        0.00000   0.00000   0.00000   0.00000   0.00000   0.00000
    D5        0.00000   0.00000   0.00000   0.00000   0.00000   0.00000
    D6        3.14159   0.00000   0.00000   0.00000   0.00000   3.14159
    D7        3.14159  -0.00000   0.00000   0.00000   0.00000   3.14159
    D8        0.00000  -0.00000   0.00000   0.00000   0.00000   0.00000
    D9        0.00000  -0.00000   0.00000   0.00000   0.00000   0.00000
   D10        3.14159  -0.00000   0.00000   0.00000   0.00000   3.14159
   D11        3.14159   0.00000   0.00000   0.00000   0.00000   3.14159
   D12        0.00000   0.00000   0.00000   0.00000   0.00000   0.00000
   D13        0.00000   0.00000   0.00000   0.00000   0.00000   0.00000
   D14        3.14159   0.00000   0.00000   0.00000   0.00000   3.14159
   D15        0.00000  -0.00000   0.00000   0.00000   0.00000   0.00000
   D16        3.14159  -0.00000   0.00000   0.00000   0.00000   3.14159
   D17        0.00000  -0.00000   0.00000   0.00000   0.00000   0.00000
   D18        3.14159  -0.00000   0.00000   0.00000   0.00000   3.14159
   D19        3.14159   0.00000   0.00000   0.00000   0.00000   3.14159
   D20        0.00000   0.00000   0.00000   0.00000   0.00000   0.00000
         Item               Value     Threshold  Converged?
 Maximum Force            0.119733     0.000450     NO 
 RMS     Force            0.035729     0.000300     NO 
 Maximum Displacement     0.210695     0.001800     NO 
 RMS     Displacement     0.064953     0.001200     NO 
 Predicted change in Energy=-2.464320D-02
 GradGradGradGradGradGradGradGradGradGradGradGradGradGradGradGradGradGrad

                          Input orientation:                          
 ---------------------------------------------------------------------
 Center     Atomic      Atomic             Coordinates (Angstroms)
 Number     Number       Type             X           Y           Z
 ---------------------------------------------------------------------
      1          6           0       -3.183874    0.185677    0.000000
      2          6           0       -1.974242    0.955809    0.000000
      3          6           0       -0.633894    0.307076    0.000000
      4          6           0       -0.591414   -1.217603    0.000000
      5          6           0       -1.891218   -2.015715    0.000000
      6          6           0       -3.167255   -1.248211    0.000000
      7         17           0       -4.743229   -2.122177    0.000000
      8         17           0       -4.764073    1.041026    0.000000
      9         17           0       -2.104230    2.753208    0.000000
     10          1           0        0.453937    1.017655    0.000000
     11          1           0       -1.891347   -3.315065    0.000000
 ---------------------------------------------------------------------
                    Distance matrix (angstroms):
                    1          2          3          4          5
     1  C    0.000000
     2  C    1.433985   0.000000
     3  C    2.552868   1.489089   0.000000
     4  C    2.947888   2.576030   1.525271   0.000000
     5  C    2.552858   2.972683   2.641253   1.525278   0.000000
     6  C    1.433984   2.506189   2.972682   2.576023   1.489071
     7  Cl   2.785279   4.140204   4.773668   4.249214   2.853997
     8  Cl   1.796845   2.791133   4.194885   4.744733   4.194873
     9  Cl   2.785291   1.802093   2.854023   4.249229   4.773677
    10  H    3.731737   2.428967   1.299346   2.467618   3.834200
    11  H    3.731731   4.271678   3.834200   2.467625   1.299350
                    6          7          8          9         10
     6  C    0.000000
     7  Cl   1.802085   0.000000
     8  Cl   2.791134   3.163272   0.000000
     9  Cl   4.140214   5.543798   3.163279   0.000000
    10  H    4.271672   6.071992   5.218063   3.091337   0.000000
    11  H    2.428956   3.091312   5.218053   6.072005   4.926746
                   11
    11  H    0.000000
 Stoichiometry    C6H2Cl3(2)
 Framework group  CS[SG(C6H2Cl3)]
 Deg. of freedom    19
 Full point group                 CS      NOp   2
 Largest Abelian subgroup         CS      NOp   2
 Largest concise Abelian subgroup C1      NOp   1
                         Standard orientation:                         
 ---------------------------------------------------------------------
 Center     Atomic      Atomic             Coordinates (Angstroms)
 Number     Number       Type             X           Y           Z
 ---------------------------------------------------------------------
      1          6           0        0.000000    0.202888    0.000000
      2          6           0        1.253091   -0.494304    0.000000
      3          6           0        1.320608   -1.981862    0.000000
      4          6           0       -0.000025   -2.745000    0.000000
      5          6           0       -1.320646   -1.981827    0.000000
      6          6           0       -1.253098   -0.494289    0.000000
      7         17           0       -2.771891    0.475648    0.000000
      8         17           0        0.000013    1.999732    0.000000
      9         17           0        2.771906    0.475613    0.000000
     10          1           0        2.463346   -2.600286    0.000000
     11          1           0       -2.463399   -2.600233    0.000000
 ---------------------------------------------------------------------
 Rotational constants (GHZ):           1.4039404           0.8032911           0.5109445
 Standard basis: VSTO-6G (5D, 7F)
 There are    29 symmetry adapted cartesian basis functions of A'  symmetry.
 There are     9 symmetry adapted cartesian basis functions of A"  symmetry.
 There are    29 symmetry adapted basis functions of A'  symmetry.
 There are     9 symmetry adapted basis functions of A"  symmetry.
    38 basis functions,   228 primitive gaussians,    38 cartesian basis functions
    24 alpha electrons       23 beta electrons
       nuclear repulsion energy       239.5350876047 Hartrees.
 Integral buffers will be    131072 words long.
 Regular integral format.
 Two-electron integral symmetry is turned off.
 Do NDO integrals.
 One-electron integrals computed using PRISM.
 NBasis=    38 RedAO= T EigKep=  1.00D+00  NBF=    29     9
 NBsUse=    38 1.00D-06 EigRej= -1.00D+00 NBFU=    29     9
 Initial guess from the checkpoint file:  "geometry_chks/123_ClBzNeutralRadical.chk"
 B after Tr=    -0.000000    0.000000    0.000000
         Rot=    1.000000    0.000000    0.000000    0.000002 Ang=   0.00 deg.
 Initial guess orbital symmetries:
 Alpha Orbitals:
       Occupied  (A') (A') (A') (A') (A') (A') (A') (A') (A') (A')
                 (A') (A') (A") (A') (A") (A") (A') (A') (A") (A')
                 (A') (A') (A") (A")
       Virtual   (A") (A") (A') (A') (A') (A') (A') (A") (A') (A')
                 (A') (A') (A') (A')
 Beta  Orbitals:
       Occupied  (A') (A') (A') (A') (A') (A') (A') (A') (A') (A')
                 (A') (A") (A') (A') (A") (A") (A') (A') (A') (A")
                 (A') (A") (A")
       Virtual   (A') (A") (A") (A') (A') (A') (A') (A') (A") (A')
                 (A') (A') (A') (A') (A')
 Initial guess <Sx>= 0.0000 <Sy>= 0.0000 <Sz>= 0.5000 <S**2>= 1.5393 S= 0.8376
 Keep J ints in memory in canonical form, NReq=863588.
 Overlap will be assumed to be unity.
 Requested convergence on RMS density matrix=1.00D-08 within  32 cycles.
 Requested convergence on MAX density matrix=1.00D-06.
 Requested convergence on             energy=1.00D-06.
 No special actions if energy rises.
 Fock symm off for IB=2 I1=    1 I=   30 J=   20 Cut=1.00D-07 Err=3.25D-03
 Fock matrix is not symmetric: symmetry in diagonalization turned off.
 SCF Done:  E(UAM1) =  0.218178822371     A.U. after   17 cycles
            NFock= 16  Conv=0.71D-08     -V/T= 1.0020
 <Sx>= 0.0000 <Sy>= 0.0000 <Sz>= 0.5000 <S**2>= 1.8179 S= 0.9380
 <L.S>=  0.00000000000    
 Annihilation of the first spin contaminant:
 S**2 before annihilation     1.8179,   after     1.9403
 QCSCF skips out because SCF is already converged.
 Calling FoFJK, ICntrl=      2127 FMM=F ISym2X=1 I1Cent= 0 IOpClX= 1 NMat=1 NMatS=1 NMatT=0.
 ***** Axes restored to original set *****
 -------------------------------------------------------------------
 Center     Atomic                   Forces (Hartrees/Bohr)
 Number     Number              X              Y              Z
 -------------------------------------------------------------------
      1        6          -0.005483039    0.002971989    0.000000000
      2        6           0.038262876   -0.013740871    0.000000000
      3        6           0.007266002   -0.032278883   -0.000000000
      4        6          -0.136352789    0.073806657    0.000000000
      5        6           0.031007760    0.011561869    0.000000000
      6        6           0.032421201   -0.024521237   -0.000000000
      7       17           0.054398007    0.023815472   -0.000000000
      8       17           0.047303444   -0.025604957   -0.000000000
      9       17           0.009805102   -0.058572072   -0.000000000
     10        1          -0.079118643   -0.052254636   -0.000000000
     11        1           0.000490078    0.094816670   -0.000000000
 -------------------------------------------------------------------
 Cartesian Forces:  Max     0.136352789 RMS     0.041742606

 GradGradGradGradGradGradGradGradGradGradGradGradGradGradGradGradGradGrad
 Berny optimization.
 Using GEDIIS/GDIIS optimizer.
 FormGI is forming the generalized inverse of G from B-inverse, IUseBI=4.
 Internal  Forces:  Max     0.131183967 RMS     0.043536296
 Search for a local minimum.
 Step number   4 out of a maximum of   57
 All quantities printed in internal units (Hartrees-Bohrs-Radians)
 Mixed Optimization -- RFO/linear search
 Update second derivatives using D2CorX and points    3    4
 ITU=  0  0  1  0
 Use linear search instead of GDIIS.
     Eigenvalues ---    0.02011   0.02011   0.02011   0.02011   0.02011
     Eigenvalues ---    0.02011   0.02011   0.02011   0.02118   0.06524
     Eigenvalues ---    0.15982   0.16000   0.17459   0.23400   0.23559
     Eigenvalues ---    0.25000   0.25000   0.25038   0.25114   0.29033
     Eigenvalues ---    0.29038   0.34230   0.41314   0.44638   0.44656
     Eigenvalues ---    0.44657   0.48609
 RFO step:  Lambda=-2.46331742D-01 EMin= 2.01067525D-02
 Quartic linear search produced a step of -0.00343.
 Maximum step size (   0.505) exceeded in Quadratic search.
    -- Step size scaled by   0.575
 Iteration  1 RMS(Cart)=  0.09735368 RMS(Int)=  0.00805650
 Iteration  2 RMS(Cart)=  0.00827848 RMS(Int)=  0.00043042
 Iteration  3 RMS(Cart)=  0.00001033 RMS(Int)=  0.00043036
 Iteration  4 RMS(Cart)=  0.00000000 RMS(Int)=  0.00043036
 ClnCor:  largest displacement from symmetrization is 1.33D-08 for atom     7.
 Variable       Old X    -DE/DX   Delta X   Delta X   Delta X     New X
                                 (Linear)    (Quad)   (Total)
    R1        2.70984  -0.04874  -0.00009  -0.02826  -0.02893   2.68091
    R2        2.70984  -0.04873  -0.00009  -0.02825  -0.02893   2.68091
    R3        3.39554  -0.05379  -0.00018  -0.11432  -0.11449   3.28105
    R4        2.81397  -0.10045  -0.00032  -0.11172  -0.11206   2.70191
    R5        3.40546  -0.05913  -0.00020  -0.11986  -0.12005   3.28541
    R6        2.88234  -0.13118  -0.00048  -0.18169  -0.18158   2.70076
    R7        2.45541  -0.09482   0.00124  -0.23903  -0.23779   2.21762
    R8        2.88236  -0.13118  -0.00048  -0.18169  -0.18159   2.70077
    R9        2.81394  -0.10044  -0.00032  -0.11170  -0.11204   2.70190
   R10        2.45542  -0.09482   0.00124  -0.23904  -0.23780   2.21762
   R11        3.40545  -0.05912  -0.00020  -0.11985  -0.12004   3.28541
    A1        2.12615  -0.01223  -0.00006  -0.01894  -0.02029   2.10587
    A2        2.07852   0.00611   0.00003   0.00947   0.01014   2.08866
    A3        2.07852   0.00611   0.00003   0.00947   0.01014   2.08866
    A4        2.12388  -0.00609  -0.00006  -0.01675  -0.01751   2.10637
    A5        2.06555   0.01250   0.00007   0.02582   0.02623   2.09177
    A6        2.09376  -0.00641  -0.00000  -0.00906  -0.00872   2.08504
    A7        2.04942  -0.00450   0.00008  -0.00245  -0.00185   2.04756
    A8        2.11220   0.00284  -0.00003   0.00111   0.00082   2.11302
    A9        2.12157   0.00166  -0.00005   0.00134   0.00103   2.12260
   A10        2.09361   0.03341   0.00003   0.05735   0.05901   2.15262
   A11        2.04942  -0.00450   0.00008  -0.00245  -0.00186   2.04757
   A12        2.12156   0.00166  -0.00005   0.00134   0.00103   2.12260
   A13        2.11220   0.00284  -0.00003   0.00111   0.00082   2.11302
   A14        2.12389  -0.00609  -0.00006  -0.01676  -0.01751   2.10638
   A15        2.06554   0.01250   0.00007   0.02582   0.02623   2.09177
   A16        2.09375  -0.00641  -0.00000  -0.00906  -0.00872   2.08504
    D1        0.00000   0.00000   0.00000   0.00000   0.00000   0.00000
    D2        3.14159  -0.00000   0.00000  -0.00000   0.00000   3.14159
    D3        3.14159   0.00000   0.00000   0.00000   0.00000   3.14159
    D4        0.00000   0.00000   0.00000  -0.00000   0.00000   0.00000
    D5        0.00000   0.00000   0.00000   0.00000   0.00000   0.00000
    D6        3.14159   0.00000   0.00000   0.00000   0.00000   3.14159
    D7        3.14159  -0.00000   0.00000   0.00000   0.00000   3.14159
    D8        0.00000  -0.00000   0.00000   0.00000   0.00000   0.00000
    D9        0.00000  -0.00000   0.00000  -0.00000   0.00000   0.00000
   D10        3.14159  -0.00000   0.00000  -0.00000   0.00000   3.14159
   D11        3.14159   0.00000   0.00000  -0.00000   0.00000   3.14159
   D12        0.00000  -0.00000   0.00000  -0.00000   0.00000   0.00000
   D13        0.00000   0.00000   0.00000   0.00000   0.00000   0.00000
   D14        3.14159   0.00000   0.00000   0.00000   0.00000   3.14159
   D15        0.00000   0.00000   0.00000   0.00000   0.00000   0.00000
   D16        3.14159  -0.00000   0.00000  -0.00000   0.00000   3.14159
   D17        0.00000  -0.00000   0.00000  -0.00000   0.00000   0.00000
   D18        3.14159  -0.00000   0.00000  -0.00000   0.00000   3.14159
   D19        3.14159   0.00000   0.00000   0.00000   0.00000   3.14159
   D20        0.00000   0.00000   0.00000   0.00000   0.00000   0.00000
         Item               Value     Threshold  Converged?
 Maximum Force            0.131184     0.000450     NO 
 RMS     Force            0.043536     0.000300     NO 
 Maximum Displacement     0.377799     0.001800     NO 
 RMS     Displacement     0.103673     0.001200     NO 
 Predicted change in Energy=-1.323034D-01
 GradGradGradGradGradGradGradGradGradGradGradGradGradGradGradGradGradGrad

                          Input orientation:                          
 ---------------------------------------------------------------------
 Center     Atomic      Atomic             Coordinates (Angstroms)
 Number     Number       Type             X           Y           Z
 ---------------------------------------------------------------------
      1          6           0       -3.171589    0.179028    0.000000
      2          6           0       -1.967204    0.928759    0.000000
      3          6           0       -0.697943    0.270517    0.000000
      4          6           0       -0.700302   -1.158663    0.000000
      5          6           0       -1.895625   -1.942101    0.000000
      6          6           0       -3.140763   -1.239312    0.000000
      7         17           0       -4.629519   -2.137201    0.000000
      8         17           0       -4.698506    1.005537    0.000000
      9         17           0       -2.029469    2.666208    0.000000
     10          1           0        0.302410    0.884051    0.000000
     11          1           0       -1.862330   -3.115142    0.000000
 ---------------------------------------------------------------------
                    Distance matrix (angstroms):
                    1          2          3          4          5
     1  C    0.000000
     2  C    1.418675   0.000000
     3  C    2.475337   1.429792   0.000000
     4  C    2.810103   2.441797   1.429182   0.000000
     5  C    2.475333   2.871752   2.515973   1.429186   0.000000
     6  C    1.418676   2.465314   2.871751   2.441794   1.429784
     7  Cl   2.736873   4.060545   4.610248   4.049232   2.740847
     8  Cl   1.736258   2.732381   4.067525   4.546362   4.067520
     9  Cl   2.736878   1.738564   2.740857   4.049238   4.610252
    10  H    3.544817   2.270054   1.173512   2.275547   3.580292
    11  H    3.544816   4.045261   3.580291   2.275548   1.173514
                    6          7          8          9         10
     6  C    0.000000
     7  Cl   1.738562   0.000000
     8  Cl   2.732382   3.143495   0.000000
     9  Cl   4.060549   5.461958   3.143499   0.000000
    10  H    4.045258   5.783760   5.002391   2.934918   0.000000
    11  H    2.270051   2.934911   5.002389   5.783766   4.547488
                   11
    11  H    0.000000
 Stoichiometry    C6H2Cl3(2)
 Framework group  CS[SG(C6H2Cl3)]
 Deg. of freedom    19
 Full point group                 CS      NOp   2
 Largest Abelian subgroup         CS      NOp   2
 Largest concise Abelian subgroup C1      NOp   1
                         Standard orientation:                         
 ---------------------------------------------------------------------
 Center     Atomic      Atomic             Coordinates (Angstroms)
 Number     Number       Type             X           Y           Z
 ---------------------------------------------------------------------
      1          6           0        0.000000    0.232448    0.000000
      2          6           0        1.232656   -0.469834    0.000000
      3          6           0        1.257979   -1.899401    0.000000
      4          6           0       -0.000009   -2.577655    0.000000
      5          6           0       -1.257993   -1.899389    0.000000
      6          6           0       -1.232658   -0.469829    0.000000
      7         17           0       -2.730976    0.412010    0.000000
      8         17           0        0.000005    1.968706    0.000000
      9         17           0        2.730982    0.411996    0.000000
     10          1           0        2.273735   -2.487084    0.000000
     11          1           0       -2.273753   -2.487068    0.000000
 ---------------------------------------------------------------------
 Rotational constants (GHZ):           1.5231049           0.8332977           0.5386175
 Standard basis: VSTO-6G (5D, 7F)
 There are    29 symmetry adapted cartesian basis functions of A'  symmetry.
 There are     9 symmetry adapted cartesian basis functions of A"  symmetry.
 There are    29 symmetry adapted basis functions of A'  symmetry.
 There are     9 symmetry adapted basis functions of A"  symmetry.
    38 basis functions,   228 primitive gaussians,    38 cartesian basis functions
    24 alpha electrons       23 beta electrons
       nuclear repulsion energy       244.4972188275 Hartrees.
 Integral buffers will be    131072 words long.
 Regular integral format.
 Two-electron integral symmetry is turned off.
 Do NDO integrals.
 One-electron integrals computed using PRISM.
 NBasis=    38 RedAO= T EigKep=  1.00D+00  NBF=    29     9
 NBsUse=    38 1.00D-06 EigRej= -1.00D+00 NBFU=    29     9
 Initial guess from the checkpoint file:  "geometry_chks/123_ClBzNeutralRadical.chk"
 B after Tr=     0.000000   -0.000000    0.000000
         Rot=    1.000000   -0.000000   -0.000000   -0.000002 Ang=  -0.00 deg.
 Initial guess orbital symmetries:
 Alpha Orbitals:
       Occupied  (A') (A') (A') (A') (A') (A') (A') (A') (A') (A')
                 (A') (A') (A") (A') (A") (A') (A') (A") (A') (A")
                 (A') (A') (A") (A")
       Virtual   (A") (A') (A") (A') (A') (A") (A') (A') (A') (A')
                 (A') (A') (A') (A')
 Beta  Orbitals:
       Occupied  (A') (A') (A') (A') (A') (A') (A') (A') (A') (A')
                 (A') (A') (A") (A') (A") (A') (A") (A') (A') (A")
                 (A') (A") (A")
       Virtual   (A') (A") (A') (A") (A') (A') (A") (A') (A') (A')
                 (A') (A') (A') (A') (A')
 Initial guess <Sx>= 0.0000 <Sy>= 0.0000 <Sz>= 0.5000 <S**2>= 1.8179 S= 0.9380
 Keep J ints in memory in canonical form, NReq=863588.
 Overlap will be assumed to be unity.
 Requested convergence on RMS density matrix=1.00D-08 within  32 cycles.
 Requested convergence on MAX density matrix=1.00D-06.
 Requested convergence on             energy=1.00D-06.
 No special actions if energy rises.
 Fock symm off for IB=2 I1=    1 I=   30 J=   19 Cut=1.00D-07 Err=6.55D-03
 Fock matrix is not symmetric: symmetry in diagonalization turned off.
 SCF Done:  E(UAM1) =  0.110336771640     A.U. after   16 cycles
            NFock= 15  Conv=0.98D-08     -V/T= 1.0010
[...]
    R2        2.67453   0.00034   0.00025   0.00026   0.00051   2.67503
    R3        3.19414   0.00015   0.00005   0.00023   0.00029   3.19443
    R4        2.67112   0.00018   0.00013   0.00006   0.00019   2.67130
    R5        3.19205  -0.00003   0.00007  -0.00029  -0.00022   3.19183
    R6        2.58675   0.00017   0.00005   0.00013   0.00018   2.58693
    R7        2.07381   0.00012   0.00002   0.00083   0.00085   2.07466
    R8        2.58676   0.00016   0.00005   0.00011   0.00016   2.58691
    R9        2.67112   0.00017   0.00012   0.00004   0.00017   2.67129
   R10        2.07412   0.00001  -0.00002  -0.00056  -0.00058   2.07354
   R11        3.19205  -0.00003   0.00007  -0.00029  -0.00022   3.19183
    A1        2.10447  -0.00003  -0.00012   0.00011  -0.00001   2.10446
    A2        2.08936   0.00001   0.00006  -0.00006   0.00000   2.08936
    A3        2.08936   0.00001   0.00006  -0.00006   0.00000   2.08936
    A4        2.09634  -0.00003   0.00002  -0.00011  -0.00008   2.09625
    A5        2.11277   0.00010   0.00003   0.00030   0.00033   2.11309
    A6        2.07408  -0.00007  -0.00005  -0.00019  -0.00024   2.07384
    A7        2.00275   0.00003   0.00004   0.00001   0.00005   2.00280
    A8        2.13159  -0.00005   0.00010  -0.00036  -0.00026   2.13134
    A9        2.14884   0.00003  -0.00014   0.00035   0.00021   2.14905
   A10        2.26373   0.00003  -0.00001   0.00008   0.00007   2.26380
   A11        2.00275   0.00003   0.00004   0.00003   0.00007   2.00282
   A12        2.14884   0.00002  -0.00014   0.00034   0.00020   2.14904
   A13        2.13160  -0.00006   0.00010  -0.00037  -0.00027   2.13133
   A14        2.09634  -0.00003   0.00002  -0.00012  -0.00009   2.09625
   A15        2.11276   0.00010   0.00003   0.00031   0.00033   2.11310
   A16        2.07408  -0.00007  -0.00005  -0.00019  -0.00024   2.07384
    D1        0.00000  -0.00000   0.00000  -0.00000   0.00000   0.00000
    D2        3.14159  -0.00000   0.00000  -0.00000   0.00000   3.14159
    D3        3.14159   0.00000   0.00000   0.00000   0.00000   3.14159
    D4        0.00000   0.00000   0.00000   0.00000   0.00000   0.00000
    D5        0.00000   0.00000   0.00000   0.00000   0.00000   0.00000
    D6        3.14159   0.00000   0.00000   0.00000   0.00000   3.14159
    D7        3.14159  -0.00000   0.00000  -0.00000   0.00000   3.14159
    D8        0.00000  -0.00000   0.00000  -0.00000   0.00000   0.00000
    D9        0.00000   0.00000   0.00000   0.00000   0.00000   0.00000
   D10        3.14159  -0.00000   0.00000  -0.00000   0.00000   3.14159
   D11        3.14159   0.00000   0.00000   0.00000   0.00000   3.14159
   D12        0.00000  -0.00000   0.00000  -0.00000   0.00000   0.00000
   D13        0.00000  -0.00000   0.00000  -0.00000   0.00000   0.00000
   D14        3.14159   0.00000   0.00000   0.00000   0.00000   3.14159
   D15        0.00000   0.00000   0.00000   0.00000   0.00000   0.00000
   D16        3.14159  -0.00000   0.00000  -0.00000   0.00000   3.14159
   D17        0.00000   0.00000   0.00000   0.00000   0.00000   0.00000
   D18        3.14159  -0.00000   0.00000  -0.00000   0.00000   3.14159
   D19        3.14159   0.00000   0.00000   0.00000   0.00000   3.14159
   D20        0.00000   0.00000   0.00000   0.00000   0.00000   0.00000
         Item               Value     Threshold  Converged?
 Maximum Force            0.000344     0.000450     YES
 RMS     Force            0.000096     0.000300     YES
 Maximum Displacement     0.001188     0.001800     YES
 RMS     Displacement     0.000339     0.001200     YES
 Predicted change in Energy=-3.844664D-07
 Optimization completed.
    -- Stationary point found.
                           ----------------------------
                           !   Optimized Parameters   !
                           ! (Angstroms and Degrees)  !
 --------------------------                            --------------------------
 ! Name  Definition              Value          Derivative Info.                !
 --------------------------------------------------------------------------------
 ! R1    R(1,2)                  1.4153         -DE/DX =    0.0003              !
 ! R2    R(1,6)                  1.4153         -DE/DX =    0.0003              !
 ! R3    R(1,8)                  1.6903         -DE/DX =    0.0001              !
 ! R4    R(2,3)                  1.4135         -DE/DX =    0.0002              !
 ! R5    R(2,9)                  1.6892         -DE/DX =    0.0                 !
 ! R6    R(3,4)                  1.3689         -DE/DX =    0.0002              !
 ! R7    R(3,10)                 1.0974         -DE/DX =    0.0001              !
 ! R8    R(4,5)                  1.3689         -DE/DX =    0.0002              !
 ! R9    R(5,6)                  1.4135         -DE/DX =    0.0002              !
 ! R10   R(5,11)                 1.0976         -DE/DX =    0.0                 !
 ! R11   R(6,7)                  1.6892         -DE/DX =    0.0                 !
 ! A1    A(2,1,6)              120.577          -DE/DX =    0.0                 !
 ! A2    A(2,1,8)              119.7115         -DE/DX =    0.0                 !
 ! A3    A(6,1,8)              119.7115         -DE/DX =    0.0                 !
 ! A4    A(1,2,3)              120.1112         -DE/DX =    0.0                 !
 ! A5    A(1,2,9)              121.0526         -DE/DX =    0.0001              !
 ! A6    A(3,2,9)              118.8362         -DE/DX =   -0.0001              !
 ! A7    A(2,3,4)              114.7491         -DE/DX =    0.0                 !
 ! A8    A(2,3,10)             122.1314         -DE/DX =   -0.0001              !
 ! A9    A(4,3,10)             123.1195         -DE/DX =    0.0                 !
 ! A10   A(3,4,5)              129.7024         -DE/DX =    0.0                 !
 ! A11   A(4,5,6)              114.7489         -DE/DX =    0.0                 !
 ! A12   A(4,5,11)             123.1196         -DE/DX =    0.0                 !
 ! A13   A(6,5,11)             122.1315         -DE/DX =   -0.0001              !
 ! A14   A(1,6,5)              120.1113         -DE/DX =    0.0                 !
 ! A15   A(1,6,7)              121.0525         -DE/DX =    0.0001              !
 ! A16   A(5,6,7)              118.8362         -DE/DX =   -0.0001              !
 ! D1    D(6,1,2,3)              0.0            -DE/DX =    0.0                 !
 ! D2    D(6,1,2,9)            180.0            -DE/DX =    0.0                 !
 ! D3    D(8,1,2,3)            180.0            -DE/DX =    0.0                 !
 ! D4    D(8,1,2,9)              0.0            -DE/DX =    0.0                 !
 ! D5    D(2,1,6,5)              0.0            -DE/DX =    0.0                 !
 ! D6    D(2,1,6,7)            180.0            -DE/DX =    0.0                 !
 ! D7    D(8,1,6,5)            180.0            -DE/DX =    0.0                 !
 ! D8    D(8,1,6,7)              0.0            -DE/DX =    0.0                 !
 ! D9    D(1,2,3,4)              0.0            -DE/DX =    0.0                 !
 ! D10   D(1,2,3,10)           180.0            -DE/DX =    0.0                 !
 ! D11   D(9,2,3,4)            180.0            -DE/DX =    0.0                 !
 ! D12   D(9,2,3,10)             0.0            -DE/DX =    0.0                 !
 ! D13   D(2,3,4,5)              0.0            -DE/DX =    0.0                 !
 ! D14   D(10,3,4,5)           180.0            -DE/DX =    0.0                 !
 ! D15   D(3,4,5,6)              0.0            -DE/DX =    0.0                 !
 ! D16   D(3,4,5,11)           180.0            -DE/DX =    0.0                 !
 ! D17   D(4,5,6,1)              0.0            -DE/DX =    0.0                 !
 ! D18   D(4,5,6,7)            180.0            -DE/DX =    0.0                 !
 ! D19   D(11,5,6,1)           180.0            -DE/DX =    0.0                 !
 ! D20   D(11,5,6,7)             0.0            -DE/DX =    0.0                 !
 --------------------------------------------------------------------------------
 GradGradGradGradGradGradGradGradGradGradGradGradGradGradGradGradGradGrad

                          Input orientation:                          
 ---------------------------------------------------------------------
 Center     Atomic      Atomic             Coordinates (Angstroms)
 Number     Number       Type             X           Y           Z
 ---------------------------------------------------------------------
      1          6           0       -3.167936    0.177065   -0.000000
      2          6           0       -1.965895    0.924169   -0.000000
      3          6           0       -0.718162    0.259994   -0.000000
      4          6           0       -0.796422   -1.106617   -0.000000
      5          6           0       -1.897849   -1.919400   -0.000000
      6          6           0       -3.136194   -1.237877   -0.000000
      7         17           0       -4.563382   -2.141419   -0.000000
      8         17           0       -4.654407    0.981681   -0.000000
      9         17           0       -1.989762    2.613158   -0.000000
     10          1           0        0.233735    0.806078   -0.000000
     11          1           0       -1.834566   -3.015152   -0.000000
 ---------------------------------------------------------------------
                    Distance matrix (angstroms):
                    1          2          3          4          5
     1  C    0.000000
     2  C    1.415298   0.000000
     3  C    2.451177   1.413494   0.000000
     4  C    2.696649   2.343450   1.368851   0.000000
     5  C    2.451180   2.844383   2.478189   1.368853   0.000000
     6  C    1.415298   2.458463   2.844379   2.343451   1.413496
     7  Cl   2.706038   4.018056   4.533487   3.906508   2.674763
     8  Cl   1.690267   2.689127   4.001856   4.386917   4.001860
     9  Cl   2.706038   1.689158   2.674761   3.906506   4.533490
    10  H    3.459338   2.202797   1.097413   2.172470   3.460041
    11  H    3.459498   3.941510   3.460194   2.172614   1.097578
                    6          7          8          9         10
     6  C    0.000000
     7  Cl   1.689158   0.000000
     8  Cl   2.689128   3.124426   0.000000
     9  Cl   4.018056   5.406434   3.124428   0.000000
    10  H    3.941341   5.630282   4.891295   2.865218   0.000000
    11  H    2.202939   2.865282   4.891439   5.630450   4.345075
                   11
    11  H    0.000000
 Stoichiometry    C6H2Cl3(2)
 Framework group  CS[SG(C6H2Cl3)]
 Deg. of freedom    19
 Full point group                 CS      NOp   2
 Largest Abelian subgroup         CS      NOp   2
 Largest concise Abelian subgroup C1      NOp   1
                         Standard orientation:                         
 ---------------------------------------------------------------------
 Center     Atomic      Atomic             Coordinates (Angstroms)
 Number     Number       Type             X           Y           Z
 ---------------------------------------------------------------------
      1          6           0        0.000002    0.251981    0.000000
      2          6           0        1.229233   -0.449486    0.000000
      3          6           0        1.239094   -1.862946    0.000000
      4          6           0        0.000002   -2.444668    0.000000
      5          6           0       -1.239095   -1.862948    0.000000
      6          6           0       -1.229230   -0.449486    0.000000
      7         17           0       -2.703215    0.375514    0.000000
      8         17           0        0.000002    1.942249    0.000000
      9         17           0        2.703219    0.375511    0.000000
     10          1           0        2.172467   -2.440121    0.000000
     11          1           0       -2.172607   -2.440210    0.000000
 ---------------------------------------------------------------------
 Rotational constants (GHZ):           1.6090314           0.8512536           0.5567216

 **********************************************************************

            Population analysis using the SCF Density.

 **********************************************************************

 Orbital symmetries:
 Alpha Orbitals:
       Occupied  (A') (A') (A') (A') (A') (A') (A') (A') (A') (A')
                 (A') (A') (A") (A') (A") (A') (A") (A') (A") (A')
                 (A') (A') (A") (A")
       Virtual   (A") (A") (A') (A') (A') (A") (A') (A') (A') (A')
                 (A') (A') (A') (A')
 Beta  Orbitals:
       Occupied  (A') (A') (A') (A') (A') (A') (A') (A') (A') (A')
                 (A') (A') (A") (A') (A') (A") (A") (A') (A") (A')
                 (A') (A") (A")
       Virtual   (A") (A') (A") (A') (A') (A') (A") (A') (A') (A')
                 (A') (A') (A') (A') (A')
 The electronic state is 2-A'.
 Alpha  occ. eigenvalues --   -1.48275  -1.41164  -1.39571  -1.38320  -1.17529
 Alpha  occ. eigenvalues --   -1.14802  -0.89773  -0.87285  -0.69309  -0.64482
 Alpha  occ. eigenvalues --   -0.63947  -0.58320  -0.57807  -0.55210  -0.51305
 Alpha  occ. eigenvalues --   -0.50618  -0.47801  -0.46896  -0.46151  -0.45134
 Alpha  occ. eigenvalues --   -0.44313  -0.40221  -0.37472  -0.37133
 Alpha virt. eigenvalues --   -0.01048  -0.00952   0.01840   0.03548   0.04180
 Alpha virt. eigenvalues --    0.07052   0.11678   0.12293   0.12912   0.14297
 Alpha virt. eigenvalues --    0.14591   0.15983   0.17694   0.17695
  Beta  occ. eigenvalues --   -1.47689  -1.40865  -1.39593  -1.37885  -1.17599
  Beta  occ. eigenvalues --   -1.13653  -0.89437  -0.84908  -0.69023  -0.63986
  Beta  occ. eigenvalues --   -0.62697  -0.57961  -0.57490  -0.54336  -0.50347
  Beta  occ. eigenvalues --   -0.50094  -0.48356  -0.46077  -0.45284  -0.45092
  Beta  occ. eigenvalues --   -0.44251  -0.37838  -0.37075
  Beta virt. eigenvalues --   -0.01326  -0.01261   0.00348   0.02481   0.04276
  Beta virt. eigenvalues --    0.04912   0.07883   0.11776   0.12306   0.13060
  Beta virt. eigenvalues --    0.14466   0.15454   0.15668   0.17934   0.19511
          Condensed to atoms (all electrons):
               1          2          3          4          5          6
     1  C    4.075696   0.000000   0.000000   0.000000   0.000000   0.000000
     2  C    0.000000   4.056788   0.000000   0.000000   0.000000   0.000000
     3  C    0.000000   0.000000   4.105715   0.000000   0.000000   0.000000
     4  C    0.000000   0.000000   0.000000   4.054729   0.000000   0.000000
     5  C    0.000000   0.000000   0.000000   0.000000   4.105735   0.000000
     6  C    0.000000   0.000000   0.000000   0.000000   0.000000   4.056785
     7  Cl   0.000000   0.000000   0.000000   0.000000   0.000000   0.000000
     8  Cl   0.000000   0.000000   0.000000   0.000000   0.000000   0.000000
     9  Cl   0.000000   0.000000   0.000000   0.000000   0.000000   0.000000
    10  H    0.000000   0.000000   0.000000   0.000000   0.000000   0.000000
    11  H    0.000000   0.000000   0.000000   0.000000   0.000000   0.000000
               7          8          9         10         11
     1  C    0.000000   0.000000   0.000000   0.000000   0.000000
     2  C    0.000000   0.000000   0.000000   0.000000   0.000000
     3  C    0.000000   0.000000   0.000000   0.000000   0.000000
     4  C    0.000000   0.000000   0.000000   0.000000   0.000000
     5  C    0.000000   0.000000   0.000000   0.000000   0.000000
     6  C    0.000000   0.000000   0.000000   0.000000   0.000000
     7  Cl   6.968923   0.000000   0.000000   0.000000   0.000000
     8  Cl   0.000000   6.959940   0.000000   0.000000   0.000000
     9  Cl   0.000000   0.000000   6.968921   0.000000   0.000000
    10  H    0.000000   0.000000   0.000000   0.823396   0.000000
    11  H    0.000000   0.000000   0.000000   0.000000   0.823372
          Atomic-Atomic Spin Densities.
               1          2          3          4          5          6
     1  C   -0.483710   0.000000   0.000000   0.000000   0.000000   0.000000
     2  C    0.000000   0.513695   0.000000   0.000000   0.000000   0.000000
     3  C    0.000000   0.000000  -0.512863   0.000000   0.000000   0.000000
     4  C    0.000000   0.000000   0.000000   1.387441   0.000000   0.000000
     5  C    0.000000   0.000000   0.000000   0.000000  -0.512872   0.000000
     6  C    0.000000   0.000000   0.000000   0.000000   0.000000   0.513695
     7  Cl   0.000000   0.000000   0.000000   0.000000   0.000000   0.000000
     8  Cl   0.000000   0.000000   0.000000   0.000000   0.000000   0.000000
     9  Cl   0.000000   0.000000   0.000000   0.000000   0.000000   0.000000
    10  H    0.000000   0.000000   0.000000   0.000000   0.000000   0.000000
    11  H    0.000000   0.000000   0.000000   0.000000   0.000000   0.000000
               7          8          9         10         11
     1  C    0.000000   0.000000   0.000000   0.000000   0.000000
     2  C    0.000000   0.000000   0.000000   0.000000   0.000000
     3  C    0.000000   0.000000   0.000000   0.000000   0.000000
     4  C    0.000000   0.000000   0.000000   0.000000   0.000000
     5  C    0.000000   0.000000   0.000000   0.000000   0.000000
     6  C    0.000000   0.000000   0.000000   0.000000   0.000000
     7  Cl   0.015792   0.000000   0.000000   0.000000   0.000000
     8  Cl   0.000000  -0.004392   0.000000   0.000000   0.000000
     9  Cl   0.000000   0.000000   0.015792   0.000000   0.000000
    10  H    0.000000   0.000000   0.000000   0.033707   0.000000
    11  H    0.000000   0.000000   0.000000   0.000000   0.033715
 Mulliken charges and spin densities:
               1          2
     1  C   -0.075696  -0.483710
     2  C   -0.056788   0.513695
     3  C   -0.105715  -0.512863
     4  C   -0.054729   1.387441
     5  C   -0.105735  -0.512872
     6  C   -0.056785   0.513695
     7  Cl   0.031077   0.015792
     8  Cl   0.040060  -0.004392
     9  Cl   0.031079   0.015792
    10  H    0.176604   0.033707
    11  H    0.176628   0.033715
 Sum of Mulliken charges =   0.00000   1.00000
 Mulliken charges and spin densities with hydrogens summed into heavy atoms:
               1          2
     1  C   -0.075696  -0.483710
     2  C   -0.056788   0.513695
     3  C    0.070889  -0.479156
     4  C   -0.054729   1.387441
     5  C    0.070893  -0.479157
     6  C   -0.056785   0.513695
     7  Cl   0.031077   0.015792
     8  Cl   0.040060  -0.004392
     9  Cl   0.031079   0.015792
 Charge=              0.0000 electrons
 Dipole moment (field-independent basis, Debye):
    X=             -0.0002    Y=             -0.8436    Z=              0.0000  Tot=              0.8436
 N-N= 2.475710714985D+02 E-N=-3.474492874391D+02  KE=-1.121722644788D+02
 Symmetry A'   KE=-8.621002098475D+01
 Symmetry A"   KE=-2.596224349403D+01
 Symmetry A'   SP= 1.000000000000D+00
 Symmetry A"   SP= 2.220446049250D-16
 1\1\GINC-SH02-01N41\FOpt\UAM1\ZDO\C6H2Cl3(2)\JLAPIER\09-Dec-2025\0\\# 
 opt am1 SCF=XQC\\Neutral Radical (removed 5) 123_\\0,2\C,-3.1679356841
 ,0.1770649112,0.\C,-1.9658946287,0.9241689126,0.\C,-0.7181622188,0.259
 9943087,0.\C,-0.7964217816,-1.1066172587,0.\C,-1.8978491457,-1.9193998
 916,0.\C,-3.1361937098,-1.237876901,0.\Cl,-4.5633818566,-2.1414193844,
 0.\Cl,-4.6544070477,0.9816808,0.\Cl,-1.9897623761,2.6131583168,0.\H,0.
 2337347528,0.8060784963,0.\H,-1.8345663037,-3.01515231,0.\\Version=ES6
 4L-G16RevB.01\State=2-A'\HF=0.08844\S2=1.301941\S2-1=0.\S2A=1.020728\R
 MSD=5.055e-09\RMSF=1.033e-04\Dipole=0.2918424,-0.1580606,0.\PG=CS [SG(
 C6H2Cl3)]\\@


 IT IS UNWORTHY OF EXCELLENT MEN TO LOSE HOURS LIKE SLAVES IN THE LABOR
 OF CALCULATION WHICH COULD BE SAFELY RELEGATED TO ANYONE ELSE
 IF A MACHINE WERE USED.
    -- G.W. VON LEIBNIZ
 Job cpu time:       0 days  0 hours  0 minutes  9.1 seconds.
 Elapsed time:       0 days  0 hours  0 minutes 17.7 seconds.
 File lengths (MBytes):  RWF=     10 Int=      0 D2E=      0 Chk=      2 Scr=      1
 Normal termination of Gaussian 16 at Tue Dec  9 09:58:56 2025.
