 Entering Gaussian System, Link 0=g16
 Initial command:
 /share/software/user/restricted/gaussian/g16.B01/l1.exe "/home/users/jlapier/Chloroaromatics/Gau-9479.inp" -scrdir="/home/users/jlapier/Chloroaromatics/"
 Entering Link 1 = /share/software/user/restricted/gaussian/g16.B01/l1.exe PID=      9481.
  
 Copyright (c) 1988-2017, Gaussian, Inc.  All Rights Reserved.
  
 This is part of the Gaussian(R) 16 program.  It is based on
 the Gaussian(R) 09 system (copyright 2009, Gaussian, Inc.),
 the Gaussian(R) 03 system (copyright 2003, Gaussian, Inc.),
 the Gaussian(R) 98 system (copyright 1998, Gaussian, Inc.),
 the Gaussian(R) 94 system (copyright 1995, Gaussian, Inc.),
 the Gaussian 92(TM) system (copyright 1992, Gaussian, Inc.),
 the Gaussian 90(TM) system (copyright 1990, Gaussian, Inc.),
 the Gaussian 88(TM) system (copyright 1988, Gaussian, Inc.),
 the Gaussian 86(TM) system (copyright 1986, Carnegie Mellon
 University), and the Gaussian 82(TM) system (copyright 1983,
 Carnegie Mellon University). Gaussian is a federally registered
 trademark of Gaussian, Inc.
  
 This software contains proprietary and confidential information,
 including trade secrets, belonging to Gaussian, Inc.
  
 This software is provided under written license and may be
 used, copied, transmitted, or stored only in accord with that
 written license.
  
 The following legend is applicable only to US Government
 contracts under FAR:
  
                    RESTRICTED RIGHTS LEGEND
  
 Use, reproduction and disclosure by the US Government is
 subject to restrictions as set forth in subparagraphs (a)
 and (c) of the Commercial Computer Software - Restricted
 Rights clause in FAR 52.227-19.
  
 Gaussian, Inc.
 340 Quinnipiac St., Bldg. 40, Wallingford CT 06492
  
  
 ---------------------------------------------------------------
 Warning -- This program may not be used in any manner that
 competes with the business of Gaussian, Inc. or will provide
 assistance to any competitor of Gaussian, Inc.  The licensee
 of this program is prohibited from giving any competitor of
 Gaussian, Inc. access to this program.  By using this program,
 the user acknowledges that Gaussian, Inc. is engaged in the
 business of creating and licensing software in the field of
 computational chemistry and represents and warrants to the
 licensee that it is not a competitor of Gaussian, Inc. and that
 it will not use this program in any manner prohibited above.
 ---------------------------------------------------------------
  

 Cite this work as:
 Gaussian 16, Revision B.01,
 M. J. Frisch, G. W. Trucks, H. B. Schlegel, G. E. Scuseria, 
 M. A. Robb, J. R. Cheeseman, G. Scalmani, V. Barone, 
 G. A. Petersson, H. Nakatsuji, X. Li, M. Caricato, A. V. Marenich, 
 J. Bloino, B. G. Janesko, R. Gomperts, B. Mennucci, H. P. Hratchian, 
 J. V. Ortiz, A. F. Izmaylov, J. L. Sonnenberg, D. Williams-Young, 
 F. Ding, F. Lipparini, F. Egidi, J. Goings, B. Peng, A. Petrone, 
 T. Henderson, D. Ranasinghe, V. G. Zakrzewski, J. Gao, N. Rega, 
 G. Zheng, W. Liang, M. Hada, M. Ehara, K. Toyota, R. Fukuda, 
 J. Hasegawa, M. Ishida, T. Nakajima, Y. Honda, O. Kitao, H. Nakai, 
 T. Vreven, K. Throssell, J. A. Montgomery, Jr., J. E. Peralta, 
 F. Ogliaro, M. J. Bearpark, J. J. Heyd, E. N. Brothers, K. N. Kudin, 
 V. N. Staroverov, T. A. Keith, R. Kobayashi, J. Normand, 
 K. Raghavachari, A. P. Rendell, J. C. Burant, S. S. Iyengar, 
 J. Tomasi, M. Cossi, J. M. Millam, M. Klene, C. Adamo, R. Cammi, 
 J. W. Ochterski, R. L. Martin, K. Morokuma, O. Farkas, 
 J. B. Foresman, and D. J. Fox, Gaussian, Inc., Wallingford CT, 2016.
 
 ******************************************
 Gaussian 16:  ES64L-G16RevB.01 20-Dec-2017
                 9-Dec-2025 
 ******************************************
 %mem=2GB
 %nprocshare=1
 Will use up to    1 processors via shared memory.
 %chk=geometry_chks/123_5ClBzNeutralRadical.chk
 -----------------
 # opt am1 SCF=XQC
 -----------------
 1/18=20,19=15,26=1,38=1/1,3;
 2/9=110,12=2,17=6,18=5,40=1/2;
 3/5=2,25=1,41=700000,71=1/1,2,3;
 4/35=1/1;
 5/5=2,8=3,13=1,35=1,38=5/2,8;
 6/7=2,8=2,9=2,10=2,28=1/1;
 7//1,2,3,16;
 1/18=20,19=15,26=1/3(2);
 2/9=110/2;
 99//99;
 2/9=110/2;
 3/5=2,25=1,41=700000,71=1,135=20/1,2,3;
 4/5=5,16=3,35=1/1;
 5/5=2,8=3,13=1,35=1,38=5/2,8;
 7//1,2,3,16;
 1/18=20,19=15,26=1/3(-5);
 2/9=110/2;
 6/7=2,8=2,9=2,10=2,19=2,28=1/1;
 99/9=1/99;
 ---------------------------------
 Neutral Radical (removed 4) 123_5
 ---------------------------------
 Symbolic Z-matrix:
 Charge =  0 Multiplicity = 2
 C                    -3.20928   0.19943   0. 
 C                    -2.0115    0.93555   0. 
 C                    -0.77511   0.2663    0. 
 C                    -0.7365   -1.13907   0. 
 C                    -1.93429  -1.87519   0. 
 C                    -3.17067  -1.20594   0. 
 Cl                   -4.67483  -2.13035   0. 
 Cl                   -4.76193   1.03987   0. 
 Cl                    0.81614  -1.97951   0. 
 Cl                   -2.05998   2.7004    0. 
 H                     0.72905   1.19071   0. 
 
 Add virtual bond connecting atoms H11        and C3         Dist= 3.34D+00.

 GradGradGradGradGradGradGradGradGradGradGradGradGradGradGradGradGradGrad
 Berny optimization.
 Initialization pass.
                           ----------------------------
                           !    Initial Parameters    !
                           ! (Angstroms and Degrees)  !
 --------------------------                            --------------------------
 ! Name  Definition              Value          Derivative Info.                !
 --------------------------------------------------------------------------------
 ! R1    R(1,2)                  1.4059         estimate D2E/DX2                !
 ! R2    R(1,6)                  1.4059         estimate D2E/DX2                !
 ! R3    R(1,8)                  1.7655         estimate D2E/DX2                !
 ! R4    R(2,3)                  1.4059         estimate D2E/DX2                !
 ! R5    R(2,10)                 1.7655         estimate D2E/DX2                !
 ! R6    R(3,4)                  1.4059         estimate D2E/DX2                !
 ! R7    R(3,11)                 1.7655         estimate D2E/DX2                !
 ! R8    R(4,5)                  1.4059         estimate D2E/DX2                !
 ! R9    R(4,9)                  1.7655         estimate D2E/DX2                !
 ! R10   R(5,6)                  1.4059         estimate D2E/DX2                !
 ! R11   R(6,7)                  1.7655         estimate D2E/DX2                !
 ! A1    A(2,1,6)              119.9999         estimate D2E/DX2                !
 ! A2    A(2,1,8)              119.9999         estimate D2E/DX2                !
 ! A3    A(6,1,8)              120.0001         estimate D2E/DX2                !
 ! A4    A(1,2,3)              120.0            estimate D2E/DX2                !
 ! A5    A(1,2,10)             120.0001         estimate D2E/DX2                !
 ! A6    A(3,2,10)             119.9999         estimate D2E/DX2                !
 ! A7    A(2,3,4)              120.0001         estimate D2E/DX2                !
 ! A8    A(2,3,11)             120.0            estimate D2E/DX2                !
 ! A9    A(4,3,11)             119.9999         estimate D2E/DX2                !
 ! A10   A(3,4,5)              119.9997         estimate D2E/DX2                !
 ! A11   A(3,4,9)              120.0003         estimate D2E/DX2                !
 ! A12   A(5,4,9)              120.0            estimate D2E/DX2                !
 ! A13   A(4,5,6)              120.0            estimate D2E/DX2                !
 ! A14   A(1,6,5)              120.0003         estimate D2E/DX2                !
 ! A15   A(1,6,7)              119.9999         estimate D2E/DX2                !
 ! A16   A(5,6,7)              119.9998         estimate D2E/DX2                !
 ! D1    D(6,1,2,3)              0.0            estimate D2E/DX2                !
 ! D2    D(6,1,2,10)           180.0            estimate D2E/DX2                !
 ! D3    D(8,1,2,3)            180.0            estimate D2E/DX2                !
 ! D4    D(8,1,2,10)             0.0            estimate D2E/DX2                !
 ! D5    D(2,1,6,5)              0.0            estimate D2E/DX2                !
 ! D6    D(2,1,6,7)            180.0            estimate D2E/DX2                !
 ! D7    D(8,1,6,5)            180.0            estimate D2E/DX2                !
 ! D8    D(8,1,6,7)              0.0            estimate D2E/DX2                !
 ! D9    D(1,2,3,4)              0.0            estimate D2E/DX2                !
 ! D10   D(1,2,3,11)           180.0            estimate D2E/DX2                !
 ! D11   D(10,2,3,4)           180.0            estimate D2E/DX2                !
 ! D12   D(10,2,3,11)            0.0            estimate D2E/DX2                !
 ! D13   D(2,3,4,5)              0.0            estimate D2E/DX2                !
 ! D14   D(2,3,4,9)            180.0            estimate D2E/DX2                !
 ! D15   D(11,3,4,5)           180.0            estimate D2E/DX2                !
 ! D16   D(11,3,4,9)             0.0            estimate D2E/DX2                !
 ! D17   D(3,4,5,6)              0.0            estimate D2E/DX2                !
 ! D18   D(9,4,5,6)            180.0            estimate D2E/DX2                !
 ! D19   D(4,5,6,1)              0.0            estimate D2E/DX2                !
 ! D20   D(4,5,6,7)            180.0            estimate D2E/DX2                !
 --------------------------------------------------------------------------------
 Trust Radius=3.00D-01 FncErr=1.00D-07 GrdErr=1.00D-07 EigMax=2.50D+02 EigMin=1.00D-04
 Number of steps in this run=     57 maximum allowed number of steps=    100.
 GradGradGradGradGradGradGradGradGradGradGradGradGradGradGradGradGradGrad

                          Input orientation:                          
 ---------------------------------------------------------------------
 Center     Atomic      Atomic             Coordinates (Angstroms)
 Number     Number       Type             X           Y           Z
 ---------------------------------------------------------------------
      1          6           0       -3.209280    0.199430    0.000000
      2          6           0       -2.011500    0.935550    0.000000
      3          6           0       -0.775110    0.266300    0.000000
      4          6           0       -0.736500   -1.139070    0.000000
      5          6           0       -1.934290   -1.875190    0.000000
      6          6           0       -3.170670   -1.205940    0.000000
      7         17           0       -4.674830   -2.130350    0.000000
      8         17           0       -4.761930    1.039870    0.000000
      9         17           0        0.816140   -1.979510    0.000000
     10         17           0       -2.059980    2.700400    0.000000
     11          1           0        0.729050    1.190710    0.000000
 ---------------------------------------------------------------------
                    Distance matrix (angstroms):
                    1          2          3          4          5
     1  C    0.000000
     2  C    1.405898   0.000000
     3  C    2.435088   1.405900   0.000000
     4  C    2.811801   2.435092   1.405900   0.000000
     5  C    2.435087   2.811800   2.435093   1.405907   0.000000
     6  C    1.405900   2.435088   2.811796   2.435088   1.405892
     7  Cl   2.752401   4.061166   4.577308   4.061167   2.752393
     8  Cl   1.765520   2.752408   4.061175   4.577321   4.061173
     9  Cl   4.577312   4.061173   2.752406   1.765511   2.752408
    10  Cl   2.752406   1.765516   2.752405   4.061173   4.577316
    11  H    4.061167   2.752403   1.765512   2.752401   4.061173
                    6          7          8          9         10
     6  C    0.000000
     7  Cl   1.765512   0.000000
     8  Cl   2.752412   3.171416   0.000000
     9  Cl   4.061165   5.493041   6.342832   0.000000
    10  Cl   4.061173   5.493049   3.171418   5.493052   0.000000
    11  H    4.577308   6.342819   5.493051   3.171416   3.171412
                   11
    11  H    0.000000
 Stoichiometry    C6HCl4(2)
 Framework group  CS[SG(C6HCl4)]
 Deg. of freedom    19
 Full point group                 CS      NOp   2
 Largest Abelian subgroup         CS      NOp   2
 Largest concise Abelian subgroup C1      NOp   1
                         Standard orientation:                         
 ---------------------------------------------------------------------
 Center     Atomic      Atomic             Coordinates (Angstroms)
 Number     Number       Type             X           Y           Z
 ---------------------------------------------------------------------
      1          6           0        0.026157   -0.907534    0.000000
      2          6           0       -1.191387   -0.204586    0.000000
      3          6           0       -1.191387    1.201315    0.000000
      4          6           0        0.026157    1.904267    0.000000
      5          6           0        1.243706    1.201310    0.000000
      6          6           0        1.243701   -0.204581    0.000000
      7         17           0        2.772679   -1.087337    0.000000
      8         17           0        0.026157   -2.673054    0.000000
      9         17           0        0.026162    3.669778    0.000000
     10         17           0       -2.720370   -1.087341    0.000000
     11          1           0       -2.720365    2.084071    0.000000
 ---------------------------------------------------------------------
 Rotational constants (GHZ):           0.8337192           0.5634314           0.3362154
 Standard basis: VSTO-6G (5D, 7F)
 There are    31 symmetry adapted cartesian basis functions of A'  symmetry.
 There are    10 symmetry adapted cartesian basis functions of A"  symmetry.
 There are    31 symmetry adapted basis functions of A'  symmetry.
 There are    10 symmetry adapted basis functions of A"  symmetry.
    41 basis functions,   246 primitive gaussians,    41 cartesian basis functions
    27 alpha electrons       26 beta electrons
       nuclear repulsion energy       291.4420222276 Hartrees.
 Integral buffers will be    131072 words long.
 Regular integral format.
 Two-electron integral symmetry is turned off.
 Do NDO integrals.
 One-electron integrals computed using PRISM.
 NBasis=    41 RedAO= T EigKep=  1.00D+00  NBF=    31    10
 NBsUse=    41 1.00D-06 EigRej= -1.00D+00 NBFU=    31    10
 Simple Huckel Guess.
 Initial guess orbital symmetries:
 Alpha Orbitals:
       Occupied  (A') (A') (A') (A') (A') (A') (A') (A') (A') (A')
                 (A") (A') (A') (A') (A") (A') (A") (A') (A") (A')
                 (A") (A') (A') (A') (A") (A") (A')
       Virtual   (A") (A') (A") (A") (A') (A') (A') (A') (A') (A')
                 (A') (A') (A') (A')
 Beta  Orbitals:
       Occupied  (A') (A') (A') (A') (A') (A') (A') (A') (A') (A')
                 (A") (A') (A') (A') (A") (A') (A") (A') (A") (A')
                 (A") (A') (A') (A') (A") (A")
       Virtual   (A') (A") (A') (A") (A") (A') (A') (A') (A') (A')
                 (A') (A') (A') (A') (A')
 The electronic state of the initial guess is 2-A'.
 Initial guess <Sx>= 0.0000 <Sy>= 0.0000 <Sz>= 0.5000 <S**2>= 0.7500 S= 0.5000
 Keep J ints in memory in canonical form, NReq=864464.
 Overlap will be assumed to be unity.
 Requested convergence on RMS density matrix=1.00D-08 within  32 cycles.
 Requested convergence on MAX density matrix=1.00D-06.
 Requested convergence on             energy=1.00D-06.
 No special actions if energy rises.
 Fock symm off for IB=2 I1=    1 I=   32 J=   12 Cut=1.00D-07 Err=2.02D-03
 Fock matrix is not symmetric: symmetry in diagonalization turned off.
 Rare condition: small coef for last iteration:  0.000D+00
 Rare condition: small coef for last iteration:  0.000D+00
 Rare condition: small coef for last iteration:  0.000D+00
 Rare condition: small coef for last iteration:  0.000D+00
 Rare condition: small coef for last iteration:  0.000D+00
 Rare condition: small coef for last iteration:  0.000D+00
 Rare condition: small coef for last iteration:  0.000D+00
 Rare condition: small coef for last iteration:  0.000D+00
 Rare condition: small coef for last iteration:  0.000D+00
 >>>>>>>>>> Convergence criterion not met.
 SCF Done:  E(UAM1) =  0.228493708576     A.U. after   33 cycles
            NFock= 32  Conv=0.42D-03     -V/T= 1.0017
 <Sx>= 0.0000 <Sy>= 0.0000 <Sz>= 0.5000 <S**2>= 1.0608 S= 0.6449
 <L.S>=  0.00000000000    
 Annihilation of the first spin contaminant:
 S**2 before annihilation     1.0608,   after     0.8291
 Keep J ints in memory in canonical form, NReq=864864.
 LinEq1:  Iter=  0 NonCon=     1 RMS=2.99D-04 Max=4.26D-03 NDo=     1
 AX will form     1 AO Fock derivatives at one time.
 LinEq1:  Iter=  1 NonCon=     1 RMS=3.05D-05 Max=3.75D-04 NDo=     1
 LinEq1:  Iter=  2 NonCon=     1 RMS=7.48D-06 Max=1.11D-04 NDo=     1
 LinEq1:  Iter=  3 NonCon=     1 RMS=2.04D-06 Max=2.05D-05 NDo=     1
 LinEq1:  Iter=  4 NonCon=     1 RMS=2.86D-07 Max=2.98D-06 NDo=     1
 LinEq1:  Iter=  5 NonCon=     1 RMS=6.46D-08 Max=5.63D-07 NDo=     1
 LinEq1:  Iter=  6 NonCon=     1 RMS=1.61D-08 Max=1.00D-07 NDo=     1
 LinEq1:  Iter=  7 NonCon=     1 RMS=4.76D-09 Max=3.79D-08 NDo=     1
 LinEq1:  Iter=  8 NonCon=     0 RMS=1.20D-09 Max=9.31D-09 NDo=     1
 Linear equations converged to 2.771D-09 2.771D-08 after     8 iterations.
 LinEq1:  Iter=  0 NonCon=     1 RMS=6.63D-04 Max=1.18D-02 NDo=     1
 LinEq1:  Iter=  1 NonCon=     1 RMS=1.27D-04 Max=1.24D-03 NDo=     1
 LinEq1:  Iter=  2 NonCon=     1 RMS=3.75D-05 Max=3.95D-04 NDo=     1
 LinEq1:  Iter=  3 NonCon=     1 RMS=8.05D-06 Max=6.89D-05 NDo=     1
 LinEq1:  Iter=  4 NonCon=     1 RMS=1.58D-06 Max=1.46D-05 NDo=     1
 LinEq1:  Iter=  5 NonCon=     1 RMS=5.53D-07 Max=6.17D-06 NDo=     1
 LinEq1:  Iter=  6 NonCon=     1 RMS=1.56D-07 Max=1.46D-06 NDo=     1
 LinEq1:  Iter=  7 NonCon=     1 RMS=3.72D-08 Max=4.61D-07 NDo=     1
 LinEq1:  Iter=  8 NonCon=     1 RMS=5.53D-09 Max=3.92D-08 NDo=     1
 LinEq1:  Iter=  9 NonCon=     0 RMS=7.34D-10 Max=5.25D-09 NDo=     1
 Linear equations converged to 2.771D-09 2.771D-08 after     9 iterations.
 LinEq1:  Iter=  0 NonCon=     1 RMS=5.33D-04 Max=9.11D-03 NDo=     1
 LinEq1:  Iter=  1 NonCon=     1 RMS=1.12D-04 Max=1.16D-03 NDo=     1
 LinEq1:  Iter=  2 NonCon=     1 RMS=3.48D-05 Max=3.01D-04 NDo=     1
 LinEq1:  Iter=  3 NonCon=     1 RMS=7.78D-06 Max=6.21D-05 NDo=     1
 LinEq1:  Iter=  4 NonCon=     1 RMS=2.08D-06 Max=2.59D-05 NDo=     1
 LinEq1:  Iter=  5 NonCon=     1 RMS=6.08D-07 Max=8.22D-06 NDo=     1
 LinEq1:  Iter=  6 NonCon=     1 RMS=1.39D-07 Max=1.77D-06 NDo=     1
 LinEq1:  Iter=  7 NonCon=     1 RMS=3.00D-08 Max=3.93D-07 NDo=     1
 LinEq1:  Iter=  8 NonCon=     1 RMS=4.09D-09 Max=2.57D-08 NDo=     1
 LinEq1:  Iter=  9 NonCon=     0 RMS=5.73D-10 Max=3.60D-09 NDo=     1
 Linear equations converged to 2.771D-09 2.771D-08 after     9 iterations.
 LinEq1:  Iter=  0 NonCon=     1 RMS=4.10D-04 Max=5.91D-03 NDo=     1
 LinEq1:  Iter=  1 NonCon=     1 RMS=9.82D-05 Max=1.44D-03 NDo=     1
 LinEq1:  Iter=  2 NonCon=     1 RMS=2.71D-05 Max=2.40D-04 NDo=     1
 LinEq1:  Iter=  3 NonCon=     1 RMS=6.85D-06 Max=5.03D-05 NDo=     1
 LinEq1:  Iter=  4 NonCon=     1 RMS=1.61D-06 Max=1.77D-05 NDo=     1
 LinEq1:  Iter=  5 NonCon=     1 RMS=4.39D-07 Max=5.07D-06 NDo=     1
 LinEq1:  Iter=  6 NonCon=     1 RMS=8.94D-08 Max=1.04D-06 NDo=     1
 LinEq1:  Iter=  7 NonCon=     1 RMS=2.01D-08 Max=2.94D-07 NDo=     1
 LinEq1:  Iter=  8 NonCon=     1 RMS=3.15D-09 Max=2.39D-08 NDo=     1
 LinEq1:  Iter=  9 NonCon=     0 RMS=4.17D-10 Max=2.34D-09 NDo=     1
 Linear equations converged to 2.771D-09 2.771D-08 after     9 iterations.
 LinEq1:  Iter=  0 NonCon=     1 RMS=2.50D-04 Max=3.49D-03 NDo=     1
 LinEq1:  Iter=  1 NonCon=     1 RMS=5.11D-05 Max=5.79D-04 NDo=     1
 LinEq1:  Iter=  2 NonCon=     1 RMS=1.35D-05 Max=1.06D-04 NDo=     1
 LinEq1:  Iter=  3 NonCon=     1 RMS=3.60D-06 Max=2.80D-05 NDo=     1
 LinEq1:  Iter=  4 NonCon=     1 RMS=7.80D-07 Max=6.29D-06 NDo=     1
 LinEq1:  Iter=  5 NonCon=     1 RMS=2.15D-07 Max=1.75D-06 NDo=     1
 LinEq1:  Iter=  6 NonCon=     1 RMS=4.46D-08 Max=4.47D-07 NDo=     1
 LinEq1:  Iter=  7 NonCon=     1 RMS=9.99D-09 Max=1.50D-07 NDo=     1
 LinEq1:  Iter=  8 NonCon=     0 RMS=1.78D-09 Max=1.58D-08 NDo=     1
 Linear equations converged to 2.771D-09 2.771D-08 after     8 iterations.
     Accept linear search using points  1 and  2.
     Minimum is close to point  2 DX= -4.91D-02 DF= -2.38D-07 DXR=  5.16D-02 DFR=  2.76D-03 which will be used.
 LinEq1:  Iter=  0 NonCon=     1 RMS=1.19D-05 Max=1.59D-04 NDo=     1
 LinEq1:  Iter=  1 NonCon=     1 RMS=2.76D-06 Max=2.54D-05 NDo=     1
 LinEq1:  Iter=  2 NonCon=     1 RMS=5.95D-07 Max=5.44D-06 NDo=     1
 LinEq1:  Iter=  3 NonCon=     1 RMS=1.37D-07 Max=1.50D-06 NDo=     1
 LinEq1:  Iter=  4 NonCon=     1 RMS=3.81D-08 Max=3.42D-07 NDo=     1
 LinEq1:  Iter=  5 NonCon=     1 RMS=8.76D-09 Max=8.83D-08 NDo=     1
 LinEq1:  Iter=  6 NonCon=     0 RMS=1.29D-09 Max=9.69D-09 NDo=     1
 Linear equations converged to 1.568D-09 1.568D-08 after     6 iterations.
     Minimum is close to point  2 DX=  6.67D-03 DF= -1.74D-11 DXR=  6.63D-03 DFR=  4.39D-05 which will be used.
 LinEq1:  Iter=  0 NonCon=     1 RMS=6.00D-07 Max=4.45D-06 NDo=     1
 LinEq1:  Iter=  1 NonCon=     1 RMS=1.69D-07 Max=1.19D-06 NDo=     1
 LinEq1:  Iter=  2 NonCon=     1 RMS=4.13D-08 Max=3.69D-07 NDo=     1
 LinEq1:  Iter=  3 NonCon=     1 RMS=1.05D-08 Max=1.05D-07 NDo=     1
 LinEq1:  Iter=  4 NonCon=     1 RMS=2.63D-09 Max=2.16D-08 NDo=     1
 LinEq1:  Iter=  5 NonCon=     1 RMS=4.74D-10 Max=3.80D-09 NDo=     1
 LinEq1:  Iter=  6 NonCon=     1 RMS=1.43D-10 Max=1.88D-09 NDo=     1
 LinEq1:  Iter=  7 NonCon=     0 RMS=3.44D-11 Max=3.62D-10 NDo=     1
 Linear equations converged to 1.090D-10 1.090D-09 after     7 iterations.
 LinEq1:  Iter=  0 NonCon=     1 RMS=1.76D-08 Max=1.85D-07 NDo=     1
 LinEq1:  Iter=  1 NonCon=     1 RMS=4.71D-09 Max=4.86D-08 NDo=     1
 LinEq1:  Iter=  2 NonCon=     1 RMS=1.18D-09 Max=1.21D-08 NDo=     1
 LinEq1:  Iter=  3 NonCon=     1 RMS=2.73D-10 Max=2.72D-09 NDo=     1
 LinEq1:  Iter=  4 NonCon=     1 RMS=6.49D-11 Max=5.33D-10 NDo=     1
 LinEq1:  Iter=  5 NonCon=     1 RMS=1.48D-11 Max=1.14D-10 NDo=     1
 LinEq1:  Iter=  6 NonCon=     1 RMS=3.98D-12 Max=3.72D-11 NDo=     1
 LinEq1:  Iter=  7 NonCon=     0 RMS=1.06D-12 Max=7.28D-12 NDo=     1
 Linear equations converged to 3.090D-12 3.090D-11 after     7 iterations.
 SCF Done:  E(UAM1) =  0.219402773202     a.u. after    9 cycles
            Convg  =    0.1039D-07                    81 Fock formations.
              S**2 =  1.5434                  -V/T =  1.0016
 <Sx>= 0.0000 <Sy>= 0.0000 <Sz>= 0.5000 <S**2>= 1.5434 S= 0.8392
 <L.S>=  0.00000000000    
 Annihilation of the first spin contaminant:
 S**2 before annihilation     1.5434,   after     1.4704

 **********************************************************************

            Population analysis using the SCF Density.

 **********************************************************************

 Orbital symmetries:
 Alpha Orbitals:
       Occupied  (A') (A') (A') (A') (A') (A') (A') (A') (A') (A')
                 (A') (A') (A") (A') (A') (A") (A") (A') (A') (A")
                 (A') (A') (A') (A") (A') (A") (A")
       Virtual   (A") (A") (A') (A') (A') (A') (A') (A") (A') (A')
                 (A') (A') (A') (A')
 Beta  Orbitals:
       Occupied  (A') (A') (A') (A') (A') (A') (A') (A') (A') (A')
                 (A') (A') (A") (A') (A') (A") (A") (A") (A') (A')
                 (A') (A') (A") (A') (A") (A")
       Virtual   (A') (A") (A') (A') (A") (A') (A') (A') (A") (A')
                 (A') (A') (A') (A') (A')
 The electronic state is 2-A'.
 Alpha  occ. eigenvalues --   -1.46525  -1.39581  -1.39210  -1.38307  -1.36545
 Alpha  occ. eigenvalues --   -1.15384  -1.14671  -0.87818  -0.87075  -0.68486
 Alpha  occ. eigenvalues --   -0.64854  -0.62016  -0.57556  -0.56443  -0.55759
 Alpha  occ. eigenvalues --   -0.50493  -0.49282  -0.47673  -0.47217  -0.47166
 Alpha  occ. eigenvalues --   -0.45418  -0.45231  -0.44355  -0.43991  -0.41660
 Alpha  occ. eigenvalues --   -0.39368  -0.37939
 Alpha virt. eigenvalues --   -0.02069  -0.01755  -0.00293   0.00684   0.01074
 Alpha virt. eigenvalues --    0.03338   0.03652   0.05689   0.11511   0.11735
 Alpha virt. eigenvalues --    0.13332   0.13676   0.14954   0.15625
  Beta  occ. eigenvalues --   -1.45875  -1.39528  -1.39236  -1.38219  -1.36116
  Beta  occ. eigenvalues --   -1.14604  -1.13093  -0.87034  -0.84155  -0.68707
  Beta  occ. eigenvalues --   -0.64205  -0.60804  -0.57405  -0.56173  -0.54155
  Beta  occ. eigenvalues --   -0.50965  -0.50298  -0.47056  -0.46732  -0.45720
  Beta  occ. eigenvalues --   -0.45172  -0.44412  -0.43541  -0.43492  -0.37967
  Beta  occ. eigenvalues --   -0.37691
  Beta virt. eigenvalues --   -0.04591  -0.01636  -0.00735  -0.00340   0.00419
  Beta virt. eigenvalues --    0.01469   0.02975   0.03657   0.07027   0.12124
  Beta virt. eigenvalues --    0.12252   0.14138   0.15417   0.15446   0.17194
          Condensed to atoms (all electrons):
               1          2          3          4          5          6
     1  C    4.034398   0.000000   0.000000   0.000000   0.000000   0.000000
     2  C    0.000000   4.038046   0.000000   0.000000   0.000000   0.000000
     3  C    0.000000   0.000000   4.133261   0.000000   0.000000   0.000000
     4  C    0.000000   0.000000   0.000000   4.043540   0.000000   0.000000
     5  C    0.000000   0.000000   0.000000   0.000000   3.978999   0.000000
     6  C    0.000000   0.000000   0.000000   0.000000   0.000000   4.046647
     7  Cl   0.000000   0.000000   0.000000   0.000000   0.000000   0.000000
     8  Cl   0.000000   0.000000   0.000000   0.000000   0.000000   0.000000
     9  Cl   0.000000   0.000000   0.000000   0.000000   0.000000   0.000000
    10  Cl   0.000000   0.000000   0.000000   0.000000   0.000000   0.000000
    11  H    0.000000   0.000000   0.000000   0.000000   0.000000   0.000000
               7          8          9         10         11
     1  C    0.000000   0.000000   0.000000   0.000000   0.000000
     2  C    0.000000   0.000000   0.000000   0.000000   0.000000
     3  C    0.000000   0.000000   0.000000   0.000000   0.000000
     4  C    0.000000   0.000000   0.000000   0.000000   0.000000
     5  C    0.000000   0.000000   0.000000   0.000000   0.000000
     6  C    0.000000   0.000000   0.000000   0.000000   0.000000
     7  Cl   6.981653   0.000000   0.000000   0.000000   0.000000
     8  Cl   0.000000   6.978597   0.000000   0.000000   0.000000
     9  Cl   0.000000   0.000000   7.001502   0.000000   0.000000
    10  Cl   0.000000   0.000000   0.000000   6.996957   0.000000
    11  H    0.000000   0.000000   0.000000   0.000000   0.766399
          Atomic-Atomic Spin Densities.
               1          2          3          4          5          6
     1  C    0.538905   0.000000   0.000000   0.000000   0.000000   0.000000
     2  C    0.000000  -0.518326   0.000000   0.000000   0.000000   0.000000
     3  C    0.000000   0.000000   0.862774   0.000000   0.000000   0.000000
     4  C    0.000000   0.000000   0.000000  -0.537365   0.000000   0.000000
     5  C    0.000000   0.000000   0.000000   0.000000   1.483360   0.000000
     6  C    0.000000   0.000000   0.000000   0.000000   0.000000  -0.531163
     7  Cl   0.000000   0.000000   0.000000   0.000000   0.000000   0.000000
     8  Cl   0.000000   0.000000   0.000000   0.000000   0.000000   0.000000
     9  Cl   0.000000   0.000000   0.000000   0.000000   0.000000   0.000000
    10  Cl   0.000000   0.000000   0.000000   0.000000   0.000000   0.000000
    11  H    0.000000   0.000000   0.000000   0.000000   0.000000   0.000000
               7          8          9         10         11
     1  C    0.000000   0.000000   0.000000   0.000000   0.000000
     2  C    0.000000   0.000000   0.000000   0.000000   0.000000
     3  C    0.000000   0.000000   0.000000   0.000000   0.000000
     4  C    0.000000   0.000000   0.000000   0.000000   0.000000
     5  C    0.000000   0.000000   0.000000   0.000000   0.000000
     6  C    0.000000   0.000000   0.000000   0.000000   0.000000
     7  Cl   0.011404   0.000000   0.000000   0.000000   0.000000
     8  Cl   0.000000   0.007163   0.000000   0.000000   0.000000
     9  Cl   0.000000   0.000000   0.012286   0.000000   0.000000
    10  Cl   0.000000   0.000000   0.000000   0.010392   0.000000
    11  H    0.000000   0.000000   0.000000   0.000000  -0.339429
 Mulliken charges and spin densities:
               1          2
     1  C   -0.034398   0.538905
     2  C   -0.038046  -0.518326
     3  C   -0.133261   0.862774
     4  C   -0.043540  -0.537365
     5  C    0.021001   1.483360
     6  C   -0.046647  -0.531163
     7  Cl   0.018347   0.011404
     8  Cl   0.021403   0.007163
     9  Cl  -0.001502   0.012286
    10  Cl   0.003043   0.010392
    11  H    0.233601  -0.339429
 Sum of Mulliken charges =  -0.00000   1.00000
 Mulliken charges and spin densities with hydrogens summed into heavy atoms:
               1          2
     1  C   -0.034398   0.538905
     2  C   -0.038046  -0.518326
     3  C    0.100340   0.523345
     4  C   -0.043540  -0.537365
     5  C    0.021001   1.483360
     6  C   -0.046647  -0.531163
     7  Cl   0.018347   0.011404
     8  Cl   0.021403   0.007163
     9  Cl  -0.001502   0.012286
    10  Cl   0.003043   0.010392
 Charge=             -0.0000 electrons
 Dipole moment (field-independent basis, Debye):
    X=             -1.7908    Y=              0.9614    Z=              0.0000  Tot=              2.0325
 N-N= 2.914420222276D+02 E-N=-4.091767384156D+02  KE=-1.336446927408D+02
 Symmetry A'   KE=-1.020644021947D+02
 Symmetry A"   KE=-3.158029054611D+01
 Symmetry A'   SP= 1.000000000000D+00
 Symmetry A"   SP= 2.220446049250D-16
 Calling FoFJK, ICntrl=      2127 FMM=F ISym2X=1 I1Cent= 0 IOpClX= 1 NMat=1 NMatS=1 NMatT=0.
 ***** Axes restored to original set *****
 -------------------------------------------------------------------
 Center     Atomic                   Forces (Hartrees/Bohr)
 Number     Number              X              Y              Z
 -------------------------------------------------------------------
      1        6          -0.030958737    0.017425930    0.000000000
      2        6           0.017836161    0.031046337   -0.000000000
      3        6           0.058079046    0.036719700    0.000000000
      4        6           0.028819727   -0.024128857    0.000000000
      5        6          -0.002001229    0.058953036   -0.000000000
      6        6          -0.021913265   -0.043503868    0.000000000
      7       17           0.036542818    0.019595643    0.000000000
      8       17           0.035568254   -0.019796269    0.000000000
      9       17          -0.035929020    0.019926203    0.000000000
     10       17           0.003881517   -0.040657380    0.000000000
     11        1          -0.089925272   -0.055580477   -0.000000000
 -------------------------------------------------------------------
 Cartesian Forces:  Max     0.089925272 RMS     0.031352726

 GradGradGradGradGradGradGradGradGradGradGradGradGradGradGradGradGradGrad
 Berny optimization.
 FormGI is forming the generalized inverse of G from B-inverse, IUseBI=4.
 Internal  Forces:  Max     0.105715050 RMS     0.021837793
 Search for a local minimum.
 Step number   1 out of a maximum of   57
 All quantities printed in internal units (Hartrees-Bohrs-Radians)
 Mixed Optimization -- RFO/linear search
 Second derivative matrix not updated -- first step.
 ITU=  0
     Eigenvalues ---    0.02011   0.02011   0.02011   0.02011   0.02011
     Eigenvalues ---    0.02011   0.02011   0.02011   0.06524   0.16000
     Eigenvalues ---    0.23485   0.25000   0.25000   0.25000   0.25000
     Eigenvalues ---    0.25000   0.25000   0.29033   0.29033   0.29033
     Eigenvalues ---    0.29033   0.41081   0.41569   0.44656   0.44657
     Eigenvalues ---    0.44657   0.44657
 RFO step:  Lambda=-9.62887371D-02 EMin= 2.01067220D-02
 Linear search not attempted -- first point.
 Maximum step size (   0.300) exceeded in Quadratic search.
    -- Step size scaled by   0.426
 Iteration  1 RMS(Cart)=  0.03647752 RMS(Int)=  0.01152745
 Iteration  2 RMS(Cart)=  0.01098584 RMS(Int)=  0.00002482
 Iteration  3 RMS(Cart)=  0.00000125 RMS(Int)=  0.00002481
 Iteration  4 RMS(Cart)=  0.00000000 RMS(Int)=  0.00002481
 ClnCor:  largest displacement from symmetrization is 1.03D-08 for atom     5.
 Variable       Old X    -DE/DX   Delta X   Delta X   Delta X     New X
                                 (Linear)    (Quad)   (Total)
    R1        2.65676  -0.00032   0.00000   0.00051   0.00047   2.65724
    R2        2.65677  -0.00424   0.00000  -0.00266  -0.00267   2.65410
    R3        3.33635  -0.04070   0.00000  -0.04489  -0.04489   3.29146
    R4        2.65677  -0.02225   0.00000  -0.01738  -0.01741   2.63936
    R5        3.33634  -0.04075   0.00000  -0.04493  -0.04493   3.29141
    R6        2.65677  -0.02644   0.00000  -0.02143  -0.02143   2.63534
    R7        3.33633  -0.10572   0.00000  -0.27902  -0.27902   3.05731
    R8        2.65678  -0.03147   0.00000  -0.02548  -0.02545   2.63133
    R9        3.33633  -0.04108   0.00000  -0.04530  -0.04530   3.29103
   R10        2.65675  -0.03086   0.00000  -0.02433  -0.02429   2.63246
   R11        3.33633  -0.04139   0.00000  -0.04565  -0.04565   3.29069
    A1        2.09439  -0.00675   0.00000  -0.00604  -0.00608   2.08831
    A2        2.09439   0.00417   0.00000   0.00400   0.00402   2.09842
    A3        2.09440   0.00258   0.00000   0.00204   0.00206   2.09646
    A4        2.09439  -0.00096   0.00000   0.00017   0.00009   2.09449
    A5        2.09440   0.00509   0.00000   0.00559   0.00563   2.10003
    A6        2.09439  -0.00413   0.00000  -0.00576  -0.00572   2.08867
    A7        2.09440   0.00787   0.00000   0.00957   0.00954   2.10393
    A8        2.09440  -0.00349   0.00000  -0.00404  -0.00402   2.09037
    A9        2.09439  -0.00438   0.00000  -0.00553  -0.00551   2.08888
   A10        2.09439  -0.01275   0.00000  -0.01802  -0.01798   2.07641
   A11        2.09440   0.00568   0.00000   0.00815   0.00813   2.10253
   A12        2.09440   0.00708   0.00000   0.00987   0.00985   2.10425
   A13        2.09439   0.02528   0.00000   0.02903   0.02913   2.12352
   A14        2.09440  -0.01268   0.00000  -0.01471  -0.01469   2.07971
   A15        2.09439   0.01041   0.00000   0.01237   0.01235   2.10675
   A16        2.09439   0.00227   0.00000   0.00235   0.00234   2.09673
    D1        0.00000   0.00000   0.00000   0.00000   0.00000   0.00000
    D2        3.14159  -0.00000   0.00000  -0.00000   0.00000   3.14159
    D3        3.14159   0.00000   0.00000   0.00000   0.00000   3.14159
    D4        0.00000   0.00000   0.00000   0.00000   0.00000   0.00000
    D5        0.00000   0.00000   0.00000   0.00000   0.00000   0.00000
    D6        3.14159   0.00000   0.00000   0.00000   0.00000   3.14159
    D7        3.14159  -0.00000   0.00000  -0.00000   0.00000   3.14159
    D8        0.00000   0.00000   0.00000   0.00000   0.00000   0.00000
    D9        0.00000  -0.00000   0.00000  -0.00000   0.00000   0.00000
   D10        3.14159  -0.00000   0.00000  -0.00000   0.00000   3.14159
   D11        3.14159  -0.00000   0.00000  -0.00000   0.00000   3.14159
   D12        0.00000  -0.00000   0.00000  -0.00000   0.00000   0.00000
   D13        0.00000   0.00000   0.00000   0.00000   0.00000   0.00000
   D14        3.14159  -0.00000   0.00000   0.00000   0.00000   3.14159
   D15        3.14159   0.00000   0.00000   0.00000   0.00000   3.14159
   D16        0.00000   0.00000   0.00000   0.00000   0.00000   0.00000
   D17        0.00000  -0.00000   0.00000  -0.00000   0.00000   0.00000
   D18        3.14159   0.00000   0.00000   0.00000   0.00000   3.14159
   D19        0.00000  -0.00000   0.00000  -0.00000   0.00000   0.00000
   D20        3.14159  -0.00000   0.00000  -0.00000   0.00000   3.14159
         Item               Value     Threshold  Converged?
 Maximum Force            0.105715     0.000450     NO 
 RMS     Force            0.021838     0.000300     NO 
 Maximum Displacement     0.238613     0.001800     NO 
 RMS     Displacement     0.046293     0.001200     NO 
 Predicted change in Energy=-3.663376D-02
 GradGradGradGradGradGradGradGradGradGradGradGradGradGradGradGradGradGrad

                          Input orientation:                          
 ---------------------------------------------------------------------
 Center     Atomic      Atomic             Coordinates (Angstroms)
 Number     Number       Type             X           Y           Z
 ---------------------------------------------------------------------
      1          6           0       -3.202197    0.207586    0.000000
      2          6           0       -2.001185    0.938905    0.000000
      3          6           0       -0.775580    0.269110    0.000000
      4          6           0       -0.729592   -1.124694    0.000000
      5          6           0       -1.924905   -1.838920    0.000000
      6          6           0       -3.160858   -1.196294    0.000000
      7         17           0       -4.631226   -2.129215    0.000000
      8         17           0       -4.733884    1.036855    0.000000
      9         17           0        0.799796   -1.957718    0.000000
     10         17           0       -2.032050    2.680369    0.000000
     11          1           0        0.602781    1.116214    0.000000
 ---------------------------------------------------------------------
                    Distance matrix (angstroms):
                    1          2          3          4          5
     1  C    0.000000
     2  C    1.406149   0.000000
     3  C    2.427397   1.396687   0.000000
     4  C    2.808691   2.423921   1.394562   0.000000
     5  C    2.412397   2.778872   2.400987   1.392442   0.000000
     6  C    1.404488   2.429798   2.799458   2.432321   1.393036
     7  Cl   2.739118   4.041099   4.540702   4.028873   2.721846
     8  Cl   1.741768   2.734454   4.032073   4.550457   4.020006
     9  Cl   4.550218   4.029382   2.727741   1.741538   2.727290
    10  Cl   2.735672   1.741737   2.718987   4.021803   4.520559
    11  H    3.911964   2.609996   1.617858   2.607084   3.888704
                    6          7          8          9         10
     6  C    0.000000
     7  Cl   1.741357   0.000000
     8  Cl   2.731550   3.167735   0.000000
     9  Cl   4.033181   5.433729   6.291986   0.000000
    10  Cl   4.037663   5.466975   3.162443   5.434262   0.000000
    11  H    4.417316   6.158543   5.337256   3.080239   3.064134
                   11
    11  H    0.000000
 Stoichiometry    C6HCl4(2)
 Framework group  CS[SG(C6HCl4)]
 Deg. of freedom    19
 Full point group                 CS      NOp   2
 Largest Abelian subgroup         CS      NOp   2
 Largest concise Abelian subgroup C1      NOp   1
                         Standard orientation:                         
 ---------------------------------------------------------------------
 Center     Atomic      Atomic             Coordinates (Angstroms)
 Number     Number       Type             X           Y           Z
 ---------------------------------------------------------------------
      1          6           0        0.000000   -0.916822    0.000000
      2          6           0       -1.194507   -0.174925    0.000000
      3          6           0       -1.149692    1.221043    0.000000
      4          6           0        0.073453    1.890909    0.000000
      5          6           0        1.250134    1.146385    0.000000
      6          6           0        1.234235   -0.246559    0.000000
      7         17           0        2.730182   -1.137888    0.000000
      8         17           0       -0.049046   -2.657899    0.000000
      9         17           0        0.126887    3.631627    0.000000
     10         17           0       -2.734742   -0.988144    0.000000
     11          1           0       -2.527543    2.068977    0.000000
 ---------------------------------------------------------------------
 Rotational constants (GHZ):           0.8432827           0.5744991           0.3417064
 Standard basis: VSTO-6G (5D, 7F)
 There are    31 symmetry adapted cartesian basis functions of A'  symmetry.
 There are    10 symmetry adapted cartesian basis functions of A"  symmetry.
 There are    31 symmetry adapted basis functions of A'  symmetry.
 There are    10 symmetry adapted basis functions of A"  symmetry.
    41 basis functions,   246 primitive gaussians,    41 cartesian basis functions
    27 alpha electrons       26 beta electrons
       nuclear repulsion energy       293.0969219570 Hartrees.
 Integral buffers will be    131072 words long.
 Regular integral format.
 Two-electron integral symmetry is turned off.
 Do NDO integrals.
 One-electron integrals computed using PRISM.
 NBasis=    41 RedAO= T EigKep=  1.00D+00  NBF=    31    10
 NBsUse=    41 1.00D-06 EigRej= -1.00D+00 NBFU=    31    10
 Initial guess from the checkpoint file:  "geometry_chks/123_5ClBzNeutralRadical.chk"
 B after Tr=    -0.000000    0.000000    0.000000
         Rot=    0.999905    0.000000    0.000000    0.013797 Ang=   1.58 deg.
 Initial guess orbital symmetries:
 Alpha Orbitals:
       Occupied  (A') (A') (A') (A') (A') (A') (A') (A') (A') (A')
                 (A') (A') (A") (A') (A') (A") (A") (A') (A') (A")
                 (A') (A') (A') (A") (A') (A") (A")
       Virtual   (A") (A") (A') (A') (A') (A') (A') (A") (A') (A')
                 (A') (A') (A') (A')
 Beta  Orbitals:
       Occupied  (A') (A') (A') (A') (A') (A') (A') (A') (A') (A')
                 (A') (A') (A") (A') (A') (A") (A") (A") (A') (A')
                 (A') (A') (A") (A') (A") (A")
       Virtual   (A') (A") (A') (A') (A") (A') (A') (A') (A") (A')
                 (A') (A') (A') (A') (A')
 Initial guess <Sx>= 0.0000 <Sy>= 0.0000 <Sz>= 0.5000 <S**2>= 1.5434 S= 0.8392
 Keep J ints in memory in canonical form, NReq=864464.
 Overlap will be assumed to be unity.
 Requested convergence on RMS density matrix=1.00D-08 within  32 cycles.
 Requested convergence on MAX density matrix=1.00D-06.
 Requested convergence on             energy=1.00D-06.
 No special actions if energy rises.
 Fock symm off for IB=2 I1=    1 I=   32 J=   18 Cut=1.00D-07 Err=6.26D-03
 Fock matrix is not symmetric: symmetry in diagonalization turned off.
 SCF Done:  E(UAM1) =  0.177277434302     A.U. after   18 cycles
            NFock= 17  Conv=0.51D-08     -V/T= 1.0013
 <Sx>= 0.0000 <Sy>= 0.0000 <Sz>= 0.5000 <S**2>= 1.3247 S= 0.7549
 <L.S>=  0.00000000000    
 Annihilation of the first spin contaminant:
 S**2 before annihilation     1.3247,   after     1.0482
 QCSCF skips out because SCF is already converged.
 Calling FoFJK, ICntrl=      2127 FMM=F ISym2X=1 I1Cent= 0 IOpClX= 1 NMat=1 NMatS=1 NMatT=0.
 ***** Axes restored to original set *****
 -------------------------------------------------------------------
 Center     Atomic                   Forces (Hartrees/Bohr)
 Number     Number              X              Y              Z
 -------------------------------------------------------------------
      1        6          -0.026731159    0.016784943    0.000000000
      2        6           0.010611350    0.026576102    0.000000000
      3        6           0.085490591    0.056467499   -0.000000000
      4        6           0.028725950   -0.025566756    0.000000000
      5        6          -0.002824348    0.039685407   -0.000000000
      6        6          -0.021608421   -0.036572095   -0.000000000
      7       17           0.026399024    0.014714541   -0.000000000
      8       17           0.025932040   -0.014455560   -0.000000000
      9       17          -0.025802986    0.014374214   -0.000000000
     10       17           0.002444880   -0.028800189   -0.000000000
     11        1          -0.102636920   -0.063208107   -0.000000000
 -------------------------------------------------------------------
 Cartesian Forces:  Max     0.102636920 RMS     0.032664915

 GradGradGradGradGradGradGradGradGradGradGradGradGradGradGradGradGradGrad
 Berny optimization.
 Using GEDIIS/GDIIS optimizer.
 FormGI is forming the generalized inverse of G from B-inverse, IUseBI=4.
 Internal  Forces:  Max     0.120538748 RMS     0.020445485
 Search for a local minimum.
 Step number   2 out of a maximum of   57
 All quantities printed in internal units (Hartrees-Bohrs-Radians)
 Mixed Optimization -- RFO/linear search
 Update second derivatives using D2CorX and points    1    2
 DE= -4.21D-02 DEPred=-3.66D-02 R= 1.15D+00
 TightC=F SS=  1.41D+00  RLast= 3.00D-01 DXNew= 5.0454D-01 9.0000D-01
 Trust test= 1.15D+00 RLast= 3.00D-01 DXMaxT set to 5.05D-01
 ITU=  1  0
 Use linear search instead of GDIIS.
     Eigenvalues ---   -4.17181   0.00027   0.02011   0.02011   0.02011
     Eigenvalues ---    0.02011   0.02011   0.02011   0.02011   0.02011
     Eigenvalues ---    0.16001   0.23545   0.24926   0.25000   0.25000
     Eigenvalues ---    0.25000   0.25000   0.25125   0.29028   0.29033
     Eigenvalues ---    0.29033   0.34328   0.41224   0.41682   0.44594
     Eigenvalues ---    0.44656   0.44657
 RFO step:  Lambda=-4.17184186D+00 EMin=-4.17181043D+00
 I=     1 Eig=   -4.17D+00 Dot1=  6.87D-03
 I=     1 Stepn=  6.00D-01 RXN=   6.00D-01 EDone=F
 Mixed    1 eigenvectors in step.  Raw Step.Grad=  6.87D-03.
 RFO eigenvector is Hessian eigenvector with negative curvature.
 Taking step of  6.00D-01 in eigenvector direction(s).  Step.Grad=  1.47D-02.
 Skip linear search -- no minimum in search direction.
 Maximum step size (   0.505) exceeded in Quadratic search.
    -- Step size not scaled.
 Iteration  1 RMS(Cart)=  0.11109147 RMS(Int)=  0.00590592
 Iteration  2 RMS(Cart)=  0.00742663 RMS(Int)=  0.00061284
 Iteration  3 RMS(Cart)=  0.00002244 RMS(Int)=  0.00061259
 Iteration  4 RMS(Cart)=  0.00000001 RMS(Int)=  0.00061259
 ClnCor:  largest displacement from symmetrization is 1.28D-08 for atom     7.
 Variable       Old X    -DE/DX   Delta X   Delta X   Delta X     New X
                                 (Linear)    (Quad)   (Total)
    R1        2.65724   0.00458   0.00000  -0.06727  -0.06825   2.58899
    R2        2.65410   0.00292   0.00000  -0.09773  -0.09853   2.55557
    R3        3.29146  -0.02969   0.00000  -0.16012  -0.16012   3.13134
    R4        2.63936  -0.00854   0.00000  -0.19037  -0.19050   2.44886
    R5        3.29141  -0.02884   0.00000  -0.17272  -0.17272   3.11868
    R6        2.63534  -0.00937   0.00000  -0.23614  -0.23533   2.40001
    R7        3.05731  -0.12054   0.00000   0.21319   0.21319   3.27050
    R8        2.63133  -0.01594   0.00000  -0.21513  -0.21415   2.41718
    R9        3.29103  -0.02954   0.00000  -0.16765  -0.16765   3.12338
   R10        2.63246  -0.01659   0.00000  -0.19729  -0.19705   2.43540
   R11        3.29069  -0.03017   0.00000  -0.16306  -0.16306   3.12763
    A1        2.08831  -0.00479   0.00000  -0.02901  -0.03084   2.05747
    A2        2.09842   0.00299   0.00000   0.01738   0.01829   2.11671
    A3        2.09646   0.00179   0.00000   0.01163   0.01255   2.10900
    A4        2.09449   0.00040   0.00000  -0.02106  -0.02221   2.07227
    A5        2.10003   0.00298   0.00000   0.03136   0.03194   2.13197
    A6        2.08867  -0.00338   0.00000  -0.01030  -0.00973   2.07894
    A7        2.10393   0.00496   0.00000   0.04103   0.04158   2.14552
    A8        2.09037  -0.00231   0.00000  -0.01642  -0.01670   2.07367
    A9        2.08888  -0.00265   0.00000  -0.02460  -0.02488   2.06400
   A10        2.07641  -0.01163   0.00000  -0.01746  -0.01583   2.06058
   A11        2.10253   0.00535   0.00000   0.00525   0.00444   2.10696
   A12        2.10425   0.00628   0.00000   0.01221   0.01139   2.11564
   A13        2.12352   0.02101   0.00000   0.06556   0.06704   2.19057
   A14        2.07971  -0.00996   0.00000  -0.03906  -0.03974   2.03997
   A15        2.10675   0.00781   0.00000   0.03765   0.03799   2.14474
   A16        2.09673   0.00215   0.00000   0.00141   0.00175   2.09848
    D1        0.00000  -0.00000   0.00000   0.00000   0.00000   0.00000
    D2        3.14159  -0.00000   0.00000   0.00000   0.00000   3.14159
    D3        3.14159   0.00000   0.00000  -0.00000   0.00000   3.14159
    D4        0.00000   0.00000   0.00000   0.00000   0.00000   0.00000
    D5        0.00000   0.00000   0.00000  -0.00000   0.00000   0.00000
    D6        3.14159   0.00000   0.00000  -0.00000   0.00000   3.14159
    D7        3.14159  -0.00000   0.00000   0.00000   0.00000   3.14159
    D8        0.00000  -0.00000   0.00000   0.00000   0.00000   0.00000
    D9        0.00000  -0.00000   0.00000  -0.00000   0.00000   0.00000
   D10        3.14159  -0.00000   0.00000  -0.00000   0.00000   3.14159
   D11        3.14159   0.00000   0.00000  -0.00000   0.00000   3.14159
   D12        0.00000   0.00000   0.00000  -0.00000   0.00000   0.00000
   D13        0.00000   0.00000   0.00000  -0.00000   0.00000   0.00000
   D14        3.14159  -0.00000   0.00000  -0.00000   0.00000   3.14159
   D15        3.14159   0.00000   0.00000  -0.00000   0.00000   3.14159
   D16        0.00000   0.00000   0.00000   0.00000   0.00000   0.00000
   D17        0.00000  -0.00000   0.00000   0.00000   0.00000   0.00000
   D18        3.14159   0.00000   0.00000   0.00000   0.00000   3.14159
   D19        0.00000  -0.00000   0.00000   0.00000   0.00000   0.00000
   D20        3.14159  -0.00000   0.00000   0.00000   0.00000   3.14159
         Item               Value     Threshold  Converged?
 Maximum Force            0.120539     0.000450     NO 
 RMS     Force            0.020445     0.000300     NO 
 Maximum Displacement     0.353577     0.001800     NO 
 RMS     Displacement     0.116438     0.001200     NO 
 Predicted change in Energy=-7.576038D-01
 GradGradGradGradGradGradGradGradGradGradGradGradGradGradGradGradGradGrad

                          Input orientation:                          
 ---------------------------------------------------------------------
 Center     Atomic      Atomic             Coordinates (Angstroms)
 Number     Number       Type             X           Y           Z
 ---------------------------------------------------------------------
      1          6           0       -3.178219    0.187408    0.000000
      2          6           0       -1.996849    0.881204    0.000000
      3          6           0       -0.884232    0.216831    0.000000
      4          6           0       -0.837993   -1.052357    0.000000
      5          6           0       -1.944075   -1.694792    0.000000
      6          6           0       -3.118276   -1.163609    0.000000
      7         17           0       -4.466951   -2.122946    0.000000
      8         17           0       -4.637248    0.972901    0.000000
      9         17           0        0.612691   -1.844402    0.000000
     10         17           0       -1.947087    2.530790    0.000000
     11          1           0        0.609339    1.091172    0.000000
 ---------------------------------------------------------------------
                    Distance matrix (angstroms):
                    1          2          3          4          5
     1  C    0.000000
     2  C    1.370032   0.000000
     3  C    2.294176   1.295881   0.000000
     4  C    2.648335   2.254241   1.270029   0.000000
     5  C    2.250731   2.576536   2.185765   1.279117   0.000000
     6  C    1.352347   2.332136   2.626132   2.282995   1.288760
     7  Cl   2.645480   3.889257   4.279069   3.783582   2.558948
     8  Cl   1.657034   2.641991   3.828417   4.305346   3.790748
     9  Cl   4.301076   3.773410   2.547441   1.652822   2.561140
    10  Cl   2.647097   1.650337   2.546384   3.750871   4.225583
    11  H    3.893891   2.614632   1.730672   2.586404   3.779090
                    6          7          8          9         10
     6  C    0.000000
     7  Cl   1.655068   0.000000
     8  Cl   2.621441   3.100527   0.000000
     9  Cl   3.792571   5.087273   5.958109   0.000000
    10  Cl   3.875599   5.292161   3.108694   5.069001   0.000000
    11  H    4.356507   6.008267   5.247920   2.935576   2.933909
                   11
    11  H    0.000000
 Stoichiometry    C6HCl4(2)
 Framework group  CS[SG(C6HCl4)]
 Deg. of freedom    19
 Full point group                 CS      NOp   2
 Largest Abelian subgroup         CS      NOp   2
 Largest concise Abelian subgroup C1      NOp   1
                         Standard orientation:                         
 ---------------------------------------------------------------------
 Center     Atomic      Atomic             Coordinates (Angstroms)
 Number     Number       Type             X           Y           Z
 ---------------------------------------------------------------------
      1          6           0        0.000000   -0.904814    0.000000
      2          6           0       -1.146526   -0.154835    0.000000
      3          6           0       -1.045814    1.137126    0.000000
      4          6           0        0.070610    1.742579    0.000000
      5          6           0        1.137667    1.037223    0.000000
      6          6           0        1.183639   -0.250717    0.000000
      7         17           0        2.642394   -1.032564    0.000000
      8         17           0       -0.055268   -2.560926    0.000000
      9         17           0        0.135456    3.394129    0.000000
     10         17           0       -2.646383   -0.843340    0.000000
     11          1           0       -2.492820    2.086547    0.000000
 ---------------------------------------------------------------------
 Rotational constants (GHZ):           0.9067843           0.6525871           0.3794835
 Standard basis: VSTO-6G (5D, 7F)
 There are    31 symmetry adapted cartesian basis functions of A'  symmetry.
 There are    10 symmetry adapted cartesian basis functions of A"  symmetry.
 There are    31 symmetry adapted basis functions of A'  symmetry.
 There are    10 symmetry adapted basis functions of A"  symmetry.
    41 basis functions,   246 primitive gaussians,    41 cartesian basis functions
    27 alpha electrons       26 beta electrons
       nuclear repulsion energy       302.8834290627 Hartrees.



 Warning!  Cl atom    7 may be hypervalent but has no d functions.
 Warning!  Cl atom    8 may be hypervalent but has no d functions.
 Warning!  Cl atom    9 may be hypervalent but has no d functions.
 Warning!  Cl atom   10 may be hypervalent but has no d functions.



 Integral buffers will be    131072 words long.
 Regular integral format.
 Two-electron integral symmetry is turned off.
 Do NDO integrals.
 One-electron integrals computed using PRISM.
 NBasis=    41 RedAO= T EigKep=  1.00D+00  NBF=    31    10
 NBsUse=    41 1.00D-06 EigRej= -1.00D+00 NBFU=    31    10
 Initial guess from the checkpoint file:  "geometry_chks/123_5ClBzNeutralRadical.chk"
 B after Tr=     0.000000   -0.000000   -0.000000
         Rot=    0.999996    0.000000   -0.000000    0.002927 Ang=   0.34 deg.
 Initial guess orbital symmetries:
 Alpha Orbitals:
       Occupied  (A') (A') (A') (A') (A') (A') (A') (A') (A') (A')
                 (A') (A') (A") (A') (A') (A") (A") (A') (A") (A')
                 (A') (A') (A') (A") (A') (A") (A")
       Virtual   (A") (A") (A') (A') (A') (A') (A') (A") (A') (A')
                 (A') (A') (A') (A')
 Beta  Orbitals:
       Occupied  (A') (A') (A') (A') (A') (A') (A') (A') (A') (A')
                 (A') (A') (A") (A') (A') (A") (A") (A") (A') (A')
                 (A') (A') (A') (A") (A") (A")
       Virtual   (A') (A") (A") (A') (A') (A') (A') (A') (A") (A')
                 (A') (A') (A') (A') (A')
 Initial guess <Sx>= 0.0000 <Sy>= 0.0000 <Sz>= 0.5000 <S**2>= 1.3247 S= 0.7549
 Keep J ints in memory in canonical form, NReq=864464.
 Overlap will be assumed to be unity.
 Requested convergence on RMS density matrix=1.00D-08 within  32 cycles.
 Requested convergence on MAX density matrix=1.00D-06.
 Requested convergence on             energy=1.00D-06.
 No special actions if energy rises.
 Fock symm off for IB=2 I1=    1 I=   32 J=   19 Cut=1.00D-07 Err=7.08D-03
 Fock matrix is not symmetric: symmetry in diagonalization turned off.
 SCF Done:  E(UAM1) =  0.275626075018     A.U. after   23 cycles
            NFock= 22  Conv=0.64D-08     -V/T= 1.0021
 <Sx>= 0.0000 <Sy>= 0.0000 <Sz>= 0.5000 <S**2>= 0.9753 S= 0.6069
 <L.S>=  0.00000000000    
 Annihilation of the first spin contaminant:
 S**2 before annihilation     0.9753,   after     0.7938
 QCSCF skips out because SCF is already converged.
 Calling FoFJK, ICntrl=      2127 FMM=F ISym2X=1 I1Cent= 0 IOpClX= 1 NMat=1 NMatS=1 NMatT=0.
 ***** Axes restored to original set *****
 -------------------------------------------------------------------
 Center     Atomic                   Forces (Hartrees/Bohr)
 Number     Number              X              Y              Z
 -------------------------------------------------------------------
      1        6          -0.062157768    0.056846157    0.000000000
      2        6          -0.058469630    0.103658921    0.000000000
      3        6           0.211046222    0.182109470    0.000000000
      4        6           0.159659752   -0.120221300   -0.000000000
      5        6          -0.017911518   -0.136840695    0.000000000
      6        6          -0.120939300   -0.041176287    0.000000000
      7       17          -0.029368427   -0.019072572   -0.000000000
      8       17          -0.024459668    0.014336253   -0.000000000
      9       17           0.041140966   -0.024011401   -0.000000000
     10       17          -0.002147369    0.040392002   -0.000000000
     11        1          -0.096393261   -0.056020547   -0.000000000
 -------------------------------------------------------------------
 Cartesian Forces:  Max     0.211046222 RMS     0.076404226

 GradGradGradGradGradGradGradGradGradGradGradGradGradGradGradGradGradGrad
 Berny optimization.
 Using GEDIIS/GDIIS optimizer.
 FormGI is forming the generalized inverse of G from B-inverse, IUseBI=4.
 Internal  Forces:  Max     0.213336164 RMS     0.062403319
 Search for a local minimum.
 Step number   3 out of a maximum of   57
 All quantities printed in internal units (Hartrees-Bohrs-Radians)
 Mixed Optimization -- RFO/linear search
 Update second derivatives using D2CorX and points    1    3    2
 ITU=  0  1  0
 Use linear search instead of GDIIS.
     Eigenvalues ---    0.00025   0.02011   0.02011   0.02011   0.02011
     Eigenvalues ---    0.02011   0.02011   0.02011   0.02011   0.16001
     Eigenvalues ---    0.22339   0.24067   0.24995   0.25000   0.25000
     Eigenvalues ---    0.25000   0.25020   0.27720   0.29029   0.29033
     Eigenvalues ---    0.29117   0.40753   0.40837   0.44538   0.44649
     Eigenvalues ---    0.44657   0.96394
 RFO step:  Lambda=-1.30319127D-01 EMin= 2.45275296D-04
 Quartic linear search produced a step of -0.96101.
 Maximum step size (   0.505) exceeded in Quadratic search.
    -- Step size scaled by   0.512
 Iteration  1 RMS(Cart)=  0.10068766 RMS(Int)=  0.07148838
 Iteration  2 RMS(Cart)=  0.02654487 RMS(Int)=  0.04201647
 Iteration  3 RMS(Cart)=  0.02780514 RMS(Int)=  0.01284418
 Iteration  4 RMS(Cart)=  0.01223824 RMS(Int)=  0.00015606
 Iteration  5 RMS(Cart)=  0.00000193 RMS(Int)=  0.00015606
 Iteration  6 RMS(Cart)=  0.00000000 RMS(Int)=  0.00015606
 ClnCor:  largest displacement from symmetrization is 1.43D-08 for atom     9.
 Variable       Old X    -DE/DX   Delta X   Delta X   Delta X     New X
                                 (Linear)    (Quad)   (Total)
    R1        2.58899   0.10442   0.06559   0.02389   0.08963   2.67861
    R2        2.55557   0.12890   0.09469   0.02523   0.11982   2.67538
    R3        3.13134   0.02833   0.15388  -0.06184   0.09204   3.22338
    R4        2.44886   0.17102   0.18307   0.01354   0.19685   2.64571
    R5        3.11868   0.04031   0.16599  -0.05781   0.10818   3.22686
    R6        2.40001   0.21334   0.22616   0.01823   0.24450   2.64450
    R7        3.27050  -0.11149  -0.20488  -0.48196  -0.68684   2.58366
    R8        2.41718   0.17921   0.20580   0.00156   0.20721   2.62439
    R9        3.12338   0.04762   0.16111  -0.05861   0.10251   3.22589
   R10        2.43540   0.16486   0.18937  -0.00130   0.18782   2.62323
   R11        3.12763   0.03499   0.15670  -0.06199   0.09471   3.22234
    A1        2.05747   0.01966   0.02964  -0.00661   0.02310   2.08057
    A2        2.11671  -0.01144  -0.01758   0.00456  -0.01306   2.10365
    A3        2.10900  -0.00822  -0.01206   0.00206  -0.01004   2.09897
    A4        2.07227   0.00725   0.02135   0.00354   0.02531   2.09759
    A5        2.13197  -0.00887  -0.03069   0.00525  -0.02566   2.10630
    A6        2.07894   0.00162   0.00935  -0.00878   0.00035   2.07929
    A7        2.14552   0.00052  -0.03996   0.01207  -0.02751   2.11800
    A8        2.07367  -0.00084   0.01605  -0.00556   0.01030   2.08397
    A9        2.06400   0.00032   0.02391  -0.00651   0.01721   2.08121
   A10        2.06058  -0.03896   0.01521  -0.03786  -0.02266   2.03792
   A11        2.10696   0.02161  -0.00426   0.01812   0.01387   2.12083
   A12        2.11564   0.01736  -0.01095   0.01973   0.00879   2.12443
   A13        2.19057   0.00509  -0.06443   0.05171  -0.01325   2.17732
   A14        2.03997   0.00645   0.03819  -0.02285   0.01501   2.05497
   A15        2.14474  -0.00554  -0.03651   0.01802  -0.01832   2.12642
   A16        2.09848  -0.00091  -0.00168   0.00483   0.00331   2.10180
    D1        0.00000  -0.00000   0.00000  -0.00000   0.00000   0.00000
    D2        3.14159  -0.00000   0.00000  -0.00000   0.00000   3.14159
    D3        3.14159   0.00000   0.00000   0.00000   0.00000   3.14159
    D4        0.00000   0.00000   0.00000   0.00000   0.00000   0.00000
    D5        0.00000   0.00000   0.00000   0.00000   0.00000   0.00000
    D6        3.14159   0.00000   0.00000   0.00000   0.00000   3.14159
    D7        3.14159  -0.00000   0.00000  -0.00000   0.00000   3.14159
    D8        0.00000  -0.00000   0.00000  -0.00000   0.00000   0.00000
    D9        0.00000  -0.00000   0.00000  -0.00000   0.00000   0.00000
   D10        3.14159  -0.00000   0.00000  -0.00000   0.00000   3.14159
   D11        3.14159   0.00000   0.00000   0.00000   0.00000   3.14159
   D12        0.00000   0.00000   0.00000   0.00000   0.00000   0.00000
   D13        0.00000   0.00000   0.00000   0.00000   0.00000   0.00000
   D14        3.14159  -0.00000   0.00000  -0.00000   0.00000   3.14159
   D15        3.14159   0.00000   0.00000   0.00000   0.00000   3.14159
   D16        0.00000   0.00000   0.00000   0.00000   0.00000   0.00000
   D17        0.00000  -0.00000   0.00000  -0.00000   0.00000   0.00000
   D18        3.14159   0.00000   0.00000   0.00000   0.00000   3.14159
   D19        0.00000  -0.00000   0.00000  -0.00000   0.00000   0.00000
   D20        3.14159  -0.00000   0.00000  -0.00000   0.00000   3.14159
         Item               Value     Threshold  Converged?
 Maximum Force            0.213336     0.000450     NO 
 RMS     Force            0.062403     0.000300     NO 
 Maximum Displacement     0.391561     0.001800     NO 
 RMS     Displacement     0.123195     0.001200     NO 
 Predicted change in Energy=-7.640728D-02
 GradGradGradGradGradGradGradGradGradGradGradGradGradGradGradGradGradGrad

                          Input orientation:                          
 ---------------------------------------------------------------------
 Center     Atomic      Atomic             Coordinates (Angstroms)
 Number     Number       Type             X           Y           Z
 ---------------------------------------------------------------------
      1          6           0       -3.201640    0.227114    0.000000
      2          6           0       -1.986766    0.957374    0.000000
      3          6           0       -0.759976    0.282744    0.000000
      4          6           0       -0.697821   -1.115286    0.000000
      5          6           0       -1.908805   -1.795136    0.000000
      6          6           0       -3.157114   -1.187938    0.000000
      7         17           0       -4.576793   -2.132490    0.000000
      8         17           0       -4.701248    1.039967    0.000000
      9         17           0        0.795660   -1.942081    0.000000
     10         17           0       -1.996533    2.664927    0.000000
     11          1           0        0.402135    1.003003    0.000000
 ---------------------------------------------------------------------
                    Distance matrix (angstroms):
                    1          2          3          4          5
     1  C    0.000000
     2  C    1.417461   0.000000
     3  C    2.442298   1.400050   0.000000
     4  C    2.840976   2.440758   1.399411   0.000000
     5  C    2.400191   2.753614   2.374320   1.388769   0.000000
     6  C    1.415752   2.443783   2.812326   2.460366   1.388151
     7  Cl   2.731077   4.031811   4.516797   4.010129   2.689231
     8  Cl   1.705742   2.715738   4.013354   4.546707   3.979390
     9  Cl   4.547946   4.018549   2.714747   1.707066   2.708454
    10  Cl   2.719414   1.707581   2.684002   3.997081   4.460925
    11  H    3.686352   2.389336   1.367213   2.386849   3.629053
                    6          7          8          9         10
     6  C    0.000000
     7  Cl   1.705189   0.000000
     8  Cl   2.710703   3.174898   0.000000
     9  Cl   4.024071   5.375826   6.253687   0.000000
    10  Cl   4.023868   5.447289   3.155310   5.387101   0.000000
    11  H    4.179530   5.883964   5.103516   2.971259   2.918149
                   11
    11  H    0.000000
 Stoichiometry    C6HCl4(2)
 Framework group  CS[SG(C6HCl4)]
 Deg. of freedom    19
 Full point group                 CS      NOp   2
 Largest Abelian subgroup         CS      NOp   2
 Largest concise Abelian subgroup C1      NOp   1
                         Standard orientation:                         
 ---------------------------------------------------------------------
 Center     Atomic      Atomic             Coordinates (Angstroms)
 Number     Number       Type             X           Y           Z
 ---------------------------------------------------------------------
      1          6           0        0.000000   -0.942307    0.000000
      2          6           0       -1.202177   -0.191329    0.000000
      3          6           0       -1.157971    1.208023    0.000000
      4          6           0        0.059493    1.898046    0.000000
      5          6           0        1.214988    1.127649    0.000000
      6          6           0        1.240634   -0.260265    0.000000
      7         17           0        2.726723   -1.096451    0.000000
      8         17           0       -0.043519   -2.647494    0.000000
      9         17           0        0.118216    3.604102    0.000000
     10         17           0       -2.719215   -0.975182    0.000000
     11          1           0       -2.327285    1.916528    0.000000
 ---------------------------------------------------------------------
 Rotational constants (GHZ):           0.8505461           0.5834291           0.3460544
 Standard basis: VSTO-6G (5D, 7F)
 There are    31 symmetry adapted cartesian basis functions of A'  symmetry.
 There are    10 symmetry adapted cartesian basis functions of A"  symmetry.
 There are    31 symmetry adapted basis functions of A'  symmetry.
 There are    10 symmetry adapted basis functions of A"  symmetry.
    41 basis functions,   246 primitive gaussians,    41 cartesian basis functions
    27 alpha electrons       26 beta electrons
       nuclear repulsion energy       294.5702528024 Hartrees.
 Integral buffers will be    131072 words long.
 Regular integral format.
 Two-electron integral symmetry is turned off.
 Do NDO integrals.
 One-electron integrals computed using PRISM.
 NBasis=    41 RedAO= T EigKep=  1.00D+00  NBF=    31    10
 NBsUse=    41 1.00D-06 EigRej= -1.00D+00 NBFU=    31    10
 Lowest energy guess from the checkpoint file:  "geometry_chks/123_5ClBzNeutralRadical.chk"
 B after Tr=    -0.000000    0.000000    0.000000
         Rot=    0.999998   -0.000000   -0.000000   -0.001824 Ang=  -0.21 deg.
 B after Tr=    -0.000000    0.000000   -0.000000
         Rot=    0.999989   -0.000000   -0.000000   -0.004748 Ang=  -0.54 deg.
 Initial guess orbital symmetries:
 Alpha Orbitals:
       Occupied  (A") (A") (A') (A') (A") (A') (A') (A') (A') (A')
                 (A') (A') (A') (A') (A") (A") (A") (A") (A") (A")
                 (A") (A") (A") (A") (A") (A") (A")
       Virtual   (A") (A") (A') (A') (A") (A') (A') (A') (A') (A')
                 (A') (A') (A') (A')
 Beta  Orbitals:
       Occupied  (A") (A") (A') (A") (A') (A') (A') (A') (A') (A')
                 (A') (A') (A') (A') (A') (A") (A") (A") (A') (A")
                 (A") (A") (A") (A") (A") (A")
       Virtual   (A") (A") (A') (A") (A') (A') (A') (A') (A') (A')
                 (A') (A') (A') (A') (A')
 Initial guess <Sx>= 0.0000 <Sy>= 0.0000 <Sz>= 0.5000 <S**2>= 1.3079 S= 0.7482
 Keep J ints in memory in canonical form, NReq=864464.
 Overlap will be assumed to be unity.
 Requested convergence on RMS density matrix=1.00D-08 within  32 cycles.
 Requested convergence on MAX density matrix=1.00D-06.
 Requested convergence on             energy=1.00D-06.
 No special actions if energy rises.
 An orbital has undefined symmetry, so N**3 symmetry is turned off.
 SCF Done:  E(UAM1) =  0.115076116167     A.U. after   16 cycles
            NFock= 15  Conv=0.79D-08     -V/T= 1.0009
 <Sx>= 0.0000 <Sy>= 0.0000 <Sz>= 0.5000 <S**2>= 1.3506 S= 0.7652
 <L.S>=  0.00000000000    
 Annihilation of the first spin contaminant:
 S**2 before annihilation     1.3506,   after     1.0735
 QCSCF skips out because SCF is already converged.
 Calling FoFJK, ICntrl=      2127 FMM=F ISym2X=1 I1Cent= 0 IOpClX= 1 NMat=1 NMatS=1 NMatT=0.
 ***** Axes restored to original set *****
 -------------------------------------------------------------------
 Center     Atomic                   Forces (Hartrees/Bohr)
 Number     Number              X              Y              Z
 -------------------------------------------------------------------
      1        6          -0.006745865    0.006805219    0.000000000
      2        6           0.002050310    0.003318474    0.000000000
      3        6           0.079831333    0.052976953    0.000000000
      4        6           0.007826648   -0.015218788    0.000000000
      5        6          -0.001548523    0.026047597    0.000000000
      6        6          -0.005279844   -0.016950453   -0.000000000
      7       17           0.011420718    0.007110329   -0.000000000
      8       17           0.010990418   -0.006290907   -0.000000000
      9       17          -0.012657481    0.007205763   -0.000000000
     10       17           0.000615895   -0.011449045   -0.000000000
     11        1          -0.086503609   -0.053555142   -0.000000000
 -------------------------------------------------------------------
 Cartesian Forces:  Max     0.086503609 RMS     0.025590924

 GradGradGradGradGradGradGradGradGradGradGradGradGradGradGradGradGradGrad
 Berny optimization.
 Using GEDIIS/GDIIS optimizer.
 FormGI is forming the generalized inverse of G from B-inverse, IUseBI=4.
 Internal  Forces:  Max     0.101739988 RMS     0.015795015
 Search for a local minimum.
 Step number   4 out of a maximum of   57
 All quantities printed in internal units (Hartrees-Bohrs-Radians)
 Mixed Optimization -- RFO/linear search
 Update second derivatives using D2CorX and points    2    4
 DE= -6.22D-02 DEPred=-7.64D-02 R= 8.14D-01
 TightC=F SS=  1.41D+00  RLast= 5.00D-01 DXNew= 8.4853D-01 1.4997D+00
 Trust test= 8.14D-01 RLast= 5.00D-01 DXMaxT set to 8.49D-01
 ITU=  1  0  1  0
 Use linear search instead of GDIIS.
     Eigenvalues ---    0.00496   0.02011   0.02011   0.02011   0.02011
     Eigenvalues ---    0.02011   0.02011   0.02011   0.02011   0.12117
     Eigenvalues ---    0.16001   0.23627   0.24994   0.25000   0.25000
     Eigenvalues ---    0.25002   0.25045   0.26101   0.29032   0.29045
     Eigenvalues ---    0.29059   0.40434   0.41349   0.44379   0.44656
     Eigenvalues ---    0.44730   0.72125
 RFO step:  Lambda=-2.01088191D-02 EMin= 4.96259099D-03
 Quartic linear search produced a step of  1.07786.
 Iteration  1 RMS(Cart)=  0.06077918 RMS(Int)=  0.14073621
 Iteration  2 RMS(Cart)=  0.02762391 RMS(Int)=  0.11156079
 Iteration  3 RMS(Cart)=  0.02779654 RMS(Int)=  0.08238793
 Iteration  4 RMS(Cart)=  0.02779554 RMS(Int)=  0.05321511
 Iteration  5 RMS(Cart)=  0.02779542 RMS(Int)=  0.02404268
 Iteration  6 RMS(Cart)=  0.02290629 RMS(Int)=  0.00021577
 Iteration  7 RMS(Cart)=  0.00000786 RMS(Int)=  0.00021560
 Iteration  8 RMS(Cart)=  0.00000000 RMS(Int)=  0.00021560
 ClnCor:  largest displacement from symmetrization is 1.54D-08 for atom     7.
 Variable       Old X    -DE/DX   Delta X   Delta X   Delta X     New X
                                 (Linear)    (Quad)   (Total)
    R1        2.67861  -0.00326   0.02304  -0.03512  -0.01240   2.66621
    R2        2.67538  -0.00308   0.02294  -0.01527   0.00740   2.68279
    R3        3.22338  -0.01266  -0.07338   0.19724   0.12386   3.34724
    R4        2.64571  -0.00604   0.00685   0.07918   0.08596   2.73168
    R5        3.22686  -0.01145  -0.06957   0.19893   0.12936   3.35622
    R6        2.64450  -0.00509   0.00988   0.09750   0.10764   2.75215
    R7        2.58366  -0.10174  -0.51053  -0.65332  -1.16385   1.41981
    R8        2.62439  -0.01270  -0.00748   0.10105   0.09388   2.71828
    R9        3.22589  -0.01456  -0.07022   0.17477   0.10455   3.33044
   R10        2.62323  -0.01344  -0.00995   0.09738   0.08748   2.71071
   R11        3.22234  -0.01345  -0.07367   0.19202   0.11835   3.34069
    A1        2.08057  -0.00210  -0.00835   0.02931   0.02033   2.10090
    A2        2.10365   0.00152   0.00564  -0.01573  -0.00977   2.09388
    A3        2.09897   0.00058   0.00270  -0.01358  -0.01056   2.08841
    A4        2.09759   0.00200   0.00334   0.02758   0.03051   2.12810
    A5        2.10630  -0.00011   0.00677  -0.03731  -0.03034   2.07597
    A6        2.07929  -0.00189  -0.01011   0.00973  -0.00017   2.07912
    A7        2.11800  -0.00089   0.01517  -0.06949  -0.05413   2.06387
    A8        2.08397   0.00038  -0.00690   0.03158   0.02458   2.10856
    A9        2.08121   0.00051  -0.00827   0.03791   0.02955   2.11075
   A10        2.03792  -0.00561  -0.04148   0.07241   0.03151   2.06944
   A11        2.12083   0.00253   0.01973  -0.03475  -0.01532   2.10552
   A12        2.12443   0.00309   0.02175  -0.03766  -0.01620   2.10823
   A13        2.17732   0.01235   0.05798  -0.10855  -0.05004   2.12728
   A14        2.05497  -0.00574  -0.02666   0.04873   0.02181   2.07679
   A15        2.12642   0.00352   0.02120  -0.04811  -0.02679   2.09963
   A16        2.10180   0.00221   0.00546  -0.00062   0.00497   2.10677
    D1        0.00000  -0.00000   0.00000   0.00000   0.00000   0.00000
    D2        3.14159  -0.00000   0.00000   0.00000   0.00000   3.14159
    D3        3.14159   0.00000   0.00000   0.00000   0.00000   3.14159
    D4        0.00000   0.00000   0.00000   0.00000   0.00000   0.00000
    D5        0.00000   0.00000   0.00000   0.00000   0.00000   0.00000
    D6        3.14159   0.00000   0.00000   0.00000   0.00000   3.14159
    D7        3.14159  -0.00000   0.00000   0.00000   0.00000   3.14159
    D8        0.00000   0.00000   0.00000   0.00000   0.00000   0.00000
    D9        0.00000  -0.00000   0.00000  -0.00000   0.00000   0.00000
   D10        3.14159  -0.00000   0.00000  -0.00000   0.00000   3.14159
   D11        3.14159   0.00000   0.00000  -0.00000   0.00000   3.14159
   D12        0.00000  -0.00000   0.00000  -0.00000   0.00000   0.00000
   D13        0.00000   0.00000   0.00000   0.00000   0.00000   0.00000
   D14        3.14159  -0.00000   0.00000  -0.00000   0.00000   3.14159
   D15        3.14159   0.00000   0.00000   0.00000   0.00000   3.14159
   D16        0.00000   0.00000   0.00000   0.00000   0.00000   0.00000
   D17        0.00000   0.00000   0.00000   0.00000   0.00000   0.00000
   D18        3.14159   0.00000   0.00000   0.00000   0.00000   3.14159
   D19        0.00000  -0.00000   0.00000  -0.00000   0.00000   0.00000
   D20        3.14159  -0.00000   0.00000  -0.00000   0.00000   3.14159
         Item               Value     Threshold  Converged?
 Maximum Force            0.101740     0.000450     NO 
 RMS     Force            0.015795     0.000300     NO 
 Maximum Displacement     0.802909     0.001800     NO 
 RMS     Displacement     0.155062     0.001200     NO 
 Predicted change in Energy=-1.009197D-01
 GradGradGradGradGradGradGradGradGradGradGradGradGradGradGradGradGradGrad

                          Input orientation:                          
 ---------------------------------------------------------------------
 Center     Atomic      Atomic             Coordinates (Angstroms)
 Number     Number       Type             X           Y           Z
 ---------------------------------------------------------------------
      1          6           0       -3.150518    0.248283    0.000000
      2          6           0       -1.948903    0.987716    0.000000
      3          6           0       -0.654816    0.343569    0.000000
      4          6           0       -0.609351   -1.112095    0.000000
      5          6           0       -1.850555   -1.839109    0.000000
      6          6           0       -3.119940   -1.171057    0.000000
      7         17           0       -4.626702   -2.095636    0.000000
      8         17           0       -4.708291    1.091368    0.000000
      9         17           0        0.934331   -1.962433    0.000000
     10         17           0       -2.031410    2.761834    0.000000
     11          1           0       -0.022747    0.749759    0.000000
 ---------------------------------------------------------------------
                    Distance matrix (angstroms):
                    1          2          3          4          5
     1  C    0.000000
     2  C    1.410900   0.000000
     3  C    2.497520   1.445541   0.000000
     4  C    2.882388   2.490704   1.456374   0.000000
     5  C    2.459088   2.828536   2.488750   1.438450   0.000000
     6  C    1.419670   2.455938   2.893256   2.511282   1.434445
     7  Cl   2.770032   4.083830   4.661073   4.135996   2.787974
     8  Cl   1.771285   2.761334   4.121876   4.653661   4.093208
     9  Cl   4.644702   4.125096   2.800542   1.762393   2.787616
    10  Cl   2.751425   1.776035   2.782628   4.126691   4.604496
    11  H    3.167717   1.940799   0.751333   1.952076   3.169088
                    6          7          8          9         10
     6  C    0.000000
     7  Cl   1.767817   0.000000
     8  Cl   2.764313   3.188048   0.000000
     9  Cl   4.130786   5.562628   6.415987   0.000000
    10  Cl   4.080751   5.507318   3.155336   5.578021   0.000000
    11  H    3.644467   5.412271   4.697981   2.876105   2.843093
                   11
    11  H    0.000000
 Stoichiometry    C6HCl4(2)
 Framework group  CS[SG(C6HCl4)]
 Deg. of freedom    19
 Full point group                 CS      NOp   2
 Largest Abelian subgroup         CS      NOp   2
 Largest concise Abelian subgroup C1      NOp   1
                         Standard orientation:                         
 ---------------------------------------------------------------------
 Center     Atomic      Atomic             Coordinates (Angstroms)
[...]
    R4        2.65849   0.00005   0.00009  -0.00003   0.00006   2.65855
    R5        3.19996  -0.00002   0.00007  -0.00023  -0.00016   3.19980
    R6        2.66863  -0.00007   0.00009  -0.00031  -0.00022   2.66841
    R7        2.08026  -0.00015  -0.00070   0.00024  -0.00046   2.07980
    R8        2.59722   0.00021   0.00011   0.00031   0.00042   2.59763
    R9        3.17408   0.00014   0.00005   0.00034   0.00040   3.17448
   R10        2.59615   0.00017   0.00001   0.00027   0.00028   2.59643
   R11        3.17114   0.00022   0.00014   0.00056   0.00069   3.17184
    A1        2.07356   0.00001   0.00003   0.00000   0.00004   2.07359
    A2        2.11295  -0.00000  -0.00001   0.00002   0.00001   2.11295
    A3        2.09668  -0.00001  -0.00002  -0.00002  -0.00004   2.09664
    A4        2.13182  -0.00001  -0.00009  -0.00003  -0.00012   2.13170
    A5        2.09432  -0.00000  -0.00001   0.00004   0.00003   2.09435
    A6        2.05704   0.00001   0.00010  -0.00000   0.00009   2.05714
    A7        2.08471   0.00006   0.00004   0.00014   0.00018   2.08489
    A8        2.10051  -0.00001   0.00002  -0.00000   0.00002   2.10053
    A9        2.09796  -0.00004  -0.00006  -0.00014  -0.00020   2.09777
   A10        2.01252  -0.00001   0.00007  -0.00000   0.00006   2.01258
   A11        2.12925  -0.00001  -0.00004  -0.00006  -0.00010   2.12914
   A12        2.14142   0.00002  -0.00002   0.00006   0.00004   2.14146
   A13        2.25085  -0.00008  -0.00019  -0.00017  -0.00036   2.25049
   A14        2.01291   0.00003   0.00014   0.00006   0.00020   2.01311
   A15        2.14553  -0.00006  -0.00012  -0.00018  -0.00030   2.14523
   A16        2.12474   0.00003  -0.00002   0.00012   0.00010   2.12484
    D1       -0.00000  -0.00000   0.00000  -0.00000   0.00000   0.00000
    D2        3.14159  -0.00000   0.00000  -0.00000   0.00000   3.14159
    D3        3.14159   0.00000   0.00000   0.00000   0.00000   3.14159
    D4        0.00000  -0.00000   0.00000  -0.00000   0.00000   0.00000
    D5        0.00000   0.00000   0.00000   0.00000   0.00000   0.00000
    D6        3.14159   0.00000   0.00000   0.00000   0.00000   3.14159
    D7        3.14159  -0.00000   0.00000  -0.00000   0.00000   3.14159
    D8        0.00000  -0.00000   0.00000  -0.00000  -0.00000   0.00000
    D9        0.00000  -0.00000   0.00000  -0.00000   0.00000   0.00000
   D10        3.14159  -0.00000   0.00000  -0.00000   0.00000   3.14159
   D11        3.14159   0.00000   0.00000   0.00000   0.00000   3.14159
   D12       -0.00000   0.00000   0.00000   0.00000   0.00000   0.00000
   D13       -0.00000   0.00000   0.00000   0.00000   0.00000   0.00000
   D14        3.14159  -0.00000   0.00000  -0.00000   0.00000   3.14159
   D15        3.14159   0.00000   0.00000   0.00000   0.00000   3.14159
   D16       -0.00000  -0.00000   0.00000  -0.00000   0.00000   0.00000
   D17        0.00000  -0.00000   0.00000  -0.00000   0.00000   0.00000
   D18        3.14159   0.00000   0.00000   0.00000   0.00000   3.14159
   D19       -0.00000  -0.00000   0.00000  -0.00000   0.00000   0.00000
   D20        3.14159  -0.00000   0.00000  -0.00000   0.00000   3.14159
         Item               Value     Threshold  Converged?
 Maximum Force            0.000218     0.000450     YES
 RMS     Force            0.000067     0.000300     YES
 Maximum Displacement     0.001027     0.001800     YES
 RMS     Displacement     0.000263     0.001200     YES
 Predicted change in Energy=-2.773025D-07
 Optimization completed.
    -- Stationary point found.
                           ----------------------------
                           !   Optimized Parameters   !
                           ! (Angstroms and Degrees)  !
 --------------------------                            --------------------------
 ! Name  Definition              Value          Derivative Info.                !
 --------------------------------------------------------------------------------
 ! R1    R(1,2)                  1.4157         -DE/DX =    0.0001              !
 ! R2    R(1,6)                  1.4214         -DE/DX =    0.0                 !
 ! R3    R(1,8)                  1.6835         -DE/DX =    0.0001              !
 ! R4    R(2,3)                  1.4068         -DE/DX =    0.0                 !
 ! R5    R(2,10)                 1.6933         -DE/DX =    0.0                 !
 ! R6    R(3,4)                  1.4122         -DE/DX =   -0.0001              !
 ! R7    R(3,11)                 1.1008         -DE/DX =   -0.0002              !
 ! R8    R(4,5)                  1.3744         -DE/DX =    0.0002              !
 ! R9    R(4,9)                  1.6797         -DE/DX =    0.0001              !
 ! R10   R(5,6)                  1.3738         -DE/DX =    0.0002              !
 ! R11   R(6,7)                  1.6781         -DE/DX =    0.0002              !
 ! A1    A(2,1,6)              118.806          -DE/DX =    0.0                 !
 ! A2    A(2,1,8)              121.0629         -DE/DX =    0.0                 !
 ! A3    A(6,1,8)              120.1311         -DE/DX =    0.0                 !
 ! A4    A(1,2,3)              122.1445         -DE/DX =    0.0                 !
 ! A5    A(1,2,10)             119.9956         -DE/DX =    0.0                 !
 ! A6    A(3,2,10)             117.8599         -DE/DX =    0.0                 !
 ! A7    A(2,3,4)              119.4451         -DE/DX =    0.0001              !
 ! A8    A(2,3,11)             120.3505         -DE/DX =    0.0                 !
 ! A9    A(4,3,11)             120.2044         -DE/DX =    0.0                 !
 ! A10   A(3,4,5)              115.3089         -DE/DX =    0.0                 !
 ! A11   A(3,4,9)              121.9968         -DE/DX =    0.0                 !
 ! A12   A(5,4,9)              122.6943         -DE/DX =    0.0                 !
 ! A13   A(4,5,6)              128.9641         -DE/DX =   -0.0001              !
 ! A14   A(1,6,5)              115.3313         -DE/DX =    0.0                 !
 ! A15   A(1,6,7)              122.9298         -DE/DX =   -0.0001              !
 ! A16   A(5,6,7)              121.7389         -DE/DX =    0.0                 !
 ! D1    D(6,1,2,3)              0.0            -DE/DX =    0.0                 !
 ! D2    D(6,1,2,10)           180.0            -DE/DX =    0.0                 !
 ! D3    D(8,1,2,3)            180.0            -DE/DX =    0.0                 !
 ! D4    D(8,1,2,10)             0.0            -DE/DX =    0.0                 !
 ! D5    D(2,1,6,5)              0.0            -DE/DX =    0.0                 !
 ! D6    D(2,1,6,7)            180.0            -DE/DX =    0.0                 !
 ! D7    D(8,1,6,5)            180.0            -DE/DX =    0.0                 !
 ! D8    D(8,1,6,7)              0.0            -DE/DX =    0.0                 !
 ! D9    D(1,2,3,4)              0.0            -DE/DX =    0.0                 !
 ! D10   D(1,2,3,11)           180.0            -DE/DX =    0.0                 !
 ! D11   D(10,2,3,4)           180.0            -DE/DX =    0.0                 !
 ! D12   D(10,2,3,11)            0.0            -DE/DX =    0.0                 !
 ! D13   D(2,3,4,5)              0.0            -DE/DX =    0.0                 !
 ! D14   D(2,3,4,9)            180.0            -DE/DX =    0.0                 !
 ! D15   D(11,3,4,5)           180.0            -DE/DX =    0.0                 !
 ! D16   D(11,3,4,9)             0.0            -DE/DX =    0.0                 !
 ! D17   D(3,4,5,6)              0.0            -DE/DX =    0.0                 !
 ! D18   D(9,4,5,6)            180.0            -DE/DX =    0.0                 !
 ! D19   D(4,5,6,1)              0.0            -DE/DX =    0.0                 !
 ! D20   D(4,5,6,7)            180.0            -DE/DX =    0.0                 !
 --------------------------------------------------------------------------------
 GradGradGradGradGradGradGradGradGradGradGradGradGradGradGradGradGradGrad

                          Input orientation:                          
 ---------------------------------------------------------------------
 Center     Atomic      Atomic             Coordinates (Angstroms)
 Number     Number       Type             X           Y           Z
 ---------------------------------------------------------------------
      1          6           0       -3.190676    0.239865    0.000000
      2          6           0       -1.969883    0.956728    0.000000
      3          6           0       -0.721274    0.308582   -0.000000
      4          6           0       -0.671704   -1.102728   -0.000000
      5          6           0       -1.892784   -1.733526   -0.000000
      6          6           0       -3.150593   -1.180982    0.000000
      7         17           0       -4.532798   -2.132567    0.000000
      8         17           0       -4.669913    1.043533    0.000000
      9         17           0        0.783135   -1.942179   -0.000000
     10         17           0       -1.982483    2.650029    0.000000
     11          1           0        0.210074    0.895444   -0.000000
 ---------------------------------------------------------------------
                    Distance matrix (angstroms):
                    1          2          3          4          5
     1  C    0.000000
     2  C    1.415707   0.000000
     3  C    2.470358   1.406812   0.000000
     4  C    2.854430   2.434467   1.412180   0.000000
     5  C    2.361948   2.691359   2.354281   1.374388   0.000000
     6  C    1.421412   2.442106   2.849630   2.480124   1.373823
     7  Cl   2.725753   4.014010   4.526249   3.996075   2.670002
     8  Cl   1.683456   2.701424   4.016454   4.537853   3.927404
     9  Cl   4.533485   3.997846   2.707243   1.679653   2.684041
    10  Cl   2.696038   1.693348   2.659516   3.975088   4.384473
    11  H    3.463362   2.180818   1.100825   2.184084   3.366525
                    6          7          8          9         10
     6  C    0.000000
     7  Cl   1.678096   0.000000
     8  Cl   2.693845   3.179059   0.000000
     9  Cl   4.006699   5.319341   6.216929   0.000000
    10  Cl   4.005138   5.420087   3.130992   5.360692   0.000000
    11  H    3.950396   5.627050   4.882233   2.894910   2.808180
                   11
    11  H    0.000000
 Stoichiometry    C6HCl4(2)
 Framework group  CS[SG(C6HCl4)]
 Deg. of freedom    19
 Full point group                 CS      NOp   2
 Largest Abelian subgroup         CS      NOp   2
 Largest concise Abelian subgroup C1      NOp   1
                         Standard orientation:                         
 ---------------------------------------------------------------------
 Center     Atomic      Atomic             Coordinates (Angstroms)
 Number     Number       Type             X           Y           Z
 ---------------------------------------------------------------------
      1          6           0        0.000000   -0.951885    0.000000
      2          6           0       -1.196948   -0.195882   -0.000000
      3          6           0       -1.193697    1.210927   -0.000000
      4          6           0        0.037668    1.902297    0.000000
      5          6           0        1.158270    1.106563    0.000000
      6          6           0        1.244191   -0.264571    0.000000
      7         17           0        2.723751   -1.056348    0.000000
      8         17           0       -0.035667   -2.634963   -0.000000
      9         17           0        0.116323    3.580107    0.000000
     10         17           0       -2.695850   -0.983740   -0.000000
     11          1           0       -2.142366    1.769354   -0.000000
 ---------------------------------------------------------------------
 Rotational constants (GHZ):           0.8600548           0.5911438           0.3503422

 **********************************************************************

            Population analysis using the SCF Density.

 **********************************************************************

 Orbital symmetries:
 Alpha Orbitals:
       Occupied  (A') (A') (A') (A') (A') (A') (A') (A') (A') (A')
                 (A') (A') (A') (A") (A') (A') (A") (A") (A") (A')
                 (A') (A') (A') (A") (A') (A") (A")
       Virtual   (A") (A") (A') (A') (A') (A') (A") (A') (A') (A')
                 (A') (A') (A') (A')
 Beta  Orbitals:
       Occupied  (A') (A') (A') (A') (A') (A') (A') (A') (A') (A')
                 (A') (A') (A') (A") (A') (A") (A') (A") (A") (A')
                 (A') (A') (A') (A") (A") (A")
       Virtual   (A') (A") (A") (A') (A') (A') (A') (A") (A') (A')
                 (A') (A') (A') (A') (A')
 The electronic state is 2-A'.
 Alpha  occ. eigenvalues --   -1.49111  -1.42079  -1.41363  -1.40196  -1.37699
 Alpha  occ. eigenvalues --   -1.17787  -1.15369  -0.90824  -0.88440  -0.71166
 Alpha  occ. eigenvalues --   -0.66098  -0.65093  -0.60189  -0.58908  -0.56953
 Alpha  occ. eigenvalues --   -0.52657  -0.52010  -0.50612  -0.48188  -0.47303
 Alpha  occ. eigenvalues --   -0.46091  -0.45612  -0.44661  -0.43792  -0.41476
 Alpha  occ. eigenvalues --   -0.38920  -0.37221
 Alpha virt. eigenvalues --   -0.02158  -0.01588   0.01922   0.02250   0.04240
 Alpha virt. eigenvalues --    0.04448   0.05800   0.11232   0.11652   0.12215
 Alpha virt. eigenvalues --    0.13472   0.14572   0.15497   0.16219
  Beta  occ. eigenvalues --   -1.48552  -1.42138  -1.41496  -1.40099  -1.37276
  Beta  occ. eigenvalues --   -1.17352  -1.13820  -0.90515  -0.86341  -0.71256
  Beta  occ. eigenvalues --   -0.65686  -0.63622  -0.59969  -0.58823  -0.56156
  Beta  occ. eigenvalues --   -0.52521  -0.52200  -0.51770  -0.48049  -0.46209
  Beta  occ. eigenvalues --   -0.45865  -0.45465  -0.44498  -0.43403  -0.37653
  Beta  occ. eigenvalues --   -0.36837
  Beta virt. eigenvalues --   -0.02424  -0.02035   0.00040   0.01087   0.02718
  Beta virt. eigenvalues --    0.03398   0.04667   0.06856   0.11636   0.12388
  Beta virt. eigenvalues --    0.13155   0.14467   0.14917   0.16289   0.17653
          Condensed to atoms (all electrons):
               1          2          3          4          5          6
     1  C    4.064725   0.000000   0.000000   0.000000   0.000000   0.000000
     2  C    0.000000   4.064847   0.000000   0.000000   0.000000   0.000000
     3  C    0.000000   0.000000   4.109613   0.000000   0.000000   0.000000
     4  C    0.000000   0.000000   0.000000   4.049822   0.000000   0.000000
     5  C    0.000000   0.000000   0.000000   0.000000   4.034780   0.000000
     6  C    0.000000   0.000000   0.000000   0.000000   0.000000   4.047767
     7  Cl   0.000000   0.000000   0.000000   0.000000   0.000000   0.000000
     8  Cl   0.000000   0.000000   0.000000   0.000000   0.000000   0.000000
     9  Cl   0.000000   0.000000   0.000000   0.000000   0.000000   0.000000
    10  Cl   0.000000   0.000000   0.000000   0.000000   0.000000   0.000000
    11  H    0.000000   0.000000   0.000000   0.000000   0.000000   0.000000
               7          8          9         10         11
     1  C    0.000000   0.000000   0.000000   0.000000   0.000000
     2  C    0.000000   0.000000   0.000000   0.000000   0.000000
     3  C    0.000000   0.000000   0.000000   0.000000   0.000000
     4  C    0.000000   0.000000   0.000000   0.000000   0.000000
     5  C    0.000000   0.000000   0.000000   0.000000   0.000000
     6  C    0.000000   0.000000   0.000000   0.000000   0.000000
     7  Cl   6.935171   0.000000   0.000000   0.000000   0.000000
     8  Cl   0.000000   6.946581   0.000000   0.000000   0.000000
     9  Cl   0.000000   0.000000   6.949588   0.000000   0.000000
    10  Cl   0.000000   0.000000   0.000000   6.969778   0.000000
    11  H    0.000000   0.000000   0.000000   0.000000   0.827328
          Atomic-Atomic Spin Densities.
               1          2          3          4          5          6
     1  C    0.537457   0.000000   0.000000   0.000000   0.000000   0.000000
     2  C    0.000000  -0.486719   0.000000   0.000000   0.000000   0.000000
     3  C    0.000000   0.000000   0.541047   0.000000   0.000000   0.000000
     4  C    0.000000   0.000000   0.000000  -0.503573   0.000000   0.000000
     5  C    0.000000   0.000000   0.000000   0.000000   1.435722   0.000000
     6  C    0.000000   0.000000   0.000000   0.000000   0.000000  -0.513601
     7  Cl   0.000000   0.000000   0.000000   0.000000   0.000000   0.000000
     8  Cl   0.000000   0.000000   0.000000   0.000000   0.000000   0.000000
     9  Cl   0.000000   0.000000   0.000000   0.000000   0.000000   0.000000
    10  Cl   0.000000   0.000000   0.000000   0.000000   0.000000   0.000000
    11  H    0.000000   0.000000   0.000000   0.000000   0.000000   0.000000
               7          8          9         10         11
     1  C    0.000000   0.000000   0.000000   0.000000   0.000000
     2  C    0.000000   0.000000   0.000000   0.000000   0.000000
     3  C    0.000000   0.000000   0.000000   0.000000   0.000000
     4  C    0.000000   0.000000   0.000000   0.000000   0.000000
     5  C    0.000000   0.000000   0.000000   0.000000   0.000000
     6  C    0.000000   0.000000   0.000000   0.000000   0.000000
     7  Cl  -0.001408   0.000000   0.000000   0.000000   0.000000
     8  Cl   0.000000   0.017954   0.000000   0.000000   0.000000
     9  Cl   0.000000   0.000000  -0.001117   0.000000   0.000000
    10  Cl   0.000000   0.000000   0.000000  -0.003741   0.000000
    11  H    0.000000   0.000000   0.000000   0.000000  -0.022022
 Mulliken charges and spin densities:
               1          2
     1  C   -0.064725   0.537457
     2  C   -0.064847  -0.486719
     3  C   -0.109613   0.541047
     4  C   -0.049822  -0.503573
     5  C   -0.034780   1.435722
     6  C   -0.047767  -0.513601
     7  Cl   0.064829  -0.001408
     8  Cl   0.053419   0.017954
     9  Cl   0.050412  -0.001117
    10  Cl   0.030222  -0.003741
    11  H    0.172672  -0.022022
 Sum of Mulliken charges =  -0.00000   1.00000
 Mulliken charges and spin densities with hydrogens summed into heavy atoms:
               1          2
     1  C   -0.064725   0.537457
     2  C   -0.064847  -0.486719
     3  C    0.063059   0.519026
     4  C   -0.049822  -0.503573
     5  C   -0.034780   1.435722
     6  C   -0.047767  -0.513601
     7  Cl   0.064829  -0.001408
     8  Cl   0.053419   0.017954
     9  Cl   0.050412  -0.001117
    10  Cl   0.030222  -0.003741
 Charge=             -0.0000 electrons
 Dipole moment (field-independent basis, Debye):
    X=             -0.8168    Y=              0.2887    Z=              0.0000  Tot=              0.8663
 N-N= 2.961122533498D+02 E-N=-4.178372914513D+02  KE=-1.337498631852D+02
 Symmetry A'   KE=-1.022113495347D+02
 Symmetry A"   KE=-3.153851365052D+01
 Symmetry A'   SP= 1.000000000000D+00
 Symmetry A"   SP= 5.162537064507D-15
 1\1\GINC-SH02-01N09\FOpt\UAM1\ZDO\C6H1Cl4(2)\JLAPIER\09-Dec-2025\0\\# 
 opt am1 SCF=XQC\\Neutral Radical (removed 4) 123_5\\0,2\C,-3.190675590
 4,0.2398652971,0.\C,-1.9698834336,0.9567283098,0.\C,-0.7212735596,0.30
 85816365,0.\C,-0.6717043953,-1.1027279504,0.\C,-1.89278389,-1.73352613
 34,0.\C,-3.1505932475,-1.1809817366,0.\Cl,-4.5327983787,-2.1325671794,
 0.\Cl,-4.6699128971,1.0435330968,0.\Cl,0.783134538,-1.942178821,0.\Cl,
 -1.9824827092,2.6500294188,0.\H,0.2100735634,0.8954440618,0.\\Version=
 ES64L-G16RevB.01\State=2-A'\HF=0.0817455\S2=1.360013\S2-1=0.\S2A=1.086
 591\RMSD=6.963e-09\RMSF=9.809e-05\Dipole=0.2483363,0.2334472,0.\PG=CS 
 [SG(C6H1Cl4)]\\@


 WHEN YOU REACH FOR THE STARS, YOU MAY NOT QUITE GET ONE,
 BUT YOU WON'T COME UP WITH A HANDFUL OF MUD, EITHER.

                                         -- LEO BURNETT (AD AGENCY HEAD)
 Job cpu time:       0 days  0 hours  0 minutes  9.1 seconds.
 Elapsed time:       0 days  0 hours  0 minutes 27.8 seconds.
 File lengths (MBytes):  RWF=     15 Int=      0 D2E=      0 Chk=      2 Scr=      1
 Normal termination of Gaussian 16 at Tue Dec  9 08:35:15 2025.
