 Entering Gaussian System, Link 0=g16
 Initial command:
 /share/software/user/restricted/gaussian/g16.B01/l1.exe "/home/users/jlapier/Chloroaromatics/Gau-15415.inp" -scrdir="/home/users/jlapier/Chloroaromatics/"
 Entering Link 1 = /share/software/user/restricted/gaussian/g16.B01/l1.exe PID=     15420.
  
 Copyright (c) 1988-2017, Gaussian, Inc.  All Rights Reserved.
  
 This is part of the Gaussian(R) 16 program.  It is based on
 the Gaussian(R) 09 system (copyright 2009, Gaussian, Inc.),
 the Gaussian(R) 03 system (copyright 2003, Gaussian, Inc.),
 the Gaussian(R) 98 system (copyright 1998, Gaussian, Inc.),
 the Gaussian(R) 94 system (copyright 1995, Gaussian, Inc.),
 the Gaussian 92(TM) system (copyright 1992, Gaussian, Inc.),
 the Gaussian 90(TM) system (copyright 1990, Gaussian, Inc.),
 the Gaussian 88(TM) system (copyright 1988, Gaussian, Inc.),
 the Gaussian 86(TM) system (copyright 1986, Carnegie Mellon
 University), and the Gaussian 82(TM) system (copyright 1983,
 Carnegie Mellon University). Gaussian is a federally registered
 trademark of Gaussian, Inc.
  
 This software contains proprietary and confidential information,
 including trade secrets, belonging to Gaussian, Inc.
  
 This software is provided under written license and may be
 used, copied, transmitted, or stored only in accord with that
 written license.
  
 The following legend is applicable only to US Government
 contracts under FAR:
  
                    RESTRICTED RIGHTS LEGEND
  
 Use, reproduction and disclosure by the US Government is
 subject to restrictions as set forth in subparagraphs (a)
 and (c) of the Commercial Computer Software - Restricted
 Rights clause in FAR 52.227-19.
  
 Gaussian, Inc.
 340 Quinnipiac St., Bldg. 40, Wallingford CT 06492
  
  
 ---------------------------------------------------------------
 Warning -- This program may not be used in any manner that
 competes with the business of Gaussian, Inc. or will provide
 assistance to any competitor of Gaussian, Inc.  The licensee
 of this program is prohibited from giving any competitor of
 Gaussian, Inc. access to this program.  By using this program,
 the user acknowledges that Gaussian, Inc. is engaged in the
 business of creating and licensing software in the field of
 computational chemistry and represents and warrants to the
 licensee that it is not a competitor of Gaussian, Inc. and that
 it will not use this program in any manner prohibited above.
 ---------------------------------------------------------------
  

 Cite this work as:
 Gaussian 16, Revision B.01,
 M. J. Frisch, G. W. Trucks, H. B. Schlegel, G. E. Scuseria, 
 M. A. Robb, J. R. Cheeseman, G. Scalmani, V. Barone, 
 G. A. Petersson, H. Nakatsuji, X. Li, M. Caricato, A. V. Marenich, 
 J. Bloino, B. G. Janesko, R. Gomperts, B. Mennucci, H. P. Hratchian, 
 J. V. Ortiz, A. F. Izmaylov, J. L. Sonnenberg, D. Williams-Young, 
 F. Ding, F. Lipparini, F. Egidi, J. Goings, B. Peng, A. Petrone, 
 T. Henderson, D. Ranasinghe, V. G. Zakrzewski, J. Gao, N. Rega, 
 G. Zheng, W. Liang, M. Hada, M. Ehara, K. Toyota, R. Fukuda, 
 J. Hasegawa, M. Ishida, T. Nakajima, Y. Honda, O. Kitao, H. Nakai, 
 T. Vreven, K. Throssell, J. A. Montgomery, Jr., J. E. Peralta, 
 F. Ogliaro, M. J. Bearpark, J. J. Heyd, E. N. Brothers, K. N. Kudin, 
 V. N. Staroverov, T. A. Keith, R. Kobayashi, J. Normand, 
 K. Raghavachari, A. P. Rendell, J. C. Burant, S. S. Iyengar, 
 J. Tomasi, M. Cossi, J. M. Millam, M. Klene, C. Adamo, R. Cammi, 
 J. W. Ochterski, R. L. Martin, K. Morokuma, O. Farkas, 
 J. B. Foresman, and D. J. Fox, Gaussian, Inc., Wallingford CT, 2016.
 
 ******************************************
 Gaussian 16:  ES64L-G16RevB.01 20-Dec-2017
                 8-Dec-2025 
 ******************************************
 %mem=2GB
 %nprocshare=1
 Will use up to    1 processors via shared memory.
 %chk=geometry_chks/123_ClBzAnionIntermediate.chk
 ---------------------------
 # opt am1 SCF(maxcyc=10000)
 ---------------------------
 1/18=20,19=15,26=1,38=1/1,3;
 2/9=110,12=2,17=6,18=5,40=1/2;
 3/5=2,25=1,41=700000,71=1/1,2,3;
 4/35=1/1;
 5/5=2,7=10000,35=1,38=5/2;
 6/7=2,8=2,9=2,10=2,28=1/1;
 7//1,2,3,16;
 1/18=20,19=15,26=1/3(2);
 2/9=110/2;
 99//99;
 2/9=110/2;
 3/5=2,25=1,41=700000,71=1,135=20/1,2,3;
 4/5=5,16=3,35=1/1;
 5/5=2,7=10000,35=1,38=5/2;
 7//1,2,3,16;
 1/18=20,19=15,26=1/3(-5);
 2/9=110/2;
 6/7=2,8=2,9=2,10=2,19=2,28=1/1;
 99/9=1/99;
 -----------------------------------
 Anion Intermediate (removed 5) 123_
 -----------------------------------
 Symbolic Z-matrix:
 Charge = -1 Multiplicity = 1
 C                    -3.20928   0.19943   0. 
 C                    -2.0115    0.93555   0. 
 C                    -0.77511   0.2663    0. 
 C                    -0.7365   -1.13907   0. 
 C                    -1.93429  -1.87519   0. 
 C                    -3.17067  -1.20594   0. 
 Cl                   -4.67483  -2.13035   0. 
 Cl                   -4.76193   1.03987   0. 
 Cl                    0.81614  -1.97951   0. 
 H                    -1.8858   -3.64003   0. 
 H                     0.72905   1.19071   0. 
 
 Add virtual bond connecting atoms H10        and C5         Dist= 3.34D+00.
 Add virtual bond connecting atoms H11        and C3         Dist= 3.34D+00.

 GradGradGradGradGradGradGradGradGradGradGradGradGradGradGradGradGradGrad
 Berny optimization.
 Initialization pass.
                           ----------------------------
                           !    Initial Parameters    !
                           ! (Angstroms and Degrees)  !
 --------------------------                            --------------------------
 ! Name  Definition              Value          Derivative Info.                !
 --------------------------------------------------------------------------------
 ! R1    R(1,2)                  1.4059         estimate D2E/DX2                !
 ! R2    R(1,6)                  1.4059         estimate D2E/DX2                !
 ! R3    R(1,8)                  1.7655         estimate D2E/DX2                !
 ! R4    R(2,3)                  1.4059         estimate D2E/DX2                !
 ! R5    R(3,4)                  1.4059         estimate D2E/DX2                !
 ! R6    R(3,11)                 1.7655         estimate D2E/DX2                !
 ! R7    R(4,5)                  1.4059         estimate D2E/DX2                !
 ! R8    R(4,9)                  1.7655         estimate D2E/DX2                !
 ! R9    R(5,6)                  1.4059         estimate D2E/DX2                !
 ! R10   R(5,10)                 1.7655         estimate D2E/DX2                !
 ! R11   R(6,7)                  1.7655         estimate D2E/DX2                !
 ! A1    A(2,1,6)              119.9999         estimate D2E/DX2                !
 ! A2    A(2,1,8)              119.9999         estimate D2E/DX2                !
 ! A3    A(6,1,8)              120.0001         estimate D2E/DX2                !
 ! A4    A(1,2,3)              120.0            estimate D2E/DX2                !
 ! A5    A(2,3,4)              120.0001         estimate D2E/DX2                !
 ! A6    A(2,3,11)             120.0            estimate D2E/DX2                !
 ! A7    A(4,3,11)             119.9999         estimate D2E/DX2                !
 ! A8    A(3,4,5)              119.9997         estimate D2E/DX2                !
 ! A9    A(3,4,9)              120.0003         estimate D2E/DX2                !
 ! A10   A(5,4,9)              120.0            estimate D2E/DX2                !
 ! A11   A(4,5,6)              120.0            estimate D2E/DX2                !
 ! A12   A(4,5,10)             119.9996         estimate D2E/DX2                !
 ! A13   A(6,5,10)             120.0004         estimate D2E/DX2                !
 ! A14   A(1,6,5)              120.0003         estimate D2E/DX2                !
 ! A15   A(1,6,7)              119.9999         estimate D2E/DX2                !
 ! A16   A(5,6,7)              119.9998         estimate D2E/DX2                !
 ! D1    D(6,1,2,3)              0.0            estimate D2E/DX2                !
 ! D2    D(8,1,2,3)            180.0            estimate D2E/DX2                !
 ! D3    D(2,1,6,5)              0.0            estimate D2E/DX2                !
 ! D4    D(2,1,6,7)            180.0            estimate D2E/DX2                !
 ! D5    D(8,1,6,5)            180.0            estimate D2E/DX2                !
 ! D6    D(8,1,6,7)              0.0            estimate D2E/DX2                !
 ! D7    D(1,2,3,4)              0.0            estimate D2E/DX2                !
 ! D8    D(1,2,3,11)           180.0            estimate D2E/DX2                !
 ! D9    D(2,3,4,5)              0.0            estimate D2E/DX2                !
 ! D10   D(2,3,4,9)            180.0            estimate D2E/DX2                !
 ! D11   D(11,3,4,5)           180.0            estimate D2E/DX2                !
 ! D12   D(11,3,4,9)             0.0            estimate D2E/DX2                !
 ! D13   D(3,4,5,6)              0.0            estimate D2E/DX2                !
 ! D14   D(3,4,5,10)           180.0            estimate D2E/DX2                !
 ! D15   D(9,4,5,6)            180.0            estimate D2E/DX2                !
 ! D16   D(9,4,5,10)             0.0            estimate D2E/DX2                !
 ! D17   D(4,5,6,1)              0.0            estimate D2E/DX2                !
 ! D18   D(4,5,6,7)            180.0            estimate D2E/DX2                !
 ! D19   D(10,5,6,1)           180.0            estimate D2E/DX2                !
 ! D20   D(10,5,6,7)             0.0            estimate D2E/DX2                !
 --------------------------------------------------------------------------------
 Trust Radius=3.00D-01 FncErr=1.00D-07 GrdErr=1.00D-07 EigMax=2.50D+02 EigMin=1.00D-04
 Number of steps in this run=     57 maximum allowed number of steps=    100.
 GradGradGradGradGradGradGradGradGradGradGradGradGradGradGradGradGradGrad

                          Input orientation:                          
 ---------------------------------------------------------------------
 Center     Atomic      Atomic             Coordinates (Angstroms)
 Number     Number       Type             X           Y           Z
 ---------------------------------------------------------------------
      1          6           0       -3.209280    0.199430    0.000000
      2          6           0       -2.011500    0.935550    0.000000
      3          6           0       -0.775110    0.266300    0.000000
      4          6           0       -0.736500   -1.139070    0.000000
      5          6           0       -1.934290   -1.875190    0.000000
      6          6           0       -3.170670   -1.205940    0.000000
      7         17           0       -4.674830   -2.130350    0.000000
      8         17           0       -4.761930    1.039870    0.000000
      9         17           0        0.816140   -1.979510    0.000000
     10          1           0       -1.885800   -3.640030    0.000000
     11          1           0        0.729050    1.190710    0.000000
 ---------------------------------------------------------------------
                    Distance matrix (angstroms):
                    1          2          3          4          5
     1  C    0.000000
     2  C    1.405898   0.000000
     3  C    2.435088   1.405900   0.000000
     4  C    2.811801   2.435092   1.405900   0.000000
     5  C    2.435087   2.811800   2.435093   1.405907   0.000000
     6  C    1.405900   2.435088   2.811796   2.435088   1.405892
     7  Cl   2.752401   4.061166   4.577308   4.061167   2.752393
     8  Cl   1.765520   2.752408   4.061175   4.577321   4.061173
     9  Cl   4.577312   4.061173   2.752406   1.765511   2.752408
    10  H    4.061164   4.577306   4.061163   2.752397   1.765506
    11  H    4.061167   2.752403   1.765512   2.752401   4.061173
                    6          7          8          9         10
     6  C    0.000000
     7  Cl   1.765512   0.000000
     8  Cl   2.752412   3.171416   0.000000
     9  Cl   4.061165   5.493041   6.342832   0.000000
    10  H    2.752396   3.171407   5.493049   3.171404   0.000000
    11  H    4.577308   6.342819   5.493051   3.171416   5.493040
                   11
    11  H    0.000000
 Stoichiometry    C6H2Cl3(1-)
 Framework group  CS[SG(C6H2Cl3)]
 Deg. of freedom    19
 Full point group                 CS      NOp   2
 Largest Abelian subgroup         CS      NOp   2
 Largest concise Abelian subgroup C1      NOp   1
                         Standard orientation:                         
 ---------------------------------------------------------------------
 Center     Atomic      Atomic             Coordinates (Angstroms)
 Number     Number       Type             X           Y           Z
 ---------------------------------------------------------------------
      1          6           0        0.524618   -1.138645    0.000000
      2          6           0        1.742162   -0.435697    0.000000
      3          6           0        1.742162    0.970204    0.000000
      4          6           0        0.524618    1.673156   -0.000000
      5          6           0       -0.692931    0.970199   -0.000000
      6          6           0       -0.692926   -0.435692   -0.000000
      7         17           0       -2.221904   -1.318448   -0.000000
      8         17           0        0.524618   -2.904165    0.000000
      9         17           0        0.524613    3.438667   -0.000000
     10          1           0       -2.221901    1.852959   -0.000000
     11          1           0        3.271140    1.852960    0.000000
 ---------------------------------------------------------------------
 Rotational constants (GHZ):           1.8580836           0.5750025           0.4391142
 Standard basis: VSTO-6G (5D, 7F)
 There are    29 symmetry adapted cartesian basis functions of A'  symmetry.
 There are     9 symmetry adapted cartesian basis functions of A"  symmetry.
 There are    29 symmetry adapted basis functions of A'  symmetry.
 There are     9 symmetry adapted basis functions of A"  symmetry.
    38 basis functions,   228 primitive gaussians,    38 cartesian basis functions
    24 alpha electrons       24 beta electrons
       nuclear repulsion energy       239.2474595064 Hartrees.
 Integral buffers will be    131072 words long.
 Regular integral format.
 Two-electron integral symmetry is turned off.
 Do NDO integrals.
 One-electron integrals computed using PRISM.
 NBasis=    38 RedAO= T EigKep=  1.00D+00  NBF=    29     9
 NBsUse=    38 1.00D-06 EigRej= -1.00D+00 NBFU=    29     9
 Simple Huckel Guess.
 Initial guess orbital symmetries:
       Occupied  (A') (A') (A') (A') (A') (A') (A') (A') (A') (A")
                 (A') (A') (A') (A') (A") (A") (A') (A") (A') (A')
                 (A') (A") (A") (A')
       Virtual   (A") (A') (A") (A') (A") (A') (A') (A') (A') (A')
                 (A') (A') (A') (A')
 The electronic state of the initial guess is 1-A'.
 Keep J ints in memory in canonical form, NReq=863588.
 Overlap will be assumed to be unity.
 Requested convergence on RMS density matrix=1.00D-08 within**** cycles.
 Requested convergence on MAX density matrix=1.00D-06.
 Requested convergence on             energy=1.00D-06.
 No special actions if energy rises.
 Fock symm off for IB=2 I1=    1 I=   30 J=   29 Cut=1.00D-07 Err=5.35D-03
 Fock matrix is not symmetric: symmetry in diagonalization turned off.
 SCF Done:  E(RAM1) =  0.275457678111     A.U. after   17 cycles
            NFock= 16  Conv=0.63D-08     -V/T= 1.0024

 **********************************************************************

            Population analysis using the SCF Density.

 **********************************************************************

 Orbital symmetries:
       Occupied  (A') (A') (A') (A') (A') (A') (A') (A') (A') (A')
                 (A') (A") (A') (A") (A") (A') (A') (A') (A') (A")
                 (A') (A") (A") (A')
       Virtual   (A') (A") (A') (A') (A") (A') (A') (A") (A') (A')
                 (A') (A') (A') (A')
 The electronic state is 1-A'.
 Alpha  occ. eigenvalues --   -1.26166  -1.23062  -1.21053  -1.18626  -0.95417
 Alpha  occ. eigenvalues --   -0.91763  -0.67050  -0.64673  -0.47029  -0.43736
 Alpha  occ. eigenvalues --   -0.42849  -0.38415  -0.37061  -0.34550  -0.31566
 Alpha  occ. eigenvalues --   -0.31452  -0.29593  -0.28279  -0.27816  -0.27486
 Alpha  occ. eigenvalues --   -0.23582  -0.18910  -0.17301  -0.12259
 Alpha virt. eigenvalues --    0.14085   0.16320   0.17272   0.18235   0.18251
 Alpha virt. eigenvalues --    0.19510   0.21707   0.27626   0.31742   0.32058
 Alpha virt. eigenvalues --    0.33735   0.34282   0.37156   0.39870
          Condensed to atoms (all electrons):
               1          2          3          4          5          6
     1  C    4.037881   0.000000   0.000000   0.000000   0.000000   0.000000
     2  C    0.000000   4.362180   0.000000   0.000000   0.000000   0.000000
     3  C    0.000000   0.000000   4.103237   0.000000   0.000000   0.000000
     4  C    0.000000   0.000000   0.000000   4.052972   0.000000   0.000000
     5  C    0.000000   0.000000   0.000000   0.000000   4.180601   0.000000
     6  C    0.000000   0.000000   0.000000   0.000000   0.000000   4.053725
     7  Cl   0.000000   0.000000   0.000000   0.000000   0.000000   0.000000
     8  Cl   0.000000   0.000000   0.000000   0.000000   0.000000   0.000000
     9  Cl   0.000000   0.000000   0.000000   0.000000   0.000000   0.000000
    10  H    0.000000   0.000000   0.000000   0.000000   0.000000   0.000000
    11  H    0.000000   0.000000   0.000000   0.000000   0.000000   0.000000
               7          8          9         10         11
     1  C    0.000000   0.000000   0.000000   0.000000   0.000000
     2  C    0.000000   0.000000   0.000000   0.000000   0.000000
     3  C    0.000000   0.000000   0.000000   0.000000   0.000000
     4  C    0.000000   0.000000   0.000000   0.000000   0.000000
     5  C    0.000000   0.000000   0.000000   0.000000   0.000000
     6  C    0.000000   0.000000   0.000000   0.000000   0.000000
     7  Cl   7.123039   0.000000   0.000000   0.000000   0.000000
     8  Cl   0.000000   7.113951   0.000000   0.000000   0.000000
     9  Cl   0.000000   0.000000   7.140347   0.000000   0.000000
    10  H    0.000000   0.000000   0.000000   0.896472   0.000000
    11  H    0.000000   0.000000   0.000000   0.000000   0.935596
 Mulliken charges:
               1
     1  C   -0.037881
     2  C   -0.362180
     3  C   -0.103237
     4  C   -0.052972
     5  C   -0.180601
     6  C   -0.053725
     7  Cl  -0.123039
     8  Cl  -0.113951
     9  Cl  -0.140347
    10  H    0.103528
    11  H    0.064404
 Sum of Mulliken charges =  -1.00000
 Mulliken charges with hydrogens summed into heavy atoms:
               1
     1  C   -0.037881
     2  C   -0.362180
     3  C   -0.038833
     4  C   -0.052972
     5  C   -0.077073
     6  C   -0.053725
     7  Cl  -0.123039
     8  Cl  -0.113951
     9  Cl  -0.140347
 Charge=             -1.0000 electrons
 Dipole moment (field-independent basis, Debye):
    X=             -4.4980    Y=              1.6683    Z=              0.0000  Tot=              4.7974
 N-N= 2.392474595064D+02 E-N=-3.383373572204D+02  KE=-1.136127286065D+02
 Symmetry A'   KE=-8.755515650712D+01
 Symmetry A"   KE=-2.605757209938D+01
 Calling FoFJK, ICntrl=      2127 FMM=F ISym2X=1 I1Cent= 0 IOpClX= 0 NMat=1 NMatS=1 NMatT=0.
 ***** Axes restored to original set *****
 -------------------------------------------------------------------
 Center     Atomic                   Forces (Hartrees/Bohr)
 Number     Number              X              Y              Z
 -------------------------------------------------------------------
      1        6           0.017989177    0.014170063   -0.000000000
      2        6           0.016627411   -0.015853782   -0.000000000
      3        6           0.033195252    0.036860744   -0.000000000
      4        6           0.011632842    0.000161058   -0.000000000
      5        6          -0.001351144   -0.072867302    0.000000000
      6        6          -0.002432285   -0.023472679    0.000000000
      7       17           0.023440907    0.007989420    0.000000000
      8       17           0.024723903   -0.012337694    0.000000000
      9       17          -0.021886688    0.008695053   -0.000000000
     10        1          -0.003417132    0.117970115    0.000000000
     11        1          -0.098522244   -0.061314995    0.000000000
 -------------------------------------------------------------------
 Cartesian Forces:  Max     0.117970115 RMS     0.034308215

 GradGradGradGradGradGradGradGradGradGradGradGradGradGradGradGradGradGrad
 Berny optimization.
 FormGI is forming the generalized inverse of G from B-inverse, IUseBI=4.
 Internal  Forces:  Max     0.118019464 RMS     0.028241487
 Search for a local minimum.
 Step number   1 out of a maximum of   57
 All quantities printed in internal units (Hartrees-Bohrs-Radians)
 Mixed Optimization -- RFO/linear search
 Second derivative matrix not updated -- first step.
 ITU=  0
     Eigenvalues ---    0.02011   0.02011   0.02011   0.02011   0.02011
     Eigenvalues ---    0.02011   0.02011   0.02011   0.06524   0.06524
     Eigenvalues ---    0.16000   0.16000   0.23314   0.23491   0.25000
     Eigenvalues ---    0.25000   0.25000   0.25000   0.29033   0.29033
     Eigenvalues ---    0.29033   0.41085   0.41442   0.44656   0.44657
     Eigenvalues ---    0.44657   0.44657
 RFO step:  Lambda=-1.47852086D-01 EMin= 2.01065740D-02
 Linear search not attempted -- first point.
 Maximum step size (   0.300) exceeded in Quadratic search.
    -- Step size scaled by   0.375
 Iteration  1 RMS(Cart)=  0.04897645 RMS(Int)=  0.00123889
 Iteration  2 RMS(Cart)=  0.00119184 RMS(Int)=  0.00001367
 Iteration  3 RMS(Cart)=  0.00000009 RMS(Int)=  0.00001367
 ClnCor:  largest displacement from symmetrization is 4.38D-09 for atom    10.
 Variable       Old X    -DE/DX   Delta X   Delta X   Delta X     New X
                                 (Linear)    (Quad)   (Total)
    R1        2.65676  -0.03132   0.00000  -0.01952  -0.01953   2.63724
    R2        2.65677  -0.00667   0.00000  -0.00367  -0.00369   2.65307
    R3        3.33635  -0.02762   0.00000  -0.02361  -0.02361   3.31274
    R4        2.65677  -0.04616   0.00000  -0.02940  -0.02939   2.62738
    R5        2.65677  -0.03163   0.00000  -0.02046  -0.02044   2.63633
    R6        3.33633  -0.11604   0.00000  -0.20399  -0.20399   3.13234
    R7        2.65678  -0.03538   0.00000  -0.02251  -0.02250   2.63427
    R8        3.33633  -0.02339   0.00000  -0.01999  -0.01999   3.31634
    R9        2.65675  -0.03855   0.00000  -0.02398  -0.02399   2.63276
   R10        3.33632  -0.11802   0.00000  -0.20747  -0.20747   3.12885
   R11        3.33633  -0.02415   0.00000  -0.02065  -0.02065   3.31568
    A1        2.09439   0.00615   0.00000   0.00668   0.00665   2.10104
    A2        2.09439  -0.00461   0.00000  -0.00478  -0.00477   2.08963
    A3        2.09440  -0.00154   0.00000  -0.00190  -0.00188   2.09252
    A4        2.09439  -0.01480   0.00000  -0.01453  -0.01453   2.07987
    A5        2.09440   0.01970   0.00000   0.01839   0.01843   2.11283
    A6        2.09440  -0.00876   0.00000  -0.00787  -0.00789   2.08651
    A7        2.09439  -0.01094   0.00000  -0.01052  -0.01054   2.08385
    A8        2.09439  -0.00811   0.00000  -0.00904  -0.00901   2.08538
    A9        2.09440   0.00868   0.00000   0.00888   0.00886   2.10326
   A10        2.09440  -0.00057   0.00000   0.00017   0.00015   2.09455
   A11        2.09439   0.00500   0.00000   0.00496   0.00495   2.09935
   A12        2.09439  -0.00221   0.00000  -0.00212  -0.00212   2.09227
   A13        2.09440  -0.00279   0.00000  -0.00284  -0.00283   2.09157
   A14        2.09440  -0.00794   0.00000  -0.00645  -0.00649   2.08791
   A15        2.09439   0.01309   0.00000   0.01181   0.01183   2.10622
   A16        2.09439  -0.00515   0.00000  -0.00536  -0.00534   2.08905
    D1       -0.00000   0.00000   0.00000   0.00000   0.00000   0.00000
    D2        3.14159  -0.00000   0.00000  -0.00000   0.00000   3.14159
    D3        0.00000  -0.00000   0.00000  -0.00000   0.00000   0.00000
    D4        3.14159  -0.00000   0.00000  -0.00000   0.00000   3.14159
    D5        3.14159   0.00000   0.00000   0.00000   0.00000   3.14159
    D6        0.00000   0.00000   0.00000   0.00000  -0.00000   0.00000
    D7       -0.00000  -0.00000   0.00000   0.00000   0.00000   0.00000
    D8        3.14159   0.00000   0.00000   0.00000   0.00000   3.14159
    D9        0.00000  -0.00000   0.00000  -0.00000  -0.00000   0.00000
   D10        3.14159   0.00000   0.00000   0.00000   0.00000   3.14159
   D11        3.14159  -0.00000   0.00000  -0.00000   0.00000   3.14159
   D12       -0.00000  -0.00000   0.00000  -0.00000   0.00000   0.00000
   D13       -0.00000   0.00000   0.00000   0.00000   0.00000   0.00000
   D14        3.14159   0.00000   0.00000   0.00000   0.00000   3.14159
   D15        3.14159  -0.00000   0.00000  -0.00000   0.00000   3.14159
   D16       -0.00000  -0.00000   0.00000  -0.00000   0.00000   0.00000
   D17        0.00000  -0.00000   0.00000  -0.00000  -0.00000   0.00000
   D18        3.14159  -0.00000   0.00000  -0.00000   0.00000   3.14159
   D19        3.14159  -0.00000   0.00000  -0.00000   0.00000   3.14159
   D20       -0.00000  -0.00000   0.00000  -0.00000   0.00000   0.00000
         Item               Value     Threshold  Converged?
 Maximum Force            0.118019     0.000450     NO 
 RMS     Force            0.028241     0.000300     NO 
 Maximum Displacement     0.219699     0.001800     NO 
 RMS     Displacement     0.050057     0.001200     NO 
 Predicted change in Energy=-5.166493D-02
 GradGradGradGradGradGradGradGradGradGradGradGradGradGradGradGradGradGrad

                          Input orientation:                          
 ---------------------------------------------------------------------
 Center     Atomic      Atomic             Coordinates (Angstroms)
 Number     Number       Type             X           Y           Z
 ---------------------------------------------------------------------
      1          6           0       -3.187813    0.194783    0.000000
      2          6           0       -2.000924    0.928878    0.000000
      3          6           0       -0.786023    0.252797   -0.000000
      4          6           0       -0.738296   -1.141470   -0.000000
      5          6           0       -1.927586   -1.868670   -0.000000
      6          6           0       -3.154583   -1.208769    0.000000
      7         17           0       -4.642003   -2.139441    0.000000
      8         17           0       -4.727874    1.032228    0.000000
      9         17           0        0.803276   -1.980125   -0.000000
     10          1           0       -1.882340   -3.523770   -0.000000
     11          1           0        0.629447    1.115330   -0.000000
 ---------------------------------------------------------------------
                    Distance matrix (angstroms):
                    1          2          3          4          5
     1  C    0.000000
     2  C    1.395565   0.000000
     3  C    2.402491   1.390349   0.000000
     4  C    2.790288   2.424989   1.395084   0.000000
     5  C    2.417853   2.798510   2.409106   1.393998   0.000000
     6  C    1.403945   2.429087   2.783209   2.417225   1.393195
     7  Cl   2.750140   4.048442   4.537773   4.029252   2.727889
     8  Cl   1.753027   2.728908   4.018172   4.543314   4.031976
     9  Cl   4.545219   4.040524   2.740769   1.754932   2.733135
    10  H    3.941053   4.454228   3.932477   2.642762   1.655718
    11  H    3.926688   2.636971   1.657563   2.638914   3.929716
                    6          7          8          9         10
     6  C    0.000000
     7  Cl   1.754585   0.000000
     8  Cl   2.738122   3.172832   0.000000
     9  Cl   4.032324   5.447608   6.298245   0.000000
    10  H    2.641559   3.087410   5.371609   3.097640   0.000000
    11  H    4.440756   6.195298   5.357965   3.100332   5.275446
                   11
    11  H    0.000000
 Stoichiometry    C6H2Cl3(1-)
 Framework group  CS[SG(C6H2Cl3)]
 Deg. of freedom    19
 Full point group                 CS      NOp   2
 Largest Abelian subgroup         CS      NOp   2
 Largest concise Abelian subgroup C1      NOp   1
                         Standard orientation:                         
 ---------------------------------------------------------------------
 Center     Atomic      Atomic             Coordinates (Angstroms)
 Number     Number       Type             X           Y           Z
 ---------------------------------------------------------------------
      1          6           0        1.238497   -0.153035    0.000000
      2          6           0        1.294117    1.241421    0.000000
      3          6           0        0.108037    1.966875   -0.000000
      4          6           0       -1.129504    1.322863   -0.000000
      5          6           0       -1.177939   -0.070293   -0.000000
      6          6           0        0.000000   -0.814236    0.000000
      7         17           0       -0.079018   -2.567041    0.000000
      8         17           0        2.724970   -1.082282    0.000000
      9         17           0       -2.617773    2.252831   -0.000000
     10          1           0       -2.641383   -0.844720   -0.000000
     11          1           0        0.163100    3.623524   -0.000000
 ---------------------------------------------------------------------
 Rotational constants (GHZ):           1.8709144           0.5849609           0.4456301
 Standard basis: VSTO-6G (5D, 7F)
 There are    29 symmetry adapted cartesian basis functions of A'  symmetry.
 There are     9 symmetry adapted cartesian basis functions of A"  symmetry.
 There are    29 symmetry adapted basis functions of A'  symmetry.
 There are     9 symmetry adapted basis functions of A"  symmetry.
    38 basis functions,   228 primitive gaussians,    38 cartesian basis functions
    24 alpha electrons       24 beta electrons
       nuclear repulsion energy       240.5398405441 Hartrees.
 Integral buffers will be    131072 words long.
 Regular integral format.
 Two-electron integral symmetry is turned off.
 Do NDO integrals.
 One-electron integrals computed using PRISM.
 NBasis=    38 RedAO= T EigKep=  1.00D+00  NBF=    29     9
 NBsUse=    38 1.00D-06 EigRej= -1.00D+00 NBFU=    29     9
 Initial guess from the checkpoint file:  "geometry_chks/123_ClBzAnionIntermediate.chk"
 B after Tr=     0.000000    0.000000   -0.000000
         Rot=    0.875063    0.000000   -0.000000   -0.484010 Ang= -57.90 deg.
 Initial guess orbital symmetries:
       Occupied  (A') (A') (A') (A') (A') (A') (A') (A') (A') (A')
                 (A') (A") (A') (A") (A") (A') (A') (A') (A') (A")
                 (A') (A") (A") (A')
       Virtual   (A') (A") (A') (A') (A") (A') (A') (A") (A') (A')
                 (A') (A') (A') (A')
 Keep J ints in memory in canonical form, NReq=863588.
 Overlap will be assumed to be unity.
 Requested convergence on RMS density matrix=1.00D-08 within**** cycles.
 Requested convergence on MAX density matrix=1.00D-06.
 Requested convergence on             energy=1.00D-06.
 No special actions if energy rises.
 Fock symm off for IB=2 I1=    1 I=   30 J=    8 Cut=1.00D-07 Err=1.41D-03
 Fock matrix is not symmetric: symmetry in diagonalization turned off.
 SCF Done:  E(RAM1) =  0.220461940332     A.U. after   14 cycles
            NFock= 13  Conv=0.34D-08     -V/T= 1.0019
 Calling FoFJK, ICntrl=      2127 FMM=F ISym2X=1 I1Cent= 0 IOpClX= 0 NMat=1 NMatS=1 NMatT=0.
 ***** Axes restored to original set *****
 -------------------------------------------------------------------
 Center     Atomic                   Forces (Hartrees/Bohr)
 Number     Number              X              Y              Z
 -------------------------------------------------------------------
      1        6           0.006699746    0.012298956   -0.000000000
      2        6           0.010196040   -0.005470815    0.000000000
      3        6           0.063278501    0.049882783   -0.000000000
      4        6           0.017917047   -0.002937994   -0.000000000
      5        6          -0.000168101   -0.098754809   -0.000000000
      6        6          -0.010966942   -0.017873506    0.000000000
      7       17           0.018097873    0.006287533   -0.000000000
      8       17           0.017921644   -0.009306354    0.000000000
      9       17          -0.016854241    0.006637452   -0.000000000
     10        1          -0.003569075    0.122474926    0.000000000
     11        1          -0.102552493   -0.063238172    0.000000000
 -------------------------------------------------------------------
 Cartesian Forces:  Max     0.122474926 RMS     0.038129101

 GradGradGradGradGradGradGradGradGradGradGradGradGradGradGradGradGradGrad
 Berny optimization.
 Using GEDIIS/GDIIS optimizer.
 FormGI is forming the generalized inverse of G from B-inverse, IUseBI=4.
 Internal  Forces:  Max     0.122526720 RMS     0.026481530
 Search for a local minimum.
 Step number   2 out of a maximum of   57
 All quantities printed in internal units (Hartrees-Bohrs-Radians)
 Mixed Optimization -- RFO/linear search
 Update second derivatives using D2CorX and points    1    2
 DE= -5.50D-02 DEPred=-5.17D-02 R= 1.06D+00
 TightC=F SS=  1.41D+00  RLast= 3.00D-01 DXNew= 5.0454D-01 9.0000D-01
 Trust test= 1.06D+00 RLast= 3.00D-01 DXMaxT set to 5.05D-01
 ITU=  1  0
 Use linear search instead of GDIIS.
 Linear search step of   0.600 exceeds DXMaxT=   0.505 but not scaled.
 Quartic linear search produced a step of  2.00000.
 Iteration  1 RMS(Cart)=  0.06053560 RMS(Int)=  0.04363643
 Iteration  2 RMS(Cart)=  0.04022386 RMS(Int)=  0.00247801
 Iteration  3 RMS(Cart)=  0.00240905 RMS(Int)=  0.00008344
 Iteration  4 RMS(Cart)=  0.00000002 RMS(Int)=  0.00008344
 ClnCor:  largest displacement from symmetrization is 8.82D-09 for atom     9.
 Variable       Old X    -DE/DX   Delta X   Delta X   Delta X     New X
                                 (Linear)    (Quad)   (Total)
    R1        2.63724  -0.01561  -0.03905   0.00000  -0.03911   2.59812
    R2        2.65307  -0.00013  -0.00739   0.00000  -0.00753   2.64554
    R3        3.31274  -0.02019  -0.04722   0.00000  -0.04722   3.26552
    R4        2.62738  -0.02459  -0.05878   0.00000  -0.05869   2.56869
    R5        2.63633  -0.01545  -0.04088   0.00000  -0.04074   2.59559
    R6        3.13234  -0.12048  -0.40799   0.00000  -0.40799   2.72436
    R7        2.63427  -0.01615  -0.04501   0.00000  -0.04495   2.58933
    R8        3.31634  -0.01798  -0.03999   0.00000  -0.03999   3.27635
    R9        2.63276  -0.01886  -0.04799   0.00000  -0.04807   2.58469
   R10        3.12885  -0.12253  -0.41494   0.00000  -0.41494   2.71392
   R11        3.31568  -0.01868  -0.04130   0.00000  -0.04130   3.27439
    A1        2.10104   0.00428   0.01329   0.00000   0.01309   2.11413
    A2        2.08963  -0.00278  -0.00953   0.00000  -0.00943   2.08019
    A3        2.09252  -0.00150  -0.00376   0.00000  -0.00366   2.08886
    A4        2.07987  -0.00931  -0.02906   0.00000  -0.02902   2.05084
    A5        2.11283   0.01335   0.03686   0.00000   0.03707   2.14990
    A6        2.08651  -0.00568  -0.01578   0.00000  -0.01589   2.07062
    A7        2.08385  -0.00767  -0.02108   0.00000  -0.02119   2.06267
    A8        2.08538  -0.00651  -0.01802   0.00000  -0.01782   2.06756
    A9        2.10326   0.00694   0.01772   0.00000   0.01762   2.12088
   A10        2.09455  -0.00043   0.00030   0.00000   0.00020   2.09475
   A11        2.09935   0.00393   0.00991   0.00000   0.00988   2.10923
   A12        2.09227  -0.00162  -0.00424   0.00000  -0.00423   2.08804
   A13        2.09157  -0.00231  -0.00567   0.00000  -0.00566   2.08591
   A14        2.08791  -0.00573  -0.01298   0.00000  -0.01321   2.07470
   A15        2.10622   0.00994   0.02366   0.00000   0.02378   2.13000
   A16        2.08905  -0.00421  -0.01068   0.00000  -0.01057   2.07848
    D1        0.00000   0.00000   0.00000   0.00000  -0.00000   0.00000
    D2        3.14159  -0.00000   0.00000   0.00000   0.00000   3.14159
    D3       -0.00000  -0.00000   0.00000   0.00000   0.00000   0.00000
    D4        3.14159  -0.00000   0.00000   0.00000   0.00000   3.14159
    D5        3.14159   0.00000   0.00000   0.00000   0.00000   3.14159
    D6       -0.00000   0.00000   0.00000   0.00000   0.00000   0.00000
    D7       -0.00000   0.00000   0.00000   0.00000   0.00000   0.00000
    D8        3.14159   0.00000   0.00000   0.00000   0.00000   3.14159
    D9        0.00000  -0.00000   0.00000   0.00000   0.00000   0.00000
   D10        3.14159   0.00000   0.00000   0.00000   0.00000   3.14159
   D11        3.14159  -0.00000   0.00000   0.00000   0.00000   3.14159
   D12        0.00000  -0.00000   0.00000   0.00000   0.00000   0.00000
   D13       -0.00000   0.00000   0.00000   0.00000   0.00000   0.00000
   D14        3.14159   0.00000   0.00000   0.00000   0.00000   3.14159
   D15        3.14159  -0.00000   0.00000   0.00000   0.00000   3.14159
   D16        0.00000   0.00000   0.00000   0.00000  -0.00000   0.00000
   D17        0.00000   0.00000   0.00000   0.00000  -0.00000   0.00000
   D18        3.14159   0.00000   0.00000   0.00000   0.00000   3.14159
   D19        3.14159  -0.00000   0.00000   0.00000   0.00000   3.14159
   D20        0.00000  -0.00000   0.00000   0.00000   0.00000   0.00000
         Item               Value     Threshold  Converged?
 Maximum Force            0.122527     0.000450     NO 
 RMS     Force            0.026482     0.000300     NO 
 Maximum Displacement     0.438883     0.001800     NO 
 RMS     Displacement     0.100040     0.001200     NO 
 Predicted change in Energy=-1.062604D-01
 GradGradGradGradGradGradGradGradGradGradGradGradGradGradGradGradGradGrad

                          Input orientation:                          
 ---------------------------------------------------------------------
 Center     Atomic      Atomic             Coordinates (Angstroms)
 Number     Number       Type             X           Y           Z
 ---------------------------------------------------------------------
      1          6           0       -3.144643    0.185213    0.000000
      2          6           0       -1.979199    0.914594    0.000000
      3          6           0       -0.807458    0.225613   -0.000000
      4          6           0       -0.742161   -1.146361   -0.000000
      5          6           0       -1.914350   -1.855907   -0.000000
      6          6           0       -3.122429   -1.214571    0.000000
      7         17           0       -4.576455   -2.156996    0.000000
      8         17           0       -4.659319    1.017006    0.000000
      9         17           0        0.777264   -1.981413   -0.000000
     10          1           0       -1.875468   -3.291524   -0.000000
     11          1           0        0.429497    0.966116   -0.000000
 ---------------------------------------------------------------------
                    Distance matrix (angstroms):
                    1          2          3          4          5
     1  C    0.000000
     2  C    1.374867   0.000000
     3  C    2.337535   1.359291   0.000000
     4  C    2.746818   2.403705   1.373527   0.000000
     5  C    2.383231   2.771260   2.357527   1.370212   0.000000
     6  C    1.399960   2.416675   2.726394   2.381245   1.367760
     7  Cl   2.745182   4.022487   4.458942   3.965248   2.679078
     8  Cl   1.728040   2.682076   3.932320   4.474850   3.973473
     9  Cl   4.480583   3.998118   2.717040   1.733772   2.694538
    10  H    3.701149   4.207397   3.675717   2.426130   1.436143
    11  H    3.658455   2.409247   1.441667   2.415645   3.668437
                    6          7          8          9         10
     6  C    0.000000
     7  Cl   1.732731   0.000000
     8  Cl   2.709607   3.175084   0.000000
     9  Cl   3.974374   5.356597   6.208619   0.000000
    10  H    2.422528   2.929587   5.129645   2.958610   0.000000
    11  H    4.167922   5.900287   5.089071   2.967974   4.841524
                   11
    11  H    0.000000
 Stoichiometry    C6H2Cl3(1-)
 Framework group  CS[SG(C6H2Cl3)]
 Deg. of freedom    19
 Full point group                 CS      NOp   2
 Largest Abelian subgroup         CS      NOp   2
 Largest concise Abelian subgroup C1      NOp   1
                         Standard orientation:                         
 ---------------------------------------------------------------------
 Center     Atomic      Atomic             Coordinates (Angstroms)
 Number     Number       Type             X           Y           Z
 ---------------------------------------------------------------------
      1          6           0        1.228775   -0.134986   -0.000000
      2          6           0        1.288735    1.238572   -0.000000
      3          6           0        0.111603    1.918303    0.000000
      4          6           0       -1.114219    1.298676    0.000000
      5          6           0       -1.153596   -0.070970    0.000000
      6          6           0        0.000000   -0.805806   -0.000000
      7         17           0       -0.103028   -2.535471   -0.000000
      8         17           0        2.699235   -1.042660   -0.000000
      9         17           0       -2.589855    2.208876    0.000000
     10          1           0       -2.421764   -0.744956    0.000000
     11          1           0        0.145981    3.359559    0.000000
 ---------------------------------------------------------------------
 Rotational constants (GHZ):           1.8967638           0.6056908           0.4590902
 Standard basis: VSTO-6G (5D, 7F)
 There are    29 symmetry adapted cartesian basis functions of A'  symmetry.
 There are     9 symmetry adapted cartesian basis functions of A"  symmetry.
 There are    29 symmetry adapted basis functions of A'  symmetry.
 There are     9 symmetry adapted basis functions of A"  symmetry.
    38 basis functions,   228 primitive gaussians,    38 cartesian basis functions
    24 alpha electrons       24 beta electrons
       nuclear repulsion energy       243.2487632283 Hartrees.
 Integral buffers will be    131072 words long.
 Regular integral format.
 Two-electron integral symmetry is turned off.
 Do NDO integrals.
 One-electron integrals computed using PRISM.
 NBasis=    38 RedAO= T EigKep=  1.00D+00  NBF=    29     9
 NBsUse=    38 1.00D-06 EigRej= -1.00D+00 NBFU=    29     9
 Initial guess from the checkpoint file:  "geometry_chks/123_ClBzAnionIntermediate.chk"
 B after Tr=     0.000000   -0.000000    0.000000
         Rot=    0.999999    0.000000   -0.000000   -0.001105 Ang=  -0.13 deg.
 Initial guess orbital symmetries:
       Occupied  (A') (A') (A') (A') (A') (A') (A') (A') (A') (A')
                 (A') (A") (A') (A") (A") (A') (A') (A') (A') (A")
                 (A') (A") (A") (A')
       Virtual   (A') (A") (A') (A") (A') (A') (A') (A") (A') (A')
                 (A') (A') (A') (A')
 Keep J ints in memory in canonical form, NReq=863588.
 Overlap will be assumed to be unity.
 Requested convergence on RMS density matrix=1.00D-08 within**** cycles.
 Requested convergence on MAX density matrix=1.00D-06.
 Requested convergence on             energy=1.00D-06.
 No special actions if energy rises.
 Fock symm off for IB=2 I1=    1 I=   30 J=    6 Cut=1.00D-07 Err=2.56D-03
 Fock matrix is not symmetric: symmetry in diagonalization turned off.
 SCF Done:  E(RAM1) =  0.120467527388     A.U. after   14 cycles
            NFock= 13  Conv=0.23D-08     -V/T= 1.0011
 Calling FoFJK, ICntrl=      2127 FMM=F ISym2X=1 I1Cent= 0 IOpClX= 0 NMat=1 NMatS=1 NMatT=0.
 ***** Axes restored to original set *****
 -------------------------------------------------------------------
 Center     Atomic                   Forces (Hartrees/Bohr)
 Number     Number              X              Y              Z
 -------------------------------------------------------------------
      1        6          -0.018339865    0.008170653    0.000000000
      2        6          -0.006146912    0.018852895    0.000000000
      3        6           0.115823551    0.069066401   -0.000000000
      4        6           0.032893411   -0.010136724   -0.000000000
      5        6           0.002217814   -0.139474217   -0.000000000
      6        6          -0.031812970   -0.003545031   -0.000000000
      7       17           0.006343966    0.002364242   -0.000000000
      8       17           0.002993868   -0.002563729   -0.000000000
      9       17          -0.005767693    0.002019858    0.000000000
     10        1          -0.003301122    0.112517053    0.000000000
     11        1          -0.094904048   -0.057271401    0.000000000
 -------------------------------------------------------------------
 Cartesian Forces:  Max     0.139474217 RMS     0.044621445

 GradGradGradGradGradGradGradGradGradGradGradGradGradGradGradGradGradGrad
 Berny optimization.
 Using GEDIIS/GDIIS optimizer.
 FormGI is forming the generalized inverse of G from B-inverse, IUseBI=4.
 Internal  Forces:  Max     0.112565183 RMS     0.024554939
 Search for a local minimum.
 Step number   3 out of a maximum of   57
 All quantities printed in internal units (Hartrees-Bohrs-Radians)
 Mixed Optimization -- RFO/linear search
 Update second derivatives using D2CorX and points    2    3
 ITU=  0  1  0
 Use linear search instead of GDIIS.
 Linear search step of   0.778 exceeds DXMaxT=   0.505 but not scaled.
 Quartic linear search produced a step of  1.29599.
 Iteration  1 RMS(Cart)=  0.06810507 RMS(Int)=  0.06876520
 Iteration  2 RMS(Cart)=  0.04016778 RMS(Int)=  0.02751679
 Iteration  3 RMS(Cart)=  0.02684801 RMS(Int)=  0.00017111
 Iteration  4 RMS(Cart)=  0.00000853 RMS(Int)=  0.00017098
 Iteration  5 RMS(Cart)=  0.00000000 RMS(Int)=  0.00017098
 ClnCor:  largest displacement from symmetrization is 1.44D-08 for atom    11.
 Variable       Old X    -DE/DX   Delta X   Delta X   Delta X     New X
                                 (Linear)    (Quad)   (Total)
    R1        2.59812   0.01899  -0.05069   0.00000  -0.05083   2.54729
    R2        2.64554   0.01430  -0.00976   0.00000  -0.01006   2.63549
    R3        3.26552  -0.00386  -0.06119   0.00000  -0.06119   3.20433
    R4        2.56869   0.02504  -0.07606   0.00000  -0.07588   2.49281
    R5        2.59559   0.02201  -0.05280   0.00000  -0.05250   2.54309
    R6        2.72436  -0.11085  -0.52874   0.00000  -0.52874   2.19561
    R7        2.58933   0.02850  -0.05825   0.00000  -0.05813   2.53120
    R8        3.27635  -0.00603  -0.05182   0.00000  -0.05182   3.22453
    R9        2.58469   0.02725  -0.06229   0.00000  -0.06245   2.52224
   R10        2.71392  -0.11257  -0.53775   0.00000  -0.53775   2.17616
   R11        3.27439  -0.00661  -0.05352   0.00000  -0.05352   3.22087
    A1        2.11413   0.00064   0.01697   0.00000   0.01656   2.13069
    A2        2.08019   0.00100  -0.01223   0.00000  -0.01202   2.06817
    A3        2.08886  -0.00164  -0.00474   0.00000  -0.00454   2.08432
    A4        2.05084   0.00379  -0.03761   0.00000  -0.03756   2.01328
    A5        2.14990  -0.00220   0.04805   0.00000   0.04848   2.19838
    A6        2.07062   0.00163  -0.02059   0.00000  -0.02080   2.04981
    A7        2.06267   0.00057  -0.02746   0.00000  -0.02767   2.03499
    A8        2.06756  -0.00269  -0.02310   0.00000  -0.02268   2.04488
    A9        2.12088   0.00300   0.02283   0.00000   0.02263   2.14350
   A10        2.09475  -0.00031   0.00026   0.00000   0.00005   2.09480
   A11        2.10923   0.00055   0.01281   0.00000   0.01277   2.12201
   A12        2.08804   0.00007  -0.00548   0.00000  -0.00546   2.08258
   A13        2.08591  -0.00062  -0.00733   0.00000  -0.00731   2.07860
   A14        2.07470  -0.00010  -0.01711   0.00000  -0.01757   2.05713
   A15        2.13000   0.00245   0.03081   0.00000   0.03104   2.16104
   A16        2.07848  -0.00235  -0.01370   0.00000  -0.01347   2.06501
    D1       -0.00000   0.00000   0.00000   0.00000   0.00000   0.00000
    D2        3.14159   0.00000   0.00000   0.00000   0.00000   3.14159
    D3        0.00000   0.00000   0.00000   0.00000   0.00000   0.00000
    D4        3.14159  -0.00000   0.00000   0.00000   0.00000   3.14159
    D5        3.14159   0.00000   0.00000   0.00000   0.00000   3.14159
    D6       -0.00000   0.00000   0.00000   0.00000   0.00000   0.00000
    D7        0.00000  -0.00000   0.00000   0.00000  -0.00000   0.00000
    D8        3.14159   0.00000   0.00000   0.00000   0.00000   3.14159
    D9       -0.00000  -0.00000   0.00000   0.00000   0.00000   0.00000
   D10        3.14159   0.00000   0.00000   0.00000   0.00000   3.14159
   D11        3.14159  -0.00000   0.00000   0.00000   0.00000   3.14159
   D12        0.00000  -0.00000   0.00000   0.00000  -0.00000   0.00000
   D13        0.00000   0.00000   0.00000   0.00000  -0.00000   0.00000
   D14        3.14159   0.00000   0.00000   0.00000   0.00000   3.14159
   D15        3.14159  -0.00000   0.00000   0.00000   0.00000   3.14159
   D16       -0.00000   0.00000   0.00000   0.00000   0.00000   0.00000
   D17       -0.00000  -0.00000   0.00000   0.00000   0.00000   0.00000
   D18        3.14159  -0.00000   0.00000   0.00000   0.00000   3.14159
   D19        3.14159  -0.00000   0.00000   0.00000   0.00000   3.14159
   D20        0.00000  -0.00000   0.00000   0.00000  -0.00000   0.00000
         Item               Value     Threshold  Converged?
 Maximum Force            0.112565     0.000450     NO 
 RMS     Force            0.024555     0.000300     NO 
 Maximum Displacement     0.567725     0.001800     NO 
 RMS     Displacement     0.129489     0.001200     NO 
 Predicted change in Energy=-9.423306D-02
 GradGradGradGradGradGradGradGradGradGradGradGradGradGradGradGradGradGrad

                          Input orientation:                          
 ---------------------------------------------------------------------
 Center     Atomic      Atomic             Coordinates (Angstroms)
 Number     Number       Type             X           Y           Z
 ---------------------------------------------------------------------
      1          6           0       -3.088208    0.172236    0.000000
      2          6           0       -1.949877    0.894197    0.000000
      3          6           0       -0.834410    0.190027   -0.000000
      4          6           0       -0.747692   -1.152922   -0.000000
      5          6           0       -1.897541   -1.839933   -0.000000
      6          6           0       -3.080793   -1.222383    0.000000
      7         17           0       -4.491759   -2.178512    0.000000
      8         17           0       -4.569563    0.997369    0.000000
      9         17           0        0.742991   -1.983277   -0.000000
     10          1           0       -1.866701   -2.991096   -0.000000
     11          1           0        0.168833    0.776064   -0.000000
 ---------------------------------------------------------------------
                    Distance matrix (angstroms):
                    1          2          3          4          5
     1  C    0.000000
     2  C    1.347970   0.000000
     3  C    2.253868   1.319137   0.000000
     4  C    2.689620   2.374014   1.345746   0.000000
     5  C    2.338057   2.734630   2.291503   1.339454   0.000000
     6  C    1.394639   2.399767   2.653515   2.334134   1.334710
     7  Cl   2.737878   3.987819   4.357314   3.881993   2.616219
     8  Cl   1.695658   2.621716   3.821409   4.385253   3.897432
     9  Cl   4.395944   3.940989   2.685413   1.706349   2.644420
    10  H    3.390981   3.886183   3.344424   2.151991   1.151577
    11  H    3.312541   2.122002   1.161867   2.135651   3.333668
                    6          7          8          9         10
     6  C    0.000000
     7  Cl   1.704408   0.000000
     8  Cl   2.672777   3.176834   0.000000
     9  Cl   3.898754   5.238389   6.091591   0.000000
    10  H    2.145312   2.747949   4.818020   2.797533   0.000000
    11  H    3.814952   5.518210   4.743561   2.818443   4.281927
                   11
    11  H    0.000000
 Stoichiometry    C6H2Cl3(1-)
 Framework group  CS[SG(C6H2Cl3)]
 Deg. of freedom    19
 Full point group                 CS      NOp   2
 Largest Abelian subgroup         CS      NOp   2
 Largest concise Abelian subgroup C1      NOp   1
                         Standard orientation:                         
 ---------------------------------------------------------------------
 Center     Atomic      Atomic             Coordinates (Angstroms)
 Number     Number       Type             X           Y           Z
 ---------------------------------------------------------------------
      1          6           0        1.215454   -0.111263    0.000000
      2          6           0        1.279302    1.235194    0.000000
      3          6           0        0.115306    1.855866   -0.000000
      4          6           0       -1.094505    1.266469   -0.000000
      5          6           0       -1.122285   -0.072697   -0.000000
      6          6           0        0.000000   -0.795142    0.000000
      7         17           0       -0.132366   -2.494403    0.000000
      8         17           0        2.665666   -0.989979    0.000000
      9         17           0       -2.553873    2.150705   -0.000000
     10          1           0       -2.137796   -0.615714   -0.000000
     11          1           0        0.127917    3.017665   -0.000000
 ---------------------------------------------------------------------
 Rotational constants (GHZ):           1.9306386           0.6342707           0.4774233
 Standard basis: VSTO-6G (5D, 7F)
 There are    29 symmetry adapted cartesian basis functions of A'  symmetry.
 There are     9 symmetry adapted cartesian basis functions of A"  symmetry.
 There are    29 symmetry adapted basis functions of A'  symmetry.
 There are     9 symmetry adapted basis functions of A"  symmetry.
    38 basis functions,   228 primitive gaussians,    38 cartesian basis functions
    24 alpha electrons       24 beta electrons
       nuclear repulsion energy       247.0489678814 Hartrees.
 Integral buffers will be    131072 words long.
 Regular integral format.
 Two-electron integral symmetry is turned off.
 Do NDO integrals.
 One-electron integrals computed using PRISM.
 NBasis=    38 RedAO= T EigKep=  1.00D+00  NBF=    29     9
 NBsUse=    38 1.00D-06 EigRej= -1.00D+00 NBFU=    29     9
 Initial guess from the checkpoint file:  "geometry_chks/123_ClBzAnionIntermediate.chk"
 B after Tr=    -0.000000    0.000000   -0.000000
         Rot=    0.999999    0.000000   -0.000000   -0.001697 Ang=  -0.19 deg.
 Initial guess orbital symmetries:
       Occupied  (A') (A') (A') (A') (A') (A') (A') (A') (A') (A')
                 (A') (A") (A') (A") (A') (A") (A') (A') (A') (A")
                 (A') (A") (A") (A')
       Virtual   (A") (A') (A") (A') (A') (A') (A') (A") (A') (A')
                 (A') (A') (A') (A')
 Keep J ints in memory in canonical form, NReq=863588.
 Overlap will be assumed to be unity.
 Requested convergence on RMS density matrix=1.00D-08 within**** cycles.
 Requested convergence on MAX density matrix=1.00D-06.
 Requested convergence on             energy=1.00D-06.
 No special actions if energy rises.
 Fock symm off for IB=2 I1=    1 I=   30 J=    1 Cut=1.00D-07 Err=5.89D-03
 Fock matrix is not symmetric: symmetry in diagonalization turned off.
 SCF Done:  E(RAM1) =  0.566119847377E-01 A.U. after   14 cycles
            NFock= 13  Conv=0.45D-08     -V/T= 1.0005
 Calling FoFJK, ICntrl=      2127 FMM=F ISym2X=1 I1Cent= 0 IOpClX= 0 NMat=1 NMatS=1 NMatT=0.
 ***** Axes restored to original set *****
 -------------------------------------------------------------------
 Center     Atomic                   Forces (Hartrees/Bohr)
 Number     Number              X              Y              Z
 -------------------------------------------------------------------
      1        6          -0.055298627    0.001952264   -0.000000000
      2        6          -0.036159337    0.059581816   -0.000000000
      3        6           0.140119116    0.063780899   -0.000000000
      4        6           0.059164404   -0.022395219    0.000000000
      5        6           0.004533732   -0.135431012    0.000000000
      6        6          -0.068444760    0.022281064   -0.000000000
      7       17          -0.011324682   -0.003914226    0.000000000
      8       17          -0.019070009    0.007629277    0.000000000
      9       17           0.010935887   -0.005135739   -0.000000000
     10        1          -0.000727247    0.025019980    0.000000000
     11        1          -0.023728478   -0.013369104    0.000000000
 -------------------------------------------------------------------
 Cartesian Forces:  Max     0.140119116 RMS     0.043080453

 GradGradGradGradGradGradGradGradGradGradGradGradGradGradGradGradGradGrad
 Berny optimization.
 Using GEDIIS/GDIIS optimizer.
 FormGI is forming the generalized inverse of G from B-inverse, IUseBI=4.
 Internal  Forces:  Max     0.104484233 RMS     0.032252695
 Search for a local minimum.
 Step number   4 out of a maximum of   57
 All quantities printed in internal units (Hartrees-Bohrs-Radians)
 Mixed Optimization -- RFO/linear search
 Update second derivatives using D2CorX and points    3    4
 ITU=  0  0  1  0
 Use linear search instead of GDIIS.
     Eigenvalues ---    0.02011   0.02011   0.02011   0.02011   0.02011
     Eigenvalues ---    0.02011   0.02011   0.02011   0.06522   0.11634
     Eigenvalues ---    0.16000   0.16001   0.23338   0.23739   0.24933
     Eigenvalues ---    0.25000   0.25000   0.25085   0.28456   0.29033
     Eigenvalues ---    0.29043   0.40783   0.41366   0.44618   0.44656
     Eigenvalues ---    0.44657   0.60034
 RFO step:  Lambda=-9.44613025D-02 EMin= 2.01065850D-02
 Quartic linear search produced a step of -0.03669.
 Maximum step size (   0.505) exceeded in Quadratic search.
    -- Step size scaled by   0.981
 Iteration  1 RMS(Cart)=  0.07137960 RMS(Int)=  0.00531832
 Iteration  2 RMS(Cart)=  0.00491088 RMS(Int)=  0.00038246
 Iteration  3 RMS(Cart)=  0.00001190 RMS(Int)=  0.00038234
 Iteration  4 RMS(Cart)=  0.00000000 RMS(Int)=  0.00038234
 ClnCor:  largest displacement from symmetrization is 2.43D-10 for atom    10.
 Variable       Old X    -DE/DX   Delta X   Delta X   Delta X     New X
                                 (Linear)    (Quad)   (Total)
    R1        2.54729   0.07037   0.00186   0.11327   0.11477   2.66206
    R2        2.63549   0.03613   0.00037   0.05633   0.05607   2.69156
    R3        3.20433   0.02037   0.00225   0.04623   0.04848   3.25281
    R4        2.49281   0.10448   0.00278   0.17085   0.17391   2.66672
    R5        2.54309   0.08243   0.00193   0.13663   0.13918   2.68228
    R6        2.19561  -0.02723   0.01940  -0.24836  -0.22896   1.96665
    R7        2.53120   0.10065   0.00213   0.16560   0.16809   2.69929
    R8        3.22453   0.01205   0.00190   0.02713   0.02903   3.25356
    R9        2.52224   0.10287   0.00229   0.16644   0.16846   2.69070
   R10        2.17616  -0.02503   0.01973  -0.23923  -0.21950   1.95666
   R11        3.22087   0.01157   0.00196   0.02603   0.02799   3.24886
    A1        2.13069  -0.00302  -0.00061  -0.01502  -0.01663   2.11406
    A2        2.06817   0.00570   0.00044   0.01820   0.01914   2.08732
    A3        2.08432  -0.00268   0.00017  -0.00318  -0.00251   2.08181
    A4        2.01328   0.02502   0.00138   0.06169   0.06294   2.07623
    A5        2.19838  -0.02824  -0.00178  -0.06902  -0.06988   2.12850
    A6        2.04981   0.01365   0.00076   0.03319   0.03350   2.08331
    A7        2.03499   0.01458   0.00102   0.03582   0.03638   2.07137
    A8        2.04488   0.00287   0.00083   0.01656   0.01843   2.06331
    A9        2.14350  -0.00278  -0.00083  -0.01156  -0.01291   2.13059
   A10        2.09480  -0.00009  -0.00000  -0.00500  -0.00552   2.08929
   A11        2.12201  -0.00651  -0.00047  -0.01367  -0.01404   2.10797
   A12        2.08258   0.00332   0.00020   0.00721   0.00736   2.08994
   A13        2.07860   0.00319   0.00027   0.00646   0.00668   2.08528
   A14        2.05713   0.00988   0.00064   0.01946   0.01918   2.07632
   A15        2.16104  -0.00995  -0.00114  -0.02207  -0.02275   2.13829
   A16        2.06501   0.00007   0.00049   0.00261   0.00357   2.06858
    D1        0.00000   0.00000   0.00000   0.00000   0.00000   0.00000
    D2        3.14159  -0.00000   0.00000  -0.00000   0.00000   3.14159
    D3       -0.00000  -0.00000   0.00000  -0.00000   0.00000   0.00000
    D4        3.14159  -0.00000   0.00000  -0.00000   0.00000   3.14159
    D5        3.14159   0.00000   0.00000   0.00000   0.00000   3.14159
    D6        0.00000   0.00000   0.00000   0.00000   0.00000   0.00000
    D7       -0.00000  -0.00000   0.00000  -0.00000   0.00000   0.00000
    D8        3.14159   0.00000   0.00000   0.00000   0.00000   3.14159
    D9        0.00000  -0.00000   0.00000  -0.00000  -0.00000   0.00000
   D10        3.14159  -0.00000   0.00000  -0.00000   0.00000   3.14159
   D11        3.14159  -0.00000   0.00000  -0.00000   0.00000   3.14159
   D12       -0.00000  -0.00000   0.00000  -0.00000   0.00000   0.00000
   D13        0.00000   0.00000   0.00000   0.00000  -0.00000   0.00000
   D14        3.14159   0.00000   0.00000   0.00000   0.00000   3.14159
   D15        3.14159   0.00000   0.00000   0.00000   0.00000   3.14159
   D16       -0.00000   0.00000   0.00000   0.00000   0.00000   0.00000
   D17       -0.00000  -0.00000   0.00000  -0.00000   0.00000   0.00000
   D18        3.14159   0.00000   0.00000   0.00000   0.00000   3.14159
   D19        3.14159  -0.00000   0.00000  -0.00000   0.00000   3.14159
   D20        0.00000  -0.00000   0.00000  -0.00000  -0.00000   0.00000
         Item               Value     Threshold  Converged?
 Maximum Force            0.104484     0.000450     NO 
 RMS     Force            0.032253     0.000300     NO 
 Maximum Displacement     0.208655     0.001800     NO 
 RMS     Displacement     0.071517     0.001200     NO 
 Predicted change in Energy=-5.854825D-02
 GradGradGradGradGradGradGradGradGradGradGradGradGradGradGradGradGradGrad

                          Input orientation:                          
 ---------------------------------------------------------------------
 Center     Atomic      Atomic             Coordinates (Angstroms)
 Number     Number       Type             X           Y           Z
 ---------------------------------------------------------------------
      1          6           0       -3.152667    0.187667    0.000000
      2          6           0       -1.954257    0.928112    0.000000
      3          6           0       -0.723994    0.236847   -0.000000
      4          6           0       -0.659031   -1.181065   -0.000000
      5          6           0       -1.885435   -1.913366   -0.000000
      6          6           0       -3.138159   -1.236572    0.000000
      7         17           0       -4.578404   -2.175409    0.000000
      8         17           0       -4.662573    1.014163    0.000000
      9         17           0        0.840198   -2.027587   -0.000000
     10          1           0       -1.865608   -2.948598   -0.000000
     11          1           0        0.165209    0.777579   -0.000000
 ---------------------------------------------------------------------
                    Distance matrix (angstroms):
                    1          2          3          4          5
     1  C    0.000000
     2  C    1.408703   0.000000
     3  C    2.429170   1.411167   0.000000
     4  C    2.844582   2.475123   1.419399   0.000000
     5  C    2.453613   2.842311   2.443841   1.428402   0.000000
     6  C    1.424313   2.467282   2.828277   2.479749   1.423857
     7  Cl   2.759865   4.064233   4.547027   4.043539   2.705689
     8  Cl   1.721311   2.709683   4.014551   4.565893   4.035211
     9  Cl   4.566215   4.067571   2.752155   1.721711   2.728025
    10  H    3.390085   3.877723   3.383835   2.140094   1.035422
    11  H    3.369911   2.124805   1.040709   2.125008   3.383242
                    6          7          8          9         10
     6  C    0.000000
     7  Cl   1.719222   0.000000
     8  Cl   2.718391   3.190683   0.000000
     9  Cl   4.056233   5.420619   6.287506   0.000000
    10  H    2.133171   2.820831   4.850411   2.858260   0.000000
    11  H    3.868985   5.587666   4.833576   2.885232   4.243656
                   11
    11  H    0.000000
 Stoichiometry    C6H2Cl3(1-)
 Framework group  CS[SG(C6H2Cl3)]
 Deg. of freedom    19
 Full point group                 CS      NOp   2
 Largest Abelian subgroup         CS      NOp   2
 Largest concise Abelian subgroup C1      NOp   1
                         Standard orientation:                         
 ---------------------------------------------------------------------
 Center     Atomic      Atomic             Coordinates (Angstroms)
 Number     Number       Type             X           Y           Z
 ---------------------------------------------------------------------
      1          6           0        1.257544   -0.171944   -0.000000
      2          6           0        1.334270    1.234668   -0.000000
      3          6           0        0.138593    1.984167   -0.000000
      4          6           0       -1.137538    1.362731    0.000000
      5          6           0       -1.193719   -0.064565    0.000000
      6          6           0        0.000000   -0.840712    0.000000
      7         17           0       -0.135211   -2.554609    0.000000
      8         17           0        2.705777   -1.102285   -0.000000
      9         17           0       -2.598246    2.274114    0.000000
     10          1           0       -2.112227   -0.542521    0.000000
     11          1           0        0.187912    3.023707   -0.000000
 ---------------------------------------------------------------------
 Rotational constants (GHZ):           1.8737620           0.5887457           0.4479862
 Standard basis: VSTO-6G (5D, 7F)
 There are    29 symmetry adapted cartesian basis functions of A'  symmetry.
 There are     9 symmetry adapted cartesian basis functions of A"  symmetry.
 There are    29 symmetry adapted basis functions of A'  symmetry.
 There are     9 symmetry adapted basis functions of A"  symmetry.
    38 basis functions,   228 primitive gaussians,    38 cartesian basis functions
    24 alpha electrons       24 beta electrons
       nuclear repulsion energy       242.5058291861 Hartrees.
 Integral buffers will be    131072 words long.
 Regular integral format.
 Two-electron integral symmetry is turned off.
 Do NDO integrals.
 One-electron integrals computed using PRISM.
 NBasis=    38 RedAO= T EigKep=  1.00D+00  NBF=    29     9
 NBsUse=    38 1.00D-06 EigRej= -1.00D+00 NBFU=    29     9
 Initial guess from the checkpoint file:  "geometry_chks/123_ClBzAnionIntermediate.chk"
 B after Tr=    -0.000000   -0.000000   -0.000000
         Rot=    0.999959    0.000000   -0.000000    0.009104 Ang=   1.04 deg.
 Initial guess orbital symmetries:
       Occupied  (A') (A') (A') (A') (A') (A') (A') (A') (A') (A')
                 (A') (A") (A') (A") (A') (A") (A') (A') (A') (A")
                 (A') (A") (A") (A')
       Virtual   (A") (A') (A") (A') (A') (A') (A") (A') (A') (A')
                 (A') (A') (A') (A')
 Keep J ints in memory in canonical form, NReq=863588.
 Overlap will be assumed to be unity.
 Requested convergence on RMS density matrix=1.00D-08 within**** cycles.
 Requested convergence on MAX density matrix=1.00D-06.
 Requested convergence on             energy=1.00D-06.
 No special actions if energy rises.
 Fock symm off for IB=2 I1=    1 I=   30 J=   20 Cut=1.00D-07 Err=1.30D-03
 Fock matrix is not symmetric: symmetry in diagonalization turned off.
 SCF Done:  E(RAM1) =  0.350231649593E-01 A.U. after   14 cycles
            NFock= 13  Conv=0.35D-08     -V/T= 1.0003
 Calling FoFJK, ICntrl=      2127 FMM=F ISym2X=1 I1Cent= 0 IOpClX= 0 NMat=1 NMatS=1 NMatT=0.
 ***** Axes restored to original set *****
 -------------------------------------------------------------------
 Center     Atomic                   Forces (Hartrees/Bohr)
 Number     Number              X              Y              Z
 -------------------------------------------------------------------
      1        6           0.022055301   -0.016699286   -0.000000000
      2        6          -0.002719149   -0.024489155    0.000000000
      3        6          -0.048079142   -0.036791828   -0.000000000
      4        6          -0.043584438    0.018137514    0.000000000
      5        6           0.001868992    0.062226320   -0.000000000
      6        6           0.029617073    0.019606609    0.000000000
      7       17           0.004359290    0.001346268    0.000000000
      8       17           0.004835656   -0.002070554    0.000000000
      9       17          -0.005817261    0.002355743    0.000000000
     10        1           0.000794809   -0.047756876    0.000000000
     11        1           0.036668869    0.024135244    0.000000000
 -------------------------------------------------------------------
 Cartesian Forces:  Max     0.062226320 RMS     0.022495637

 GradGradGradGradGradGradGradGradGradGradGradGradGradGradGradGradGradGrad
 Berny optimization.
 Using GEDIIS/GDIIS optimizer.
 FormGI is forming the generalized inverse of G from B-inverse, IUseBI=4.
 Internal  Forces:  Max     0.047763339 RMS     0.014896096
 Search for a local minimum.
 Step number   5 out of a maximum of   57
 All quantities printed in internal units (Hartrees-Bohrs-Radians)
 Mixed Optimization -- RFO/linear search
 Update second derivatives using D2CorX and points    4    5
 DE= -2.16D-02 DEPred=-5.85D-02 R= 3.69D-01
 Trust test= 3.69D-01 RLast= 4.91D-01 DXMaxT set to 5.05D-01
 ITU=  0  0  0  1  0
 Use linear search instead of GDIIS.
     Eigenvalues ---    0.02011   0.02011   0.02011   0.02011   0.02011
     Eigenvalues ---    0.02011   0.02011   0.02011   0.06522   0.15995
     Eigenvalues ---    0.16000   0.19327   0.23201   0.23487   0.24954
     Eigenvalues ---    0.25000   0.25000   0.25148   0.28634   0.29030
     Eigenvalues ---    0.29041   0.40962   0.41525   0.44477   0.44656
     Eigenvalues ---    0.44659   0.74414
 RFO step:  Lambda=-9.52147340D-03 EMin= 2.01065828D-02
 Quartic linear search produced a step of -0.34908.
 Iteration  1 RMS(Cart)=  0.04275134 RMS(Int)=  0.00154676
 Iteration  2 RMS(Cart)=  0.00137211 RMS(Int)=  0.00011248
 Iteration  3 RMS(Cart)=  0.00000039 RMS(Int)=  0.00011248
 ClnCor:  largest displacement from symmetrization is 4.88D-10 for atom     8.
 Variable       Old X    -DE/DX   Delta X   Delta X   Delta X     New X
                                 (Linear)    (Quad)   (Total)
    R1        2.66206  -0.02783  -0.04006   0.01365  -0.02633   2.63573
    R2        2.69156  -0.02932  -0.01957  -0.01707  -0.03646   2.65510
    R3        3.25281  -0.00524  -0.01692   0.01287  -0.00405   3.24875
    R4        2.66672  -0.02729  -0.06071   0.04069  -0.02013   2.64659
    R5        2.68228  -0.02712  -0.04859   0.02455  -0.02423   2.65805
    R6        1.96665   0.04387   0.07992   0.10054   0.18046   2.14712
    R7        2.69929  -0.03519  -0.05868   0.02546  -0.03331   2.66598
    R8        3.25356  -0.00622  -0.01013   0.00148  -0.00865   3.24491
    R9        2.69070  -0.03448  -0.05881   0.02628  -0.03242   2.65828
   R10        1.95666   0.04776   0.07662   0.13385   0.21048   2.16714
   R11        3.24886  -0.00439  -0.00977   0.00511  -0.00466   3.24420
    A1        2.11406   0.00430   0.00581   0.00239   0.00847   2.12253
    A2        2.08732  -0.00297  -0.00668   0.00178  -0.00504   2.08228
    A3        2.08181  -0.00133   0.00088  -0.00417  -0.00343   2.07838
    A4        2.07623  -0.00549  -0.02197   0.01694  -0.00506   2.07117
    A5        2.12850  -0.00586   0.02439  -0.04656  -0.02246   2.10604
    A6        2.08331   0.00138  -0.01169   0.01690   0.00536   2.08867
    A7        2.07137   0.00447  -0.01270   0.02966   0.01710   2.08848
    A8        2.06331   0.01336  -0.00643   0.04369   0.03698   2.10029
    A9        2.13059  -0.00537   0.00451  -0.02059  -0.01595   2.11464
   A10        2.08929  -0.00800   0.00193  -0.02309  -0.02103   2.06826
   A11        2.10797  -0.01070   0.00490  -0.03590  -0.03098   2.07699
   A12        2.08994   0.00547  -0.00257   0.01875   0.01617   2.10611
   A13        2.08528   0.00523  -0.00233   0.01715   0.01481   2.10009
   A14        2.07632   0.00439  -0.00670   0.01944   0.01304   2.08936
   A15        2.13829  -0.00016   0.00794  -0.01109  -0.00330   2.13499
   A16        2.06858  -0.00423  -0.00125  -0.00835  -0.00974   2.05884
    D1        0.00000   0.00000   0.00000   0.00000  -0.00000   0.00000
    D2        3.14159  -0.00000   0.00000  -0.00000   0.00000   3.14159
    D3       -0.00000  -0.00000   0.00000  -0.00000   0.00000   0.00000
    D4        3.14159  -0.00000   0.00000  -0.00000   0.00000   3.14159
    D5        3.14159   0.00000   0.00000   0.00000   0.00000   3.14159
    D6        0.00000   0.00000   0.00000   0.00000   0.00000   0.00000
    D7       -0.00000  -0.00000   0.00000  -0.00000   0.00000   0.00000
    D8        3.14159   0.00000   0.00000   0.00000   0.00000   3.14159
    D9        0.00000   0.00000   0.00000   0.00000  -0.00000   0.00000
   D10        3.14159   0.00000   0.00000   0.00000   0.00000   3.14159
   D11        3.14159  -0.00000   0.00000  -0.00000   0.00000   3.14159
   D12        0.00000  -0.00000   0.00000  -0.00000   0.00000   0.00000
   D13       -0.00000  -0.00000   0.00000  -0.00000   0.00000   0.00000
   D14        3.14159   0.00000   0.00000   0.00000   0.00000   3.14159
   D15        3.14159  -0.00000   0.00000  -0.00000   0.00000   3.14159
   D16        0.00000   0.00000   0.00000   0.00000  -0.00000   0.00000
   D17        0.00000   0.00000   0.00000   0.00000  -0.00000   0.00000
   D18        3.14159   0.00000   0.00000   0.00000   0.00000   3.14159
   D19        3.14159  -0.00000   0.00000  -0.00000   0.00000   3.14159
   D20       -0.00000  -0.00000   0.00000  -0.00000   0.00000   0.00000
         Item               Value     Threshold  Converged?
 Maximum Force            0.047763     0.000450     NO 
 RMS     Force            0.014896     0.000300     NO 
 Maximum Displacement     0.200752     0.001800     NO 
 RMS     Displacement     0.043656     0.001200     NO 
 Predicted change in Energy=-1.210622D-02
 GradGradGradGradGradGradGradGradGradGradGradGradGradGradGradGradGradGrad

                          Input orientation:                          
 ---------------------------------------------------------------------
 Center     Atomic      Atomic             Coordinates (Angstroms)
 Number     Number       Type             X           Y           Z
 ---------------------------------------------------------------------
      1          6           0       -3.140502    0.180220    0.000000
      2          6           0       -1.960885    0.924458    0.000000
      3          6           0       -0.736943    0.243714   -0.000000
      4          6           0       -0.698040   -1.162326   -0.000000
      5          6           0       -1.895458   -1.908303   -0.000000
      6          6           0       -3.124894   -1.224714    0.000000
      7         17           0       -4.565298   -2.158784    0.000000
      8         17           0       -4.652108    0.999109    0.000000
      9         17           0        0.795365   -2.009846   -0.000000
     10          1           0       -1.870415   -3.054832   -0.000000
     11          1           0        0.234456    0.833076   -0.000000
 ---------------------------------------------------------------------
                    Distance matrix (angstroms):
                    1          2          3          4          5
     1  C    0.000000
     2  C    1.394771   0.000000
     3  C    2.404397   1.400517   0.000000
     4  C    2.787122   2.439149   1.406578   0.000000
     5  C    2.431473   2.833517   2.444041   1.410777   0.000000
     6  C    1.405020   2.444147   2.803318   2.427656   1.406701
     7  Cl   2.738792   4.036006   4.519767   3.993571   2.681564
     8  Cl   1.719166   2.692258   3.987372   4.506268   4.006515
     9  Cl   4.504157   4.025798   2.725160   1.717133   2.692738
    10  H    3.475439   3.980318   3.487859   2.226217   1.146802
    11  H    3.437523   2.197242   1.136206   2.202539   3.471555
                    6          7          8          9         10
     6  C    0.000000
     7  Cl   1.716756   0.000000
     8  Cl   2.697734   3.159086   0.000000
     9  Cl   3.998107   5.362731   6.223244   0.000000
    10  H    2.218794   2.839946   4.916528   2.863281   0.000000
    11  H    3.939509   5.655870   4.889384   2.897727   4.421121
                   11
    11  H    0.000000
 Stoichiometry    C6H2Cl3(1-)
 Framework group  CS[SG(C6H2Cl3)]
 Deg. of freedom    19
 Full point group                 CS      NOp   2
 Largest Abelian subgroup         CS      NOp   2
 Largest concise Abelian subgroup C1      NOp   1
                         Standard orientation:                         
 ---------------------------------------------------------------------
 Center     Atomic      Atomic             Coordinates (Angstroms)
 Number     Number       Type             X           Y           Z
 ---------------------------------------------------------------------
      1          6           0        1.238279   -0.156529    0.000000
      2          6           0        1.321350    1.235766    0.000000
      3          6           0        0.134730    1.979661    0.000000
      4          6           0       -1.115753    1.335646    0.000000
      5          6           0       -1.191762   -0.073082    0.000000
      6          6           0        0.000000   -0.820417    0.000000
      7         17           0       -0.123598   -2.532718    0.000000
      8         17           0        2.684649   -1.085800    0.000000
      9         17           0       -2.578427    2.235163    0.000000
     10          1           0       -2.208223   -0.604084    0.000000
     11          1           0        0.182544    3.114860    0.000000
 ---------------------------------------------------------------------
 Rotational constants (GHZ):           1.8965335           0.6012439           0.4565175
 Standard basis: VSTO-6G (5D, 7F)
 There are    29 symmetry adapted cartesian basis functions of A'  symmetry.
 There are     9 symmetry adapted cartesian basis functions of A"  symmetry.
 There are    29 symmetry adapted basis functions of A'  symmetry.
 There are     9 symmetry adapted basis functions of A"  symmetry.
    38 basis functions,   228 primitive gaussians,    38 cartesian basis functions
    24 alpha electrons       24 beta electrons
       nuclear repulsion energy       243.2800985652 Hartrees.
 Integral buffers will be    131072 words long.
 Regular integral format.
 Two-electron integral symmetry is turned off.
 Do NDO integrals.
 One-electron integrals computed using PRISM.
 NBasis=    38 RedAO= T EigKep=  1.00D+00  NBF=    29     9
 NBsUse=    38 1.00D-06 EigRej= -1.00D+00 NBFU=    29     9
 Initial guess from the checkpoint file:  "geometry_chks/123_ClBzAnionIntermediate.chk"
 B after Tr=     0.000000   -0.000000    0.000000
         Rot=    0.999998   -0.000000    0.000000   -0.001983 Ang=  -0.23 deg.
 Initial guess orbital symmetries:
       Occupied  (A') (A') (A') (A') (A') (A') (A') (A') (A') (A')
[...]
 Fock matrix is not symmetric: symmetry in diagonalization turned off.
 SCF Done:  E(RAM1) =  0.247205797261E-01 A.U. after   10 cycles
            NFock=  9  Conv=0.22D-08     -V/T= 1.0002
 Calling FoFJK, ICntrl=      2127 FMM=F ISym2X=1 I1Cent= 0 IOpClX= 0 NMat=1 NMatS=1 NMatT=0.
 ***** Axes restored to original set *****
 -------------------------------------------------------------------
 Center     Atomic                   Forces (Hartrees/Bohr)
 Number     Number              X              Y              Z
 -------------------------------------------------------------------
      1        6           0.000030930   -0.000022016   -0.000000000
      2        6          -0.000001460   -0.000004876    0.000000000
      3        6          -0.000036002    0.000020319   -0.000000000
      4        6          -0.000009270   -0.000003646   -0.000000000
      5        6           0.000025146   -0.000002983   -0.000000000
      6        6          -0.000063251    0.000014924    0.000000000
      7       17           0.000009267    0.000007778    0.000000000
      8       17           0.000007886   -0.000004998    0.000000000
      9       17           0.000040332   -0.000015034    0.000000000
     10        1          -0.000013847    0.000005105    0.000000000
     11        1           0.000010268    0.000005427    0.000000000
 -------------------------------------------------------------------
 Cartesian Forces:  Max     0.000063251 RMS     0.000017905

 GradGradGradGradGradGradGradGradGradGradGradGradGradGradGradGradGradGrad
 Berny optimization.
 Using GEDIIS/GDIIS optimizer.
 FormGI is forming the generalized inverse of G from B-inverse, IUseBI=4.
 Internal  Forces:  Max     0.000042507 RMS     0.000012286
 Search for a local minimum.
 Step number  11 out of a maximum of   57
 All quantities printed in internal units (Hartrees-Bohrs-Radians)
 Mixed Optimization -- En-DIIS/RFO-DIIS
 Swapping is turned off.
 Update second derivatives using D2CorX and points    4    5    6    8    7
                                                      9   10   11
 DE= -3.79D-07 DEPred=-3.91D-07 R= 9.69D-01
 Trust test= 9.69D-01 RLast= 1.26D-03 DXMaxT set to 4.24D-01
 ITU=  0  1  1 -1  1  1  0  0  0  1  0
     Eigenvalues ---    0.02011   0.02011   0.02011   0.02011   0.02011
     Eigenvalues ---    0.02011   0.02011   0.02011   0.15494   0.15875
     Eigenvalues ---    0.17307   0.23100   0.24641   0.24947   0.25018
     Eigenvalues ---    0.25665   0.28564   0.28910   0.29111   0.32448
     Eigenvalues ---    0.34348   0.43056   0.43714   0.44540   0.46689
     Eigenvalues ---    0.59637   0.77579
 En-DIIS/RFO-DIIS/Sim-DIIS IScMMF=       -3 using points:    11   10    9
 RFO step:  Lambda=-1.95223123D-08.
 DidBck=F Rises=F RFO-DIIS coefs:    0.94846    0.03719    0.01435
 Iteration  1 RMS(Cart)=  0.00005246 RMS(Int)=  0.00000000
 Iteration  2 RMS(Cart)=  0.00000000 RMS(Int)=  0.00000000
 ClnCor:  largest displacement from symmetrization is 5.33D-13 for atom     8.
 Variable       Old X    -DE/DX   Delta X   Delta X   Delta X     New X
                                 (Linear)    (Quad)   (Total)
    R1        2.62121  -0.00001  -0.00001  -0.00002  -0.00003   2.62118
    R2        2.64830  -0.00003   0.00001  -0.00004  -0.00004   2.64826
    R3        3.25021  -0.00001   0.00001  -0.00004  -0.00003   3.25019
    R4        2.62707  -0.00002  -0.00002  -0.00003  -0.00005   2.62702
    R5        2.63939   0.00002  -0.00001   0.00004   0.00003   2.63942
    R6        2.07518   0.00001  -0.00001   0.00005   0.00005   2.07523
    R7        2.64343   0.00002   0.00001   0.00002   0.00003   2.64346
    R8        3.26169   0.00004   0.00002   0.00011   0.00013   3.26182
    R9        2.64472   0.00003  -0.00001   0.00008   0.00007   2.64479
   R10        2.07275  -0.00001   0.00000  -0.00003  -0.00002   2.07272
   R11        3.24985  -0.00001   0.00003  -0.00007  -0.00004   3.24981
    A1        2.12470   0.00002  -0.00000   0.00007   0.00007   2.12476
    A2        2.07626  -0.00001  -0.00001  -0.00003  -0.00004   2.07622
    A3        2.08223  -0.00001   0.00001  -0.00004  -0.00003   2.08220
    A4        2.07029   0.00000  -0.00000  -0.00001  -0.00001   2.07028
    A5        2.09868   0.00001   0.00003  -0.00000   0.00002   2.09870
    A6        2.08854  -0.00000  -0.00002   0.00001  -0.00001   2.08853
    A7        2.09597  -0.00000  -0.00001  -0.00001  -0.00002   2.09595
    A8        2.11798  -0.00002  -0.00003  -0.00001  -0.00004   2.11794
    A9        2.10509  -0.00000   0.00001  -0.00004  -0.00002   2.10507
   A10        2.06011   0.00002   0.00001   0.00005   0.00006   2.06017
   A11        2.06551   0.00001   0.00001   0.00002   0.00003   2.06553
   A12        2.11211   0.00001  -0.00002   0.00009   0.00007   2.11218
   A13        2.10557  -0.00002   0.00001  -0.00011  -0.00010   2.10547
   A14        2.08922  -0.00002  -0.00000  -0.00006  -0.00007   2.08915
   A15        2.14099   0.00001   0.00000   0.00003   0.00003   2.14102
   A16        2.05298   0.00001   0.00000   0.00003   0.00003   2.05301
    D1        0.00000   0.00000   0.00000   0.00000   0.00000   0.00000
    D2        3.14159  -0.00000   0.00000  -0.00000   0.00000   3.14159
    D3        0.00000  -0.00000   0.00000  -0.00000   0.00000   0.00000
    D4        3.14159  -0.00000   0.00000  -0.00000   0.00000   3.14159
    D5        3.14159   0.00000   0.00000   0.00000   0.00000   3.14159
    D6        0.00000   0.00000   0.00000   0.00000   0.00000   0.00000
    D7        0.00000  -0.00000   0.00000  -0.00000   0.00000   0.00000
    D8        3.14159   0.00000   0.00000   0.00000   0.00000   3.14159
    D9       -0.00000   0.00000   0.00000   0.00000   0.00000   0.00000
   D10        3.14159   0.00000   0.00000   0.00000   0.00000   3.14159
   D11        3.14159  -0.00000   0.00000  -0.00000   0.00000   3.14159
   D12        0.00000  -0.00000   0.00000  -0.00000   0.00000   0.00000
   D13        0.00000  -0.00000   0.00000  -0.00000   0.00000   0.00000
   D14        3.14159   0.00000   0.00000   0.00000   0.00000   3.14159
   D15        3.14159  -0.00000   0.00000  -0.00000   0.00000   3.14159
   D16       -0.00000   0.00000   0.00000   0.00000   0.00000   0.00000
   D17       -0.00000   0.00000   0.00000   0.00000   0.00000   0.00000
   D18        3.14159   0.00000   0.00000   0.00000   0.00000   3.14159
   D19        3.14159  -0.00000   0.00000  -0.00000   0.00000   3.14159
   D20        0.00000  -0.00000   0.00000  -0.00000   0.00000   0.00000
         Item               Value     Threshold  Converged?
 Maximum Force            0.000043     0.000450     YES
 RMS     Force            0.000012     0.000300     YES
 Maximum Displacement     0.000235     0.001800     YES
 RMS     Displacement     0.000052     0.001200     YES
 Predicted change in Energy=-1.075239D-08
 Optimization completed.
    -- Stationary point found.
                           ----------------------------
                           !   Optimized Parameters   !
                           ! (Angstroms and Degrees)  !
 --------------------------                            --------------------------
 ! Name  Definition              Value          Derivative Info.                !
 --------------------------------------------------------------------------------
 ! R1    R(1,2)                  1.3871         -DE/DX =    0.0                 !
 ! R2    R(1,6)                  1.4014         -DE/DX =    0.0                 !
 ! R3    R(1,8)                  1.7199         -DE/DX =    0.0                 !
 ! R4    R(2,3)                  1.3902         -DE/DX =    0.0                 !
 ! R5    R(3,4)                  1.3967         -DE/DX =    0.0                 !
 ! R6    R(3,11)                 1.0981         -DE/DX =    0.0                 !
 ! R7    R(4,5)                  1.3988         -DE/DX =    0.0                 !
 ! R8    R(4,9)                  1.726          -DE/DX =    0.0                 !
 ! R9    R(5,6)                  1.3995         -DE/DX =    0.0                 !
 ! R10   R(5,10)                 1.0969         -DE/DX =    0.0                 !
 ! R11   R(6,7)                  1.7197         -DE/DX =    0.0                 !
 ! A1    A(2,1,6)              121.7361         -DE/DX =    0.0                 !
 ! A2    A(2,1,8)              118.961          -DE/DX =    0.0                 !
 ! A3    A(6,1,8)              119.3029         -DE/DX =    0.0                 !
 ! A4    A(1,2,3)              118.6189         -DE/DX =    0.0                 !
 ! A5    A(2,3,4)              120.2453         -DE/DX =    0.0                 !
 ! A6    A(2,3,11)             119.6646         -DE/DX =    0.0                 !
 ! A7    A(4,3,11)             120.0901         -DE/DX =    0.0                 !
 ! A8    A(3,4,5)              121.3514         -DE/DX =    0.0                 !
 ! A9    A(3,4,9)              120.6128         -DE/DX =    0.0                 !
 ! A10   A(5,4,9)              118.0357         -DE/DX =    0.0                 !
 ! A11   A(4,5,6)              118.3447         -DE/DX =    0.0                 !
 ! A12   A(4,5,10)             121.0149         -DE/DX =    0.0                 !
 ! A13   A(6,5,10)             120.6404         -DE/DX =    0.0                 !
 ! A14   A(1,6,5)              119.7035         -DE/DX =    0.0                 !
 ! A15   A(1,6,7)              122.6695         -DE/DX =    0.0                 !
 ! A16   A(5,6,7)              117.627          -DE/DX =    0.0                 !
 ! D1    D(6,1,2,3)              0.0            -DE/DX =    0.0                 !
 ! D2    D(8,1,2,3)            180.0            -DE/DX =    0.0                 !
 ! D3    D(2,1,6,5)              0.0            -DE/DX =    0.0                 !
 ! D4    D(2,1,6,7)            180.0            -DE/DX =    0.0                 !
 ! D5    D(8,1,6,5)            180.0            -DE/DX =    0.0                 !
 ! D6    D(8,1,6,7)              0.0            -DE/DX =    0.0                 !
 ! D7    D(1,2,3,4)              0.0            -DE/DX =    0.0                 !
 ! D8    D(1,2,3,11)           180.0            -DE/DX =    0.0                 !
 ! D9    D(2,3,4,5)              0.0            -DE/DX =    0.0                 !
 ! D10   D(2,3,4,9)            180.0            -DE/DX =    0.0                 !
 ! D11   D(11,3,4,5)           180.0            -DE/DX =    0.0                 !
 ! D12   D(11,3,4,9)             0.0            -DE/DX =    0.0                 !
 ! D13   D(3,4,5,6)              0.0            -DE/DX =    0.0                 !
 ! D14   D(3,4,5,10)           180.0            -DE/DX =    0.0                 !
 ! D15   D(9,4,5,6)            180.0            -DE/DX =    0.0                 !
 ! D16   D(9,4,5,10)             0.0            -DE/DX =    0.0                 !
 ! D17   D(4,5,6,1)              0.0            -DE/DX =    0.0                 !
 ! D18   D(4,5,6,7)            180.0            -DE/DX =    0.0                 !
 ! D19   D(10,5,6,1)           180.0            -DE/DX =    0.0                 !
 ! D20   D(10,5,6,7)             0.0            -DE/DX =    0.0                 !
 --------------------------------------------------------------------------------
 GradGradGradGradGradGradGradGradGradGradGradGradGradGradGradGradGradGrad

                          Input orientation:                          
 ---------------------------------------------------------------------
 Center     Atomic      Atomic             Coordinates (Angstroms)
 Number     Number       Type             X           Y           Z
 ---------------------------------------------------------------------
      1          6           0       -3.128061    0.174677    0.000000
      2          6           0       -1.954983    0.914878    0.000000
      3          6           0       -0.740627    0.238154   -0.000000
      4          6           0       -0.713432   -1.158284   -0.000000
      5          6           0       -1.893636   -1.909205   -0.000000
      6          6           0       -3.115455   -1.226685    0.000000
      7         17           0       -4.554729   -2.167975    0.000000
      8         17           0       -4.635435    1.002936    0.000000
      9         17           0        0.788853   -2.008138   -0.000000
     10          1           0       -1.865838   -3.005703   -0.000000
     11          1           0        0.198624    0.807116   -0.000000
 ---------------------------------------------------------------------
                    Distance matrix (angstroms):
                    1          2          3          4          5
     1  C    0.000000
     2  C    1.387087   0.000000
     3  C    2.388277   1.390184   0.000000
     4  C    2.758119   2.416495   1.396703   0.000000
     5  C    2.422059   2.824749   2.437331   1.398844   0.000000
     6  C    1.401418   2.435772   2.790262   2.402997   1.399527
     7  Cl   2.742881   4.032699   4.509637   3.971780   2.673644
     8  Cl   1.719939   2.681899   3.969184   4.478055   3.999753
     9  Cl   4.484072   4.009072   2.717562   1.726011   2.684313
    10  H    3.421699   3.921594   3.433469   2.177383   1.096851
    11  H    3.386268   2.156301   1.098139   2.166712   3.428695
                    6          7          8          9         10
     6  C    0.000000
     7  Cl   1.719749   0.000000
     8  Cl   2.698434   3.171938   0.000000
     9  Cl   3.981745   5.345972   6.203989   0.000000
    10  H    2.174040   2.816366   4.872356   2.835934   0.000000
    11  H    3.888376   5.607631   4.838024   2.876461   4.335849
                   11
    11  H    0.000000
 Stoichiometry    C6H2Cl3(1-)
 Framework group  CS[SG(C6H2Cl3)]
 Deg. of freedom    19
 Full point group                 CS      NOp   2
 Largest Abelian subgroup         CS      NOp   2
 Largest concise Abelian subgroup C1      NOp   1
                         Standard orientation:                         
 ---------------------------------------------------------------------
 Center     Atomic      Atomic             Coordinates (Angstroms)
 Number     Number       Type             X           Y           Z
 ---------------------------------------------------------------------
      1          6           0        1.231528   -0.147227    0.000000
      2          6           0        1.309702    1.237655    0.000000
      3          6           0        0.128830    1.971245   -0.000000
      4          6           0       -1.105471    1.317577   -0.000000
      5          6           0       -1.189562   -0.078737   -0.000000
      6          6           0        0.000000   -0.816041    0.000000
      7         17           0       -0.124877   -2.531250    0.000000
      8         17           0        2.687061   -1.063533    0.000000
      9         17           0       -2.577418    2.218956   -0.000000
     10          1           0       -2.161874   -0.586368   -0.000000
     11          1           0        0.170700    3.068586   -0.000000
 ---------------------------------------------------------------------
 Rotational constants (GHZ):           1.8932098           0.6063733           0.4592734

 **********************************************************************

            Population analysis using the SCF Density.

 **********************************************************************

 Orbital symmetries:
       Occupied  (A') (A') (A') (A') (A') (A') (A') (A') (A') (A')
                 (A') (A') (A") (A") (A') (A") (A') (A') (A') (A")
                 (A') (A") (A") (A')
       Virtual   (A") (A") (A') (A') (A') (A") (A') (A') (A') (A')
                 (A') (A') (A') (A')
 The electronic state is 1-A'.
 Alpha  occ. eigenvalues --   -1.28764  -1.24060  -1.21779  -1.19458  -0.97297
 Alpha  occ. eigenvalues --   -0.95632  -0.69363  -0.67511  -0.50541  -0.45486
 Alpha  occ. eigenvalues --   -0.44258  -0.40504  -0.39154  -0.35086  -0.34905
 Alpha  occ. eigenvalues --   -0.31821  -0.31308  -0.31004  -0.29223  -0.27273
 Alpha  occ. eigenvalues --   -0.26627  -0.18617  -0.17207  -0.12069
 Alpha virt. eigenvalues --    0.16706   0.18420   0.18683   0.19924   0.22411
 Alpha virt. eigenvalues --    0.28187   0.29591   0.31199   0.32731   0.33241
 Alpha virt. eigenvalues --    0.34333   0.35283   0.38550   0.40342
          Condensed to atoms (all electrons):
               1          2          3          4          5          6
     1  C    4.057809   0.000000   0.000000   0.000000   0.000000   0.000000
     2  C    0.000000   4.356457   0.000000   0.000000   0.000000   0.000000
     3  C    0.000000   0.000000   4.139544   0.000000   0.000000   0.000000
     4  C    0.000000   0.000000   0.000000   4.062665   0.000000   0.000000
     5  C    0.000000   0.000000   0.000000   0.000000   4.211392   0.000000
     6  C    0.000000   0.000000   0.000000   0.000000   0.000000   4.059722
     7  Cl   0.000000   0.000000   0.000000   0.000000   0.000000   0.000000
     8  Cl   0.000000   0.000000   0.000000   0.000000   0.000000   0.000000
     9  Cl   0.000000   0.000000   0.000000   0.000000   0.000000   0.000000
    10  H    0.000000   0.000000   0.000000   0.000000   0.000000   0.000000
    11  H    0.000000   0.000000   0.000000   0.000000   0.000000   0.000000
               7          8          9         10         11
     1  C    0.000000   0.000000   0.000000   0.000000   0.000000
     2  C    0.000000   0.000000   0.000000   0.000000   0.000000
     3  C    0.000000   0.000000   0.000000   0.000000   0.000000
     4  C    0.000000   0.000000   0.000000   0.000000   0.000000
     5  C    0.000000   0.000000   0.000000   0.000000   0.000000
     6  C    0.000000   0.000000   0.000000   0.000000   0.000000
     7  Cl   7.105930   0.000000   0.000000   0.000000   0.000000
     8  Cl   0.000000   7.105851   0.000000   0.000000   0.000000
     9  Cl   0.000000   0.000000   7.130977   0.000000   0.000000
    10  H    0.000000   0.000000   0.000000   0.878882   0.000000
    11  H    0.000000   0.000000   0.000000   0.000000   0.890773
 Mulliken charges:
               1
     1  C   -0.057809
     2  C   -0.356457
     3  C   -0.139544
     4  C   -0.062665
     5  C   -0.211392
     6  C   -0.059722
     7  Cl  -0.105930
     8  Cl  -0.105851
     9  Cl  -0.130977
    10  H    0.121118
    11  H    0.109227
 Sum of Mulliken charges =  -1.00000
 Mulliken charges with hydrogens summed into heavy atoms:
               1
     1  C   -0.057809
     2  C   -0.356457
     3  C   -0.030316
     4  C   -0.062665
     5  C   -0.090274
     6  C   -0.059722
     7  Cl  -0.105930
     8  Cl  -0.105851
     9  Cl  -0.130977
 Charge=             -1.0000 electrons
 Dipole moment (field-independent basis, Debye):
    X=             -3.7946    Y=             -2.8319    Z=              0.0000  Tot=              4.7348
 N-N= 2.438939511300D+02 E-N=-3.468552301780D+02  KE=-1.141043490969D+02
 Symmetry A'   KE=-8.805082900391D+01
 Symmetry A"   KE=-2.605352009302D+01
 1\1\GINC-SH02-01N32\FOpt\RAM1\ZDO\C6H2Cl3(1-)\JLAPIER\08-Dec-2025\0\\#
  opt am1 SCF(maxcyc=10000)\\Anion Intermediate (removed 5) 123_\\-1,1\
 C,-3.1280611038,0.1746769348,0.\C,-1.9549825917,0.914877511,0.\C,-0.74
 06274258,0.2381544195,0.\C,-0.7134322529,-1.1582841698,0.\C,-1.8936364
 074,-1.9092048522,0.\C,-3.1154552129,-1.2266848412,0.\Cl,-4.554728553,
 -2.1679750555,0.\Cl,-4.6354353575,1.0029357876,0.\Cl,0.7888532177,-2.0
 081383017,0.\H,-1.8658381273,-3.0057031047,0.\H,0.1986238146,0.8071156
 724,0.\\Version=ES64L-G16RevB.01\State=1-A'\HF=0.0247206\RMSD=2.218e-0
 9\RMSF=1.790e-05\Dipole=-0.2500229,-1.8459691,0.\PG=CS [SG(C6H2Cl3)]\\
 @


 FROM THE ASHES OF OUR DESPAIR GROW THE FLOWERS OF TOMORROW.
 Job cpu time:       0 days  0 hours  0 minutes  9.0 seconds.
 Elapsed time:       0 days  0 hours  0 minutes 33.8 seconds.
 File lengths (MBytes):  RWF=     10 Int=      0 D2E=      0 Chk=      2 Scr=      1
 Normal termination of Gaussian 16 at Mon Dec  8 17:09:07 2025.
