 Entering Gaussian System, Link 0=g16
 Initial command:
 /share/software/user/restricted/gaussian/g16.B01/l1.exe "/home/users/jlapier/Chloroaromatics/Gau-8846.inp" -scrdir="/home/users/jlapier/Chloroaromatics/"
 Entering Link 1 = /share/software/user/restricted/gaussian/g16.B01/l1.exe PID=      8848.
  
 Copyright (c) 1988-2017, Gaussian, Inc.  All Rights Reserved.
  
 This is part of the Gaussian(R) 16 program.  It is based on
 the Gaussian(R) 09 system (copyright 2009, Gaussian, Inc.),
 the Gaussian(R) 03 system (copyright 2003, Gaussian, Inc.),
 the Gaussian(R) 98 system (copyright 1998, Gaussian, Inc.),
 the Gaussian(R) 94 system (copyright 1995, Gaussian, Inc.),
 the Gaussian 92(TM) system (copyright 1992, Gaussian, Inc.),
 the Gaussian 90(TM) system (copyright 1990, Gaussian, Inc.),
 the Gaussian 88(TM) system (copyright 1988, Gaussian, Inc.),
 the Gaussian 86(TM) system (copyright 1986, Carnegie Mellon
 University), and the Gaussian 82(TM) system (copyright 1983,
 Carnegie Mellon University). Gaussian is a federally registered
 trademark of Gaussian, Inc.
  
 This software contains proprietary and confidential information,
 including trade secrets, belonging to Gaussian, Inc.
  
 This software is provided under written license and may be
 used, copied, transmitted, or stored only in accord with that
 written license.
  
 The following legend is applicable only to US Government
 contracts under FAR:
  
                    RESTRICTED RIGHTS LEGEND
  
 Use, reproduction and disclosure by the US Government is
 subject to restrictions as set forth in subparagraphs (a)
 and (c) of the Commercial Computer Software - Restricted
 Rights clause in FAR 52.227-19.
  
 Gaussian, Inc.
 340 Quinnipiac St., Bldg. 40, Wallingford CT 06492
  
  
 ---------------------------------------------------------------
 Warning -- This program may not be used in any manner that
 competes with the business of Gaussian, Inc. or will provide
 assistance to any competitor of Gaussian, Inc.  The licensee
 of this program is prohibited from giving any competitor of
 Gaussian, Inc. access to this program.  By using this program,
 the user acknowledges that Gaussian, Inc. is engaged in the
 business of creating and licensing software in the field of
 computational chemistry and represents and warrants to the
 licensee that it is not a competitor of Gaussian, Inc. and that
 it will not use this program in any manner prohibited above.
 ---------------------------------------------------------------
  

 Cite this work as:
 Gaussian 16, Revision B.01,
 M. J. Frisch, G. W. Trucks, H. B. Schlegel, G. E. Scuseria, 
 M. A. Robb, J. R. Cheeseman, G. Scalmani, V. Barone, 
 G. A. Petersson, H. Nakatsuji, X. Li, M. Caricato, A. V. Marenich, 
 J. Bloino, B. G. Janesko, R. Gomperts, B. Mennucci, H. P. Hratchian, 
 J. V. Ortiz, A. F. Izmaylov, J. L. Sonnenberg, D. Williams-Young, 
 F. Ding, F. Lipparini, F. Egidi, J. Goings, B. Peng, A. Petrone, 
 T. Henderson, D. Ranasinghe, V. G. Zakrzewski, J. Gao, N. Rega, 
 G. Zheng, W. Liang, M. Hada, M. Ehara, K. Toyota, R. Fukuda, 
 J. Hasegawa, M. Ishida, T. Nakajima, Y. Honda, O. Kitao, H. Nakai, 
 T. Vreven, K. Throssell, J. A. Montgomery, Jr., J. E. Peralta, 
 F. Ogliaro, M. J. Bearpark, J. J. Heyd, E. N. Brothers, K. N. Kudin, 
 V. N. Staroverov, T. A. Keith, R. Kobayashi, J. Normand, 
 K. Raghavachari, A. P. Rendell, J. C. Burant, S. S. Iyengar, 
 J. Tomasi, M. Cossi, J. M. Millam, M. Klene, C. Adamo, R. Cammi, 
 J. W. Ochterski, R. L. Martin, K. Morokuma, O. Farkas, 
 J. B. Foresman, and D. J. Fox, Gaussian, Inc., Wallingford CT, 2016.
 
 ******************************************
 Gaussian 16:  ES64L-G16RevB.01 20-Dec-2017
                 9-Dec-2025 
 ******************************************
 %mem=2GB
 %nprocshare=1
 Will use up to    1 processors via shared memory.
 %chk=geometry_chks/123ClBzAnionRadical.chk
 -----------------
 # opt am1 SCF=XQC
 -----------------
 1/18=20,19=15,26=1,38=1/1,3;
 2/9=110,12=2,17=6,18=5,40=1/2;
 3/5=2,25=1,41=700000,71=1/1,2,3;
 4/35=1/1;
 5/5=2,8=3,13=1,35=1,38=5/2,8;
 6/7=2,8=2,9=2,10=2,28=1/1;
 7//1,2,3,16;
 1/18=20,19=15,26=1/3(2);
 2/9=110/2;
 99//99;
 2/9=110/2;
 3/5=2,25=1,41=700000,71=1,135=20/1,2,3;
 4/5=5,16=3,35=1/1;
 5/5=2,8=3,13=1,35=1,38=5/2,8;
 7//1,2,3,16;
 1/18=20,19=15,26=1/3(-5);
 2/9=110/2;
 6/7=2,8=2,9=2,10=2,19=2,28=1/1;
 99/9=1/99;
 ------------------------------------
 3-Chloro-Benzene Anion Radical (123)
 ------------------------------------
 Symbolic Z-matrix:
 Charge = -1 Multiplicity = 2
 C                    -3.20928   0.19943   0. 
 C                    -2.0115    0.93555   0. 
 C                    -0.77511   0.2663    0. 
 C                    -0.7365   -1.13907   0. 
 C                    -1.93429  -1.87519   0. 
 C                    -3.17067  -1.20594   0. 
 Cl                   -4.67483  -2.13035   0. 
 Cl                   -4.76193   1.03987   0. 
 Cl                   -2.05998   2.7004    0. 
 H                     0.72905   1.19071   0. 
 H                     0.81614  -1.97951   0. 
 H                    -1.8858   -3.64003   0. 
 
 Add virtual bond connecting atoms H12        and C5         Dist= 3.34D+00.
 Add virtual bond connecting atoms H11        and C4         Dist= 3.34D+00.
 Add virtual bond connecting atoms H10        and C3         Dist= 3.34D+00.

 GradGradGradGradGradGradGradGradGradGradGradGradGradGradGradGradGradGrad
 Berny optimization.
 Initialization pass.
                           ----------------------------
                           !    Initial Parameters    !
                           ! (Angstroms and Degrees)  !
 --------------------------                            --------------------------
 ! Name  Definition              Value          Derivative Info.                !
 --------------------------------------------------------------------------------
 ! R1    R(1,2)                  1.4059         estimate D2E/DX2                !
 ! R2    R(1,6)                  1.4059         estimate D2E/DX2                !
 ! R3    R(1,8)                  1.7655         estimate D2E/DX2                !
 ! R4    R(2,3)                  1.4059         estimate D2E/DX2                !
 ! R5    R(2,9)                  1.7655         estimate D2E/DX2                !
 ! R6    R(3,4)                  1.4059         estimate D2E/DX2                !
 ! R7    R(3,10)                 1.7655         estimate D2E/DX2                !
 ! R8    R(4,5)                  1.4059         estimate D2E/DX2                !
 ! R9    R(4,11)                 1.7655         estimate D2E/DX2                !
 ! R10   R(5,6)                  1.4059         estimate D2E/DX2                !
 ! R11   R(5,12)                 1.7655         estimate D2E/DX2                !
 ! R12   R(6,7)                  1.7655         estimate D2E/DX2                !
 ! A1    A(2,1,6)              119.9999         estimate D2E/DX2                !
 ! A2    A(2,1,8)              119.9999         estimate D2E/DX2                !
 ! A3    A(6,1,8)              120.0001         estimate D2E/DX2                !
 ! A4    A(1,2,3)              120.0            estimate D2E/DX2                !
 ! A5    A(1,2,9)              120.0001         estimate D2E/DX2                !
 ! A6    A(3,2,9)              119.9999         estimate D2E/DX2                !
 ! A7    A(2,3,4)              120.0001         estimate D2E/DX2                !
 ! A8    A(2,3,10)             120.0            estimate D2E/DX2                !
 ! A9    A(4,3,10)             119.9999         estimate D2E/DX2                !
 ! A10   A(3,4,5)              119.9997         estimate D2E/DX2                !
 ! A11   A(3,4,11)             120.0003         estimate D2E/DX2                !
 ! A12   A(5,4,11)             120.0            estimate D2E/DX2                !
 ! A13   A(4,5,6)              120.0            estimate D2E/DX2                !
 ! A14   A(4,5,12)             119.9996         estimate D2E/DX2                !
 ! A15   A(6,5,12)             120.0004         estimate D2E/DX2                !
 ! A16   A(1,6,5)              120.0003         estimate D2E/DX2                !
 ! A17   A(1,6,7)              119.9999         estimate D2E/DX2                !
 ! A18   A(5,6,7)              119.9998         estimate D2E/DX2                !
 ! D1    D(6,1,2,3)              0.0            estimate D2E/DX2                !
 ! D2    D(6,1,2,9)            180.0            estimate D2E/DX2                !
 ! D3    D(8,1,2,3)            180.0            estimate D2E/DX2                !
 ! D4    D(8,1,2,9)              0.0            estimate D2E/DX2                !
 ! D5    D(2,1,6,5)              0.0            estimate D2E/DX2                !
 ! D6    D(2,1,6,7)            180.0            estimate D2E/DX2                !
 ! D7    D(8,1,6,5)            180.0            estimate D2E/DX2                !
 ! D8    D(8,1,6,7)              0.0            estimate D2E/DX2                !
 ! D9    D(1,2,3,4)              0.0            estimate D2E/DX2                !
 ! D10   D(1,2,3,10)           180.0            estimate D2E/DX2                !
 ! D11   D(9,2,3,4)            180.0            estimate D2E/DX2                !
 ! D12   D(9,2,3,10)             0.0            estimate D2E/DX2                !
 ! D13   D(2,3,4,5)              0.0            estimate D2E/DX2                !
 ! D14   D(2,3,4,11)           180.0            estimate D2E/DX2                !
 ! D15   D(10,3,4,5)           180.0            estimate D2E/DX2                !
 ! D16   D(10,3,4,11)            0.0            estimate D2E/DX2                !
 ! D17   D(3,4,5,6)              0.0            estimate D2E/DX2                !
 ! D18   D(3,4,5,12)           180.0            estimate D2E/DX2                !
 ! D19   D(11,4,5,6)           180.0            estimate D2E/DX2                !
 ! D20   D(11,4,5,12)            0.0            estimate D2E/DX2                !
 ! D21   D(4,5,6,1)              0.0            estimate D2E/DX2                !
 ! D22   D(4,5,6,7)            180.0            estimate D2E/DX2                !
 ! D23   D(12,5,6,1)           180.0            estimate D2E/DX2                !
 ! D24   D(12,5,6,7)             0.0            estimate D2E/DX2                !
 --------------------------------------------------------------------------------
 Trust Radius=3.00D-01 FncErr=1.00D-07 GrdErr=1.00D-07 EigMax=2.50D+02 EigMin=1.00D-04
 Number of steps in this run=     64 maximum allowed number of steps=    100.
 GradGradGradGradGradGradGradGradGradGradGradGradGradGradGradGradGradGrad

                          Input orientation:                          
 ---------------------------------------------------------------------
 Center     Atomic      Atomic             Coordinates (Angstroms)
 Number     Number       Type             X           Y           Z
 ---------------------------------------------------------------------
      1          6           0       -3.209280    0.199430    0.000000
      2          6           0       -2.011500    0.935550    0.000000
      3          6           0       -0.775110    0.266300    0.000000
      4          6           0       -0.736500   -1.139070    0.000000
      5          6           0       -1.934290   -1.875190    0.000000
      6          6           0       -3.170670   -1.205940    0.000000
      7         17           0       -4.674830   -2.130350    0.000000
      8         17           0       -4.761930    1.039870    0.000000
      9         17           0       -2.059980    2.700400    0.000000
     10          1           0        0.729050    1.190710    0.000000
     11          1           0        0.816140   -1.979510    0.000000
     12          1           0       -1.885800   -3.640030    0.000000
 ---------------------------------------------------------------------
                    Distance matrix (angstroms):
                    1          2          3          4          5
     1  C    0.000000
     2  C    1.405898   0.000000
     3  C    2.435088   1.405900   0.000000
     4  C    2.811801   2.435092   1.405900   0.000000
     5  C    2.435087   2.811800   2.435093   1.405907   0.000000
     6  C    1.405900   2.435088   2.811796   2.435088   1.405892
     7  Cl   2.752401   4.061166   4.577308   4.061167   2.752393
     8  Cl   1.765520   2.752408   4.061175   4.577321   4.061173
     9  Cl   2.752406   1.765516   2.752405   4.061173   4.577316
    10  H    4.061167   2.752403   1.765512   2.752401   4.061173
    11  H    4.577312   4.061173   2.752406   1.765511   2.752408
    12  H    4.061164   4.577306   4.061163   2.752397   1.765506
                    6          7          8          9         10
     6  C    0.000000
     7  Cl   1.765512   0.000000
     8  Cl   2.752412   3.171416   0.000000
     9  Cl   4.061173   5.493049   3.171418   0.000000
    10  H    4.577308   6.342819   5.493051   3.171412   0.000000
    11  H    4.061165   5.493041   6.342832   5.493052   3.171416
    12  H    2.752396   3.171407   5.493049   6.342822   5.493040
                   11         12
    11  H    0.000000
    12  H    3.171404   0.000000
 Stoichiometry    C6H3Cl3(1-,2)
 Framework group  CS[SG(C6H3Cl3)]
 Deg. of freedom    21
 Full point group                 CS      NOp   2
 Largest Abelian subgroup         CS      NOp   2
 Largest concise Abelian subgroup C1      NOp   1
                         Standard orientation:                         
 ---------------------------------------------------------------------
 Center     Atomic      Atomic             Coordinates (Angstroms)
 Number     Number       Type             X           Y           Z
 ---------------------------------------------------------------------
      1          6           0       -0.000001    0.278285    0.000000
      2          6           0        1.217543   -0.424663    0.000000
      3          6           0        1.217543   -1.830563    0.000000
      4          6           0       -0.000001   -2.533516    0.000000
      5          6           0       -1.217550   -1.830559    0.000000
      6          6           0       -1.217545   -0.424667    0.000000
      7         17           0       -2.746523    0.458089    0.000000
      8         17           0       -0.000000    2.043805    0.000000
      9         17           0        2.746526    0.458092    0.000000
     10          1           0        2.746521   -2.713319    0.000000
     11          1           0       -0.000006   -4.299027    0.000000
     12          1           0       -2.746519   -2.713318    0.000000
 ---------------------------------------------------------------------
 Rotational constants (GHZ):           1.4194219           0.8231885           0.5210231
 Standard basis: VSTO-6G (5D, 7F)
 There are    30 symmetry adapted cartesian basis functions of A'  symmetry.
 There are     9 symmetry adapted cartesian basis functions of A"  symmetry.
 There are    30 symmetry adapted basis functions of A'  symmetry.
 There are     9 symmetry adapted basis functions of A"  symmetry.
    39 basis functions,   234 primitive gaussians,    39 cartesian basis functions
    25 alpha electrons       24 beta electrons
       nuclear repulsion energy       249.1145351142 Hartrees.
 Integral buffers will be    131072 words long.
 Regular integral format.
 Two-electron integral symmetry is turned off.
 Do NDO integrals.
 One-electron integrals computed using PRISM.
 NBasis=    39 RedAO= T EigKep=  1.00D+00  NBF=    30     9
 NBsUse=    39 1.00D-06 EigRej= -1.00D+00 NBFU=    30     9
 Simple Huckel Guess.
 Initial guess orbital symmetries:
 Alpha Orbitals:
       Occupied  (A') (A') (A') (A') (A') (A') (A') (A') (A') (A")
                 (A') (A') (A') (A') (A") (A") (A') (A') (A") (A')
                 (A') (A') (A") (A") (A')
       Virtual   (A") (A") (A') (A') (A") (A') (A') (A') (A') (A')
                 (A') (A') (A') (A')
 Beta  Orbitals:
       Occupied  (A') (A') (A') (A') (A') (A') (A') (A') (A') (A")
                 (A') (A') (A') (A') (A") (A") (A') (A') (A") (A')
                 (A') (A') (A") (A")
       Virtual   (A') (A") (A") (A') (A') (A") (A') (A') (A') (A')
                 (A') (A') (A') (A') (A')
 The electronic state of the initial guess is 2-A'.
 Initial guess <Sx>= 0.0000 <Sy>= 0.0000 <Sz>= 0.5000 <S**2>= 0.7500 S= 0.5000
 Keep J ints in memory in canonical form, NReq=863709.
 Overlap will be assumed to be unity.
 Requested convergence on RMS density matrix=1.00D-08 within  32 cycles.
 Requested convergence on MAX density matrix=1.00D-06.
 Requested convergence on             energy=1.00D-06.
 No special actions if energy rises.
 Fock symm off for IB=2 I1=    1 I=   31 J=   26 Cut=1.00D-07 Err=4.98D-03
 Fock matrix is not symmetric: symmetry in diagonalization turned off.
 Rare condition: small coef for last iteration:  0.000D+00
 Rare condition: small coef for last iteration:  0.000D+00
 Rare condition: small coef for last iteration:  0.000D+00
 Rare condition: small coef for last iteration:  0.000D+00
 Rare condition: small coef for last iteration:  0.000D+00
 Rare condition: small coef for last iteration:  0.000D+00
 Rare condition: small coef for last iteration:  0.000D+00
 Rare condition: small coef for last iteration:  0.000D+00
 Rare condition: small coef for last iteration:  0.000D+00
 Rare condition: small coef for last iteration:  0.000D+00
 Rare condition: small coef for last iteration:  0.000D+00
 Rare condition: small coef for last iteration:  0.000D+00
 >>>>>>>>>> Convergence criterion not met.
 SCF Done:  E(UAM1) =  0.336516317223     A.U. after   33 cycles
            NFock= 32  Conv=0.43D-03     -V/T= 1.0030
 <Sx>= 0.0000 <Sy>= 0.0000 <Sz>= 0.5000 <S**2>= 1.5328 S= 0.8352
 <L.S>=  0.00000000000    
 Annihilation of the first spin contaminant:
 S**2 before annihilation     1.5328,   after     1.4089
 Keep J ints in memory in canonical form, NReq=864109.
 LinEq1:  Iter=  0 NonCon=     1 RMS=2.75D-04 Max=3.82D-03 NDo=     1
 AX will form     1 AO Fock derivatives at one time.
 LinEq1:  Iter=  1 NonCon=     1 RMS=1.18D-04 Max=1.64D-03 NDo=     1
 LinEq1:  Iter=  2 NonCon=     1 RMS=3.61D-05 Max=5.21D-04 NDo=     1
 LinEq1:  Iter=  3 NonCon=     1 RMS=6.16D-06 Max=6.46D-05 NDo=     1
 LinEq1:  Iter=  4 NonCon=     1 RMS=1.65D-06 Max=2.45D-05 NDo=     1
 LinEq1:  Iter=  5 NonCon=     1 RMS=3.72D-07 Max=3.13D-06 NDo=     1
 LinEq1:  Iter=  6 NonCon=     1 RMS=7.95D-08 Max=7.48D-07 NDo=     1
 LinEq1:  Iter=  7 NonCon=     1 RMS=1.84D-08 Max=1.77D-07 NDo=     1
 LinEq1:  Iter=  8 NonCon=     1 RMS=6.63D-09 Max=6.50D-08 NDo=     1
 LinEq1:  Iter=  9 NonCon=     0 RMS=1.82D-09 Max=1.13D-08 NDo=     1
 Linear equations converged to 2.665D-09 2.665D-08 after     9 iterations.
 Gradient too large for Newton-Raphson -- use scaled steepest descent instead.
 LinEq1:  Iter=  0 NonCon=     1 RMS=3.08D-04 Max=4.61D-03 NDo=     1
 LinEq1:  Iter=  1 NonCon=     1 RMS=1.33D-04 Max=1.97D-03 NDo=     1
 LinEq1:  Iter=  2 NonCon=     1 RMS=3.01D-05 Max=4.58D-04 NDo=     1
 LinEq1:  Iter=  3 NonCon=     1 RMS=7.29D-06 Max=6.22D-05 NDo=     1
 LinEq1:  Iter=  4 NonCon=     1 RMS=1.63D-06 Max=1.07D-05 NDo=     1
 LinEq1:  Iter=  5 NonCon=     1 RMS=4.12D-07 Max=3.50D-06 NDo=     1
 LinEq1:  Iter=  6 NonCon=     1 RMS=9.40D-08 Max=5.99D-07 NDo=     1
 LinEq1:  Iter=  7 NonCon=     1 RMS=2.60D-08 Max=1.87D-07 NDo=     1
 LinEq1:  Iter=  8 NonCon=     1 RMS=6.32D-09 Max=4.03D-08 NDo=     1
 LinEq1:  Iter=  9 NonCon=     0 RMS=1.28D-09 Max=1.05D-08 NDo=     1
 Linear equations converged to 2.665D-09 2.665D-08 after     9 iterations.
     Accept linear search using points  1 and  2.
     Minimum is close to point  2 DX= -5.66D-02 DF= -3.81D-07 DXR=  6.00D-02 DFR=  3.76D-03 which will be used.
 LinEq1:  Iter=  0 NonCon=     1 RMS=1.58D-05 Max=2.73D-04 NDo=     1
 LinEq1:  Iter=  1 NonCon=     1 RMS=3.35D-06 Max=2.84D-05 NDo=     1
 LinEq1:  Iter=  2 NonCon=     1 RMS=7.40D-07 Max=7.45D-06 NDo=     1
 LinEq1:  Iter=  3 NonCon=     1 RMS=1.74D-07 Max=1.98D-06 NDo=     1
 LinEq1:  Iter=  4 NonCon=     1 RMS=3.49D-08 Max=3.59D-07 NDo=     1
 LinEq1:  Iter=  5 NonCon=     1 RMS=1.08D-08 Max=1.19D-07 NDo=     1
 LinEq1:  Iter=  6 NonCon=     1 RMS=2.88D-09 Max=2.25D-08 NDo=     1
 LinEq1:  Iter=  7 NonCon=     0 RMS=6.87D-10 Max=6.52D-09 NDo=     1
 Linear equations converged to 1.686D-09 1.686D-08 after     7 iterations.
     Minimum is close to point  2 DX=  8.79D-03 DF= -4.99D-11 DXR=  8.72D-03 DFR=  7.60D-05 which will be used.
 LinEq1:  Iter=  0 NonCon=     1 RMS=4.80D-07 Max=4.30D-06 NDo=     1
 LinEq1:  Iter=  1 NonCon=     1 RMS=1.61D-07 Max=1.83D-06 NDo=     1
 LinEq1:  Iter=  2 NonCon=     1 RMS=4.25D-08 Max=4.09D-07 NDo=     1
 LinEq1:  Iter=  3 NonCon=     1 RMS=1.42D-08 Max=1.37D-07 NDo=     1
 LinEq1:  Iter=  4 NonCon=     1 RMS=2.95D-09 Max=4.32D-08 NDo=     1
 LinEq1:  Iter=  5 NonCon=     1 RMS=5.26D-10 Max=3.40D-09 NDo=     1
 LinEq1:  Iter=  6 NonCon=     1 RMS=1.58D-10 Max=1.24D-09 NDo=     1
 LinEq1:  Iter=  7 NonCon=     0 RMS=3.91D-11 Max=4.93D-10 NDo=     1
 Linear equations converged to 7.691D-11 7.691D-10 after     7 iterations.
 SCF Done:  E(UAM1) =  0.331596636228     a.u. after    6 cycles
            Convg  =    0.1429D-06                    47 Fock formations.
              S**2 =  1.7134                  -V/T =  1.0029
 <Sx>= 0.0000 <Sy>= 0.0000 <Sz>= 0.5000 <S**2>= 1.7134 S= 0.9012
 <L.S>=  0.00000000000    
 Annihilation of the first spin contaminant:
 S**2 before annihilation     1.7134,   after     1.9612

 **********************************************************************

            Population analysis using the SCF Density.

 **********************************************************************

 Orbital symmetries:
 Alpha Orbitals:
       Occupied  (A') (A') (A') (A') (A') (A') (A') (A') (A') (A')
                 (A') (A") (A') (A") (A") (A') (A') (A') (A') (A")
                 (A') (A') (A") (A") (A')
       Virtual   (A') (A') (A") (A') (A") (A') (A') (A") (A') (A')
                 (A') (A') (A') (A')
 Beta  Orbitals:
       Occupied  (A') (A') (A') (A') (A') (A') (A') (A') (A') (A')
                 (A') (A") (A') (A") (A") (A') (A') (A') (A') (A")
                 (A') (A") (A") (A')
       Virtual   (A") (A') (A") (A') (A') (A') (A') (A") (A') (A')
                 (A') (A') (A') (A') (A')
 The electronic state is 2-A'.
 Alpha  occ. eigenvalues --   -1.28106  -1.23797  -1.23296  -1.20100  -0.95381
 Alpha  occ. eigenvalues --   -0.94136  -0.67205  -0.65588  -0.50159  -0.44955
 Alpha  occ. eigenvalues --   -0.41911  -0.40556  -0.38545  -0.35189  -0.33206
 Alpha  occ. eigenvalues --   -0.31807  -0.31585  -0.30048  -0.29828  -0.28519
 Alpha  occ. eigenvalues --   -0.24744  -0.21864  -0.20660  -0.18526  -0.07385
 Alpha virt. eigenvalues --    0.15166   0.15914   0.15952   0.15953   0.17990
 Alpha virt. eigenvalues --    0.19756   0.19929   0.27103   0.30205   0.30303
 Alpha virt. eigenvalues --    0.32647   0.34169   0.36532   0.39965
  Beta  occ. eigenvalues --   -1.28360  -1.23734  -1.23354  -1.20454  -0.96168
  Beta  occ. eigenvalues --   -0.94922  -0.67710  -0.67245  -0.50162  -0.45356
  Beta  occ. eigenvalues --   -0.42789  -0.40617  -0.39001  -0.34571  -0.33374
  Beta  occ. eigenvalues --   -0.31831  -0.31709  -0.30087  -0.29951  -0.28908
  Beta  occ. eigenvalues --   -0.22572  -0.20734  -0.20328  -0.16556
  Beta virt. eigenvalues --    0.15748   0.15782   0.16999   0.17638   0.18905
  Beta virt. eigenvalues --    0.20199   0.20880   0.26518   0.28753   0.30131
  Beta virt. eigenvalues --    0.30255   0.31909   0.33621   0.36093   0.38223
          Condensed to atoms (all electrons):
               1          2          3          4          5          6
     1  C    4.082719   0.000000   0.000000   0.000000   0.000000   0.000000
     2  C    0.000000   4.044762   0.000000   0.000000   0.000000   0.000000
     3  C    0.000000   0.000000   4.107699   0.000000   0.000000   0.000000
     4  C    0.000000   0.000000   0.000000   4.232441   0.000000   0.000000
     5  C    0.000000   0.000000   0.000000   0.000000   4.107695   0.000000
     6  C    0.000000   0.000000   0.000000   0.000000   0.000000   4.044765
     7  Cl   0.000000   0.000000   0.000000   0.000000   0.000000   0.000000
     8  Cl   0.000000   0.000000   0.000000   0.000000   0.000000   0.000000
     9  Cl   0.000000   0.000000   0.000000   0.000000   0.000000   0.000000
    10  H    0.000000   0.000000   0.000000   0.000000   0.000000   0.000000
    11  H    0.000000   0.000000   0.000000   0.000000   0.000000   0.000000
    12  H    0.000000   0.000000   0.000000   0.000000   0.000000   0.000000
               7          8          9         10         11         12
     1  C    0.000000   0.000000   0.000000   0.000000   0.000000   0.000000
     2  C    0.000000   0.000000   0.000000   0.000000   0.000000   0.000000
     3  C    0.000000   0.000000   0.000000   0.000000   0.000000   0.000000
     4  C    0.000000   0.000000   0.000000   0.000000   0.000000   0.000000
     5  C    0.000000   0.000000   0.000000   0.000000   0.000000   0.000000
     6  C    0.000000   0.000000   0.000000   0.000000   0.000000   0.000000
     7  Cl   7.106441   0.000000   0.000000   0.000000   0.000000   0.000000
     8  Cl   0.000000   7.081116   0.000000   0.000000   0.000000   0.000000
     9  Cl   0.000000   0.000000   7.106441   0.000000   0.000000   0.000000
    10  H    0.000000   0.000000   0.000000   0.959361   0.000000   0.000000
    11  H    0.000000   0.000000   0.000000   0.000000   1.167202   0.000000
    12  H    0.000000   0.000000   0.000000   0.000000   0.000000   0.959357
          Atomic-Atomic Spin Densities.
               1          2          3          4          5          6
     1  C   -0.409928   0.000000   0.000000   0.000000   0.000000   0.000000
     2  C    0.000000   0.370458   0.000000   0.000000   0.000000   0.000000
     3  C    0.000000   0.000000  -0.820638   0.000000   0.000000   0.000000
     4  C    0.000000   0.000000   0.000000   0.432295   0.000000   0.000000
     5  C    0.000000   0.000000   0.000000   0.000000  -0.820633   0.000000
     6  C    0.000000   0.000000   0.000000   0.000000   0.000000   0.370457
     7  Cl   0.000000   0.000000   0.000000   0.000000   0.000000   0.000000
     8  Cl   0.000000   0.000000   0.000000   0.000000   0.000000   0.000000
     9  Cl   0.000000   0.000000   0.000000   0.000000   0.000000   0.000000
    10  H    0.000000   0.000000   0.000000   0.000000   0.000000   0.000000
    11  H    0.000000   0.000000   0.000000   0.000000   0.000000   0.000000
    12  H    0.000000   0.000000   0.000000   0.000000   0.000000   0.000000
               7          8          9         10         11         12
     1  C    0.000000   0.000000   0.000000   0.000000   0.000000   0.000000
     2  C    0.000000   0.000000   0.000000   0.000000   0.000000   0.000000
     3  C    0.000000   0.000000   0.000000   0.000000   0.000000   0.000000
     4  C    0.000000   0.000000   0.000000   0.000000   0.000000   0.000000
     5  C    0.000000   0.000000   0.000000   0.000000   0.000000   0.000000
     6  C    0.000000   0.000000   0.000000   0.000000   0.000000   0.000000
     7  Cl  -0.001908   0.000000   0.000000   0.000000   0.000000   0.000000
     8  Cl   0.000000  -0.007369   0.000000   0.000000   0.000000   0.000000
     9  Cl   0.000000   0.000000  -0.001907   0.000000   0.000000   0.000000
    10  H    0.000000   0.000000   0.000000   0.570100   0.000000   0.000000
    11  H    0.000000   0.000000   0.000000   0.000000   0.748985   0.000000
    12  H    0.000000   0.000000   0.000000   0.000000   0.000000   0.570087
 Mulliken charges and spin densities:
               1          2
     1  C   -0.082719  -0.409928
     2  C   -0.044762   0.370458
     3  C   -0.107699  -0.820638
     4  C   -0.232441   0.432295
     5  C   -0.107695  -0.820633
     6  C   -0.044765   0.370457
     7  Cl  -0.106441  -0.001908
     8  Cl  -0.081116  -0.007369
     9  Cl  -0.106441  -0.001907
    10  H    0.040639   0.570100
    11  H   -0.167202   0.748985
    12  H    0.040643   0.570087
 Sum of Mulliken charges =  -1.00000   1.00000
 Mulliken charges and spin densities with hydrogens summed into heavy atoms:
               1          2
     1  C   -0.082719  -0.409928
     2  C   -0.044762   0.370458
     3  C   -0.067060  -0.250538
     4  C   -0.399643   1.181280
     5  C   -0.067052  -0.250546
     6  C   -0.044765   0.370457
     7  Cl  -0.106441  -0.001908
     8  Cl  -0.081116  -0.007369
     9  Cl  -0.106441  -0.001907
 Charge=             -1.0000 electrons
 Dipole moment (field-independent basis, Debye):
    X=             -0.0001    Y=              7.4772    Z=              0.0000  Tot=              7.4772
 N-N= 2.491145351142D+02 E-N=-3.570516828385D+02  KE=-1.136382964113D+02
 Symmetry A'   KE=-8.760541180698D+01
 Symmetry A"   KE=-2.603288460437D+01
 Symmetry A'   SP= 1.000000000000D+00
 Symmetry A"   SP= 1.165734175856D-15
 Calling FoFJK, ICntrl=      2127 FMM=F ISym2X=1 I1Cent= 0 IOpClX= 1 NMat=1 NMatS=1 NMatT=0.
 ***** Axes restored to original set *****
 -------------------------------------------------------------------
 Center     Atomic                   Forces (Hartrees/Bohr)
 Number     Number              X              Y              Z
 -------------------------------------------------------------------
      1        6          -0.021017841    0.011377708    0.000000000
      2        6           0.024960884    0.019831270    0.000000000
      3        6           0.029654439   -0.015128204    0.000000000
      4        6          -0.006178091    0.003341934    0.000000000
      5        6           0.028890336   -0.016560043    0.000000000
      6        6          -0.002961093   -0.031738826    0.000000000
      7       17           0.023134125    0.013721376    0.000000000
      8       17           0.025941758   -0.014042379    0.000000000
      9       17           0.001161203   -0.026874866   -0.000000000
     10        1          -0.070424544   -0.042731611   -0.000000000
     11        1          -0.030431003    0.016472197   -0.000000000
     12        1          -0.002730174    0.082331445   -0.000000000
 -------------------------------------------------------------------
 Cartesian Forces:  Max     0.082331445 RMS     0.024696075

 GradGradGradGradGradGradGradGradGradGradGradGradGradGradGradGradGradGrad
 Berny optimization.
 FormGI is forming the generalized inverse of G from B-inverse, IUseBI=4.
 Internal  Forces:  Max     0.082375371 RMS     0.022415172
 Search for a local minimum.
 Step number   1 out of a maximum of   64
 All quantities printed in internal units (Hartrees-Bohrs-Radians)
 Mixed Optimization -- RFO/linear search
 Second derivative matrix not updated -- first step.
 ITU=  0
     Eigenvalues ---    0.02011   0.02011   0.02011   0.02011   0.02011
     Eigenvalues ---    0.02011   0.02011   0.02011   0.02011   0.06524
     Eigenvalues ---    0.06524   0.06524   0.16000   0.16000   0.16000
     Eigenvalues ---    0.22085   0.23477   0.24913   0.25000   0.25000
     Eigenvalues ---    0.25000   0.29033   0.29033   0.29033   0.40951
     Eigenvalues ---    0.40971   0.44656   0.44657   0.44657   0.44657
 RFO step:  Lambda=-1.09532448D-01 EMin= 2.01065826D-02
 Linear search not attempted -- first point.
 Maximum step size (   0.300) exceeded in Quadratic search.
    -- Step size scaled by   0.410
 Iteration  1 RMS(Cart)=  0.04981784 RMS(Int)=  0.00008955
 Iteration  2 RMS(Cart)=  0.00014875 RMS(Int)=  0.00001250
 Iteration  3 RMS(Cart)=  0.00000001 RMS(Int)=  0.00001250
 ClnCor:  largest displacement from symmetrization is 4.92D-12 for atom     9.
 Variable       Old X    -DE/DX   Delta X   Delta X   Delta X     New X
                                 (Linear)    (Quad)   (Total)
    R1        2.65676  -0.00801   0.00000  -0.00459  -0.00461   2.65216
    R2        2.65677  -0.00801   0.00000  -0.00459  -0.00461   2.65216
    R3        3.33635  -0.02950   0.00000  -0.03024  -0.03024   3.30611
    R4        2.65677  -0.02912   0.00000  -0.02147  -0.02147   2.63530
    R5        3.33634  -0.02690   0.00000  -0.02757  -0.02757   3.30877
    R6        2.65677  -0.05927   0.00000  -0.04500  -0.04498   2.61179
    R7        3.33633  -0.08237   0.00000  -0.19319  -0.19319   3.14314
    R8        2.65678  -0.05927   0.00000  -0.04500  -0.04498   2.61180
    R9        3.33633  -0.03460   0.00000  -0.08116  -0.08116   3.25518
   R10        2.65675  -0.02912   0.00000  -0.02146  -0.02146   2.63529
   R11        3.33632  -0.08238   0.00000  -0.19320  -0.19320   3.14313
   R12        3.33633  -0.02689   0.00000  -0.02757  -0.02757   3.30876
    A1        2.09439  -0.01161   0.00000  -0.00944  -0.00948   2.08492
    A2        2.09439   0.00581   0.00000   0.00472   0.00474   2.09913
    A3        2.09440   0.00581   0.00000   0.00472   0.00474   2.09914
    A4        2.09439  -0.00868   0.00000  -0.00817  -0.00819   2.08620
    A5        2.09440   0.00504   0.00000   0.00489   0.00490   2.09930
    A6        2.09439   0.00363   0.00000   0.00328   0.00329   2.09768
    A7        2.09440   0.01584   0.00000   0.01705   0.01707   2.11146
    A8        2.09440  -0.00870   0.00000  -0.00971  -0.00972   2.08468
    A9        2.09439  -0.00714   0.00000  -0.00734  -0.00735   2.08705
   A10        2.09439  -0.00272   0.00000  -0.00831  -0.00827   2.08612
   A11        2.09440   0.00136   0.00000   0.00415   0.00414   2.09853
   A12        2.09440   0.00136   0.00000   0.00415   0.00413   2.09853
   A13        2.09439   0.01584   0.00000   0.01705   0.01707   2.11146
   A14        2.09439  -0.00714   0.00000  -0.00734  -0.00735   2.08704
   A15        2.09440  -0.00870   0.00000  -0.00971  -0.00972   2.08468
   A16        2.09440  -0.00868   0.00000  -0.00817  -0.00819   2.08621
   A17        2.09439   0.00504   0.00000   0.00489   0.00490   2.09929
   A18        2.09439   0.00363   0.00000   0.00328   0.00329   2.09768
    D1        0.00000  -0.00000   0.00000  -0.00000   0.00000   0.00000
    D2        3.14159  -0.00000   0.00000  -0.00000   0.00000   3.14159
    D3        3.14159   0.00000   0.00000   0.00000   0.00000   3.14159
    D4        0.00000   0.00000   0.00000   0.00000   0.00000   0.00000
    D5        0.00000  -0.00000   0.00000   0.00000   0.00000   0.00000
    D6        3.14159   0.00000   0.00000   0.00000   0.00000   3.14159
    D7        3.14159  -0.00000   0.00000  -0.00000   0.00000   3.14159
    D8        0.00000  -0.00000   0.00000  -0.00000   0.00000   0.00000
    D9        0.00000  -0.00000   0.00000  -0.00000   0.00000   0.00000
   D10        3.14159  -0.00000   0.00000  -0.00000   0.00000   3.14159
   D11        3.14159   0.00000   0.00000   0.00000   0.00000   3.14159
   D12        0.00000  -0.00000   0.00000  -0.00000   0.00000   0.00000
   D13        0.00000   0.00000   0.00000   0.00000   0.00000   0.00000
   D14        3.14159  -0.00000   0.00000  -0.00000   0.00000   3.14159
   D15        3.14159   0.00000   0.00000   0.00000   0.00000   3.14159
   D16        0.00000   0.00000   0.00000   0.00000   0.00000   0.00000
   D17        0.00000  -0.00000   0.00000  -0.00000   0.00000   0.00000
   D18        3.14159  -0.00000   0.00000  -0.00000   0.00000   3.14159
   D19        3.14159   0.00000   0.00000   0.00000   0.00000   3.14159
   D20        0.00000  -0.00000   0.00000  -0.00000   0.00000   0.00000
   D21        0.00000   0.00000   0.00000   0.00000   0.00000   0.00000
   D22        3.14159  -0.00000   0.00000  -0.00000   0.00000   3.14159
   D23        3.14159   0.00000   0.00000   0.00000   0.00000   3.14159
   D24        0.00000   0.00000   0.00000   0.00000   0.00000   0.00000
         Item               Value     Threshold  Converged?
 Maximum Force            0.082375     0.000450     NO 
 RMS     Force            0.022415     0.000300     NO 
 Maximum Displacement     0.230179     0.001800     NO 
 RMS     Displacement     0.049813     0.001200     NO 
 Predicted change in Energy=-4.062459D-02
 GradGradGradGradGradGradGradGradGradGradGradGradGradGradGradGradGradGrad

                          Input orientation:                          
 ---------------------------------------------------------------------
 Center     Atomic      Atomic             Coordinates (Angstroms)
 Number     Number       Type             X           Y           Z
 ---------------------------------------------------------------------
      1          6           0       -3.200964    0.194929    0.000000
      2          6           0       -2.001792    0.924097    0.000000
      3          6           0       -0.784078    0.244453    0.000000
      4          6           0       -0.740409   -1.136955    0.000000
      5          6           0       -1.920900   -1.855736    0.000000
      6          6           0       -3.155774   -1.207806    0.000000
      7         17           0       -4.638600   -2.138912    0.000000
      8         17           0       -4.739541    1.027752    0.000000
      9         17           0       -2.032999    2.674744    0.000000
     10          1           0        0.635771    1.110780    0.000000
     11          1           0        0.774464   -1.956951    0.000000
     12          1           0       -1.869879   -3.518225    0.000000
 ---------------------------------------------------------------------
                    Distance matrix (angstroms):
                    1          2          3          4          5
     1  C    0.000000
     2  C    1.403460   0.000000
     3  C    2.417393   1.394540   0.000000
     4  C    2.797900   2.416407   1.382097   0.000000
     5  C    2.417393   2.781010   2.388129   1.382102   0.000000
     6  C    1.403462   2.424187   2.781006   2.416404   1.394535
     7  Cl   2.741097   4.041631   4.531861   4.024899   2.732413
     8  Cl   1.749518   2.739711   4.032276   4.547418   4.032275
     9  Cl   2.741100   1.750926   2.732420   4.024902   4.531867
    10  H    3.944531   2.644162   1.663279   2.635561   3.916221
    11  H    4.520466   4.001004   2.697263   1.722566   2.697264
    12  H    3.944527   4.444280   3.916211   2.635555   1.663271
                    6          7          8          9         10
     6  C    0.000000
     7  Cl   1.750923   0.000000
     8  Cl   2.739715   3.168272   0.000000
     9  Cl   4.041636   5.473614   3.168274   0.000000
    10  H    4.444284   6.195118   5.375954   3.093270   0.000000
    11  H    4.000998   5.416121   6.269984   5.416128   3.070864
    12  H    2.644156   3.093269   5.375952   6.195117   5.263646
                   11         12
    11  H    0.000000
    12  H    3.070851   0.000000
 Stoichiometry    C6H3Cl3(1-,2)
 Framework group  CS[SG(C6H3Cl3)]
 Deg. of freedom    21
 Full point group                 CS      NOp   2
 Largest Abelian subgroup         CS      NOp   2
 Largest concise Abelian subgroup C1      NOp   1
                         Standard orientation:                         
 ---------------------------------------------------------------------
 Center     Atomic      Atomic             Coordinates (Angstroms)
 Number     Number       Type             X           Y           Z
 ---------------------------------------------------------------------
      1          6           0        0.000000    0.288245    0.000000
      2          6           0        1.212092   -0.419238    0.000000
      3          6           0        1.194059   -1.813662    0.000000
      4          6           0       -0.000004   -2.509655    0.000000
      5          6           0       -1.194070   -1.813656    0.000000
      6          6           0       -1.212095   -0.419237    0.000000
      7         17           0       -2.736805    0.441571    0.000000
      8         17           0        0.000003    2.037764    0.000000
      9         17           0        2.736809    0.441564    0.000000
     10          1           0        2.631822   -2.649924    0.000000
     11          1           0       -0.000011   -4.232221    0.000000
     12          1           0       -2.631824   -2.649916    0.000000
 ---------------------------------------------------------------------
 Rotational constants (GHZ):           1.4441417           0.8321987           0.5279583
 Standard basis: VSTO-6G (5D, 7F)
 There are    30 symmetry adapted cartesian basis functions of A'  symmetry.
 There are     9 symmetry adapted cartesian basis functions of A"  symmetry.
 There are    30 symmetry adapted basis functions of A'  symmetry.
 There are     9 symmetry adapted basis functions of A"  symmetry.
    39 basis functions,   234 primitive gaussians,    39 cartesian basis functions
    25 alpha electrons       24 beta electrons
       nuclear repulsion energy       250.5593810785 Hartrees.
 Integral buffers will be    131072 words long.
 Regular integral format.
 Two-electron integral symmetry is turned off.
 Do NDO integrals.
 One-electron integrals computed using PRISM.
 NBasis=    39 RedAO= T EigKep=  1.00D+00  NBF=    30     9
 NBsUse=    39 1.00D-06 EigRej= -1.00D+00 NBFU=    30     9
 Initial guess from the checkpoint file:  "geometry_chks/123ClBzAnionRadical.chk"
 B after Tr=     0.000000   -0.000000    0.000000
         Rot=    1.000000    0.000000    0.000000    0.000001 Ang=   0.00 deg.
 Initial guess orbital symmetries:
 Alpha Orbitals:
       Occupied  (A') (A') (A') (A') (A') (A') (A') (A') (A') (A')
                 (A') (A") (A') (A") (A") (A') (A') (A') (A') (A")
                 (A') (A') (A") (A") (A')
       Virtual   (A') (A') (A") (A') (A") (A') (A') (A") (A') (A')
                 (A') (A') (A') (A')
 Beta  Orbitals:
       Occupied  (A') (A') (A') (A') (A') (A') (A') (A') (A') (A')
                 (A') (A") (A') (A") (A") (A') (A') (A') (A') (A")
                 (A') (A") (A") (A')
       Virtual   (A") (A') (A") (A') (A') (A') (A') (A") (A') (A')
                 (A') (A') (A') (A') (A')
 Initial guess <Sx>= 0.0000 <Sy>= 0.0000 <Sz>= 0.5000 <S**2>= 1.7134 S= 0.9012
 Keep J ints in memory in canonical form, NReq=863709.
 Overlap will be assumed to be unity.
 Requested convergence on RMS density matrix=1.00D-08 within  32 cycles.
 Requested convergence on MAX density matrix=1.00D-06.
 Requested convergence on             energy=1.00D-06.
 No special actions if energy rises.
 Fock symm off for IB=2 I1=    1 I=   31 J=   18 Cut=1.00D-07 Err=4.78D-03
 Fock matrix is not symmetric: symmetry in diagonalization turned off.
 SCF Done:  E(UAM1) =  0.283208217683     A.U. after   22 cycles
            NFock= 21  Conv=0.98D-08     -V/T= 1.0025
 <Sx>= 0.0000 <Sy>= 0.0000 <Sz>= 0.5000 <S**2>= 1.0446 S= 0.6378
 <L.S>=  0.00000000000    
 Annihilation of the first spin contaminant:
 S**2 before annihilation     1.0446,   after     0.8397
 QCSCF skips out because SCF is already converged.
 Calling FoFJK, ICntrl=      2127 FMM=F ISym2X=1 I1Cent= 0 IOpClX= 1 NMat=1 NMatS=1 NMatT=0.
 ***** Axes restored to original set *****
 -------------------------------------------------------------------
 Center     Atomic                   Forces (Hartrees/Bohr)
 Number     Number              X              Y              Z
 -------------------------------------------------------------------
      1        6          -0.019711902    0.010670150    0.000000000
      2        6           0.013776280    0.020364867    0.000000000
      3        6           0.072899356    0.036470929   -0.000000000
      4        6           0.023467862   -0.012705390    0.000000000
      5        6           0.009332109   -0.080980060   -0.000000000
      6        6          -0.009521836   -0.022666860    0.000000000
      7       17           0.016064974    0.009963307   -0.000000000
      8       17           0.018947485   -0.010256379   -0.000000000
      9       17           0.000442247   -0.018900333   -0.000000000
     10        1          -0.097578905   -0.058846924   -0.000000000
     11        1          -0.024032313    0.013008602   -0.000000000
     12        1          -0.004085357    0.113878089   -0.000000000
 -------------------------------------------------------------------
 Cartesian Forces:  Max     0.113878089 RMS     0.034804256

 GradGradGradGradGradGradGradGradGradGradGradGradGradGradGradGradGradGrad
 Berny optimization.
 Using GEDIIS/GDIIS optimizer.
 FormGI is forming the generalized inverse of G from B-inverse, IUseBI=4.
 Internal  Forces:  Max     0.113949818 RMS     0.023378310
 Search for a local minimum.
 Step number   2 out of a maximum of   64
 All quantities printed in internal units (Hartrees-Bohrs-Radians)
 Mixed Optimization -- RFO/linear search
 Update second derivatives using D2CorX and points    1    2
 DE= -4.84D-02 DEPred=-4.06D-02 R= 1.19D+00
 TightC=F SS=  1.41D+00  RLast= 3.00D-01 DXNew= 5.0454D-01 9.0000D-01
 Trust test= 1.19D+00 RLast= 3.00D-01 DXMaxT set to 5.05D-01
 ITU=  1  0
 Use linear search instead of GDIIS.
     Eigenvalues ---   -0.77455   0.01871   0.02011   0.02011   0.02011
     Eigenvalues ---    0.02011   0.02011   0.02011   0.02011   0.02011
     Eigenvalues ---    0.02011   0.06524   0.08784   0.15999   0.16000
     Eigenvalues ---    0.16000   0.22190   0.23454   0.24938   0.25000
     Eigenvalues ---    0.25000   0.25006   0.29031   0.29033   0.30186
     Eigenvalues ---    0.40887   0.42175   0.44642   0.44656   0.44657
 RFO step:  Lambda=-7.80937654D-01 EMin=-7.74553032D-01
 I=     1 Eig=   -7.75D-01 Dot1=  4.15D-02
 I=     1 Stepn=  6.00D-01 RXN=   6.00D-01 EDone=F
 Mixed    1 eigenvectors in step.  Raw Step.Grad=  4.15D-02.
 RFO eigenvector is Hessian eigenvector with negative curvature.
 Taking step of  6.00D-01 in eigenvector direction(s).  Step.Grad=  5.89D-03.
 Skip linear search -- no minimum in search direction.
 Maximum step size (   0.505) exceeded in Quadratic search.
    -- Step size not scaled.
 Iteration  1 RMS(Cart)=  0.07378624 RMS(Int)=  0.01948841
 Iteration  2 RMS(Cart)=  0.01735900 RMS(Int)=  0.00060983
 Iteration  3 RMS(Cart)=  0.00012969 RMS(Int)=  0.00060182
 Iteration  4 RMS(Cart)=  0.00000003 RMS(Int)=  0.00060182
 ClnCor:  largest displacement from symmetrization is 7.10D-09 for atom    12.
 Variable       Old X    -DE/DX   Delta X   Delta X   Delta X     New X
                                 (Linear)    (Quad)   (Total)
    R1        2.65216  -0.00053   0.00000   0.04653   0.04563   2.69778
    R2        2.65216  -0.00053   0.00000   0.04653   0.04562   2.69778
    R3        3.30611  -0.02155   0.00000   0.06639   0.06639   3.37250
    R4        2.63530  -0.01126   0.00000   0.12120   0.12116   2.75646
    R5        3.30877  -0.01891   0.00000   0.06588   0.06588   3.37465
    R6        2.61179  -0.01960   0.00000   0.27037   0.27125   2.88304
    R7        3.14314  -0.11395   0.00000  -0.27357  -0.27357   2.86957
    R8        2.61180  -0.01960   0.00000   0.27037   0.27125   2.88305
    R9        3.25518  -0.02733   0.00000   0.07351   0.07351   3.32869
   R10        2.63529  -0.01125   0.00000   0.12118   0.12114   2.75643
   R11        3.14313  -0.11395   0.00000  -0.27357  -0.27357   2.86956
   R12        3.30876  -0.01890   0.00000   0.06587   0.06587   3.37464
    A1        2.08492  -0.00570   0.00000   0.04133   0.03946   2.12437
    A2        2.09913   0.00285   0.00000  -0.02066  -0.01973   2.07940
    A3        2.09914   0.00285   0.00000  -0.02066  -0.01973   2.07941
    A4        2.08620  -0.00415   0.00000   0.03363   0.03266   2.11887
    A5        2.09930   0.00225   0.00000  -0.02102  -0.02054   2.07876
    A6        2.09768   0.00190   0.00000  -0.01261  -0.01213   2.08556
    A7        2.11146   0.01129   0.00000  -0.03585  -0.03492   2.07654
    A8        2.08468  -0.00657   0.00000   0.01693   0.01647   2.10114
    A9        2.08705  -0.00472   0.00000   0.01892   0.01846   2.10550
   A10        2.08612  -0.00858   0.00000  -0.03690  -0.03494   2.05118
   A11        2.09853   0.00429   0.00000   0.01845   0.01747   2.11601
   A12        2.09853   0.00429   0.00000   0.01845   0.01747   2.11600
   A13        2.11146   0.01129   0.00000  -0.03585  -0.03492   2.07654
   A14        2.08704  -0.00472   0.00000   0.01892   0.01846   2.10550
   A15        2.08468  -0.00657   0.00000   0.01693   0.01647   2.10115
   A16        2.08621  -0.00415   0.00000   0.03364   0.03267   2.11888
   A17        2.09929   0.00225   0.00000  -0.02102  -0.02054   2.07876
   A18        2.09768   0.00190   0.00000  -0.01262  -0.01213   2.08555
    D1        0.00000   0.00000   0.00000   0.00000   0.00000   0.00000
    D2        3.14159  -0.00000   0.00000  -0.00000   0.00000   3.14159
    D3        3.14159   0.00000   0.00000   0.00000   0.00000   3.14159
    D4        0.00000  -0.00000   0.00000  -0.00000   0.00000   0.00000
    D5        0.00000   0.00000   0.00000   0.00000   0.00000   0.00000
    D6        3.14159   0.00000   0.00000   0.00000   0.00000   3.14159
    D7        3.14159  -0.00000   0.00000  -0.00000   0.00000   3.14159
    D8        0.00000  -0.00000   0.00000  -0.00000   0.00000   0.00000
    D9        0.00000  -0.00000   0.00000  -0.00000   0.00000   0.00000
   D10        3.14159  -0.00000   0.00000  -0.00000   0.00000   3.14159
   D11        3.14159   0.00000   0.00000   0.00000   0.00000   3.14159
   D12        0.00000  -0.00000   0.00000   0.00000   0.00000   0.00000
   D13        0.00000   0.00000   0.00000   0.00000   0.00000   0.00000
   D14        3.14159  -0.00000   0.00000   0.00000   0.00000   3.14159
   D15        3.14159   0.00000   0.00000   0.00000   0.00000   3.14159
   D16        0.00000   0.00000   0.00000   0.00000   0.00000   0.00000
   D17        0.00000  -0.00000   0.00000   0.00000   0.00000   0.00000
   D18        3.14159  -0.00000   0.00000   0.00000   0.00000   3.14159
   D19        3.14159   0.00000   0.00000   0.00000   0.00000   3.14159
   D20        0.00000   0.00000   0.00000   0.00000   0.00000   0.00000
   D21        0.00000  -0.00000   0.00000  -0.00000   0.00000   0.00000
   D22        3.14159  -0.00000   0.00000  -0.00000   0.00000   3.14159
   D23        3.14159   0.00000   0.00000  -0.00000   0.00000   3.14159
   D24        0.00000  -0.00000   0.00000  -0.00000   0.00000   0.00000
         Item               Value     Threshold  Converged?
 Maximum Force            0.113950     0.000450     NO 
 RMS     Force            0.023378     0.000300     NO 
 Maximum Displacement     0.300222     0.001800     NO 
 RMS     Displacement     0.087984     0.001200     NO 
 Predicted change in Energy=-1.808546D-01
 GradGradGradGradGradGradGradGradGradGradGradGradGradGradGradGradGradGrad

                          Input orientation:                          
 ---------------------------------------------------------------------
 Center     Atomic      Atomic             Coordinates (Angstroms)
 Number     Number       Type             X           Y           Z
 ---------------------------------------------------------------------
      1          6           0       -3.204693    0.196947    0.000000
      2          6           0       -1.999762    0.962580    0.000000
      3          6           0       -0.690583    0.319368    0.000000
      4          6           0       -0.615748   -1.204432    0.000000
      5          6           0       -1.932506   -1.974976    0.000000
      6          6           0       -3.186879   -1.230547    0.000000
      7         17           0       -4.736226   -2.118546    0.000000
      8         17           0       -4.774166    1.046490    0.000000
      9         17           0       -2.103439    2.745357    0.000000
     10          1           0        0.576442    1.156341    0.000000
     11          1           0        0.933335   -2.042949    0.000000
     12          1           0       -1.940475   -3.493461    0.000000
 ---------------------------------------------------------------------
                    Distance matrix (angstroms):
                    1          2          3          4          5
     1  C    0.000000
     2  C    1.427605   0.000000
     3  C    2.517089   1.458654   0.000000
     4  C    2.943892   2.571272   1.525637   0.000000
     5  C    2.517083   2.938326   2.608905   1.525643   0.000000
     6  C    1.427605   2.493804   2.938321   2.571264   1.458639
     7  Cl   2.776167   4.120871   4.723416   4.220657   2.807394
     8  Cl   1.784648   2.775673   4.147813   4.728540   4.147805
     9  Cl   2.776176   1.785789   2.807415   4.220670   4.723426
    10  H    3.900951   2.583480   1.518511   2.644724   4.012476
    11  H    4.705360   4.199555   2.866645   1.761468   2.866646
    12  H    3.900944   4.456436   4.012468   2.644722   1.518507
                    6          7          8          9         10
     6  C    0.000000
     7  Cl   1.785782   0.000000
     8  Cl   2.775676   3.165264   0.000000
     9  Cl   4.120880   5.530743   3.165269   0.000000
    10  H    4.456436   6.240940   5.351736   3.115563   0.000000
    11  H    4.199543   5.670065   6.490008   5.670085   3.219135
    12  H    2.583467   3.115544   5.351725   6.240946   5.287299
                   11         12
    11  H    0.000000
    12  H    3.219125   0.000000
 Stoichiometry    C6H3Cl3(1-,2)
 Framework group  CS[SG(C6H3Cl3)]
 Deg. of freedom    21
 Full point group                 CS      NOp   2
 Largest Abelian subgroup         CS      NOp   2
 Largest concise Abelian subgroup C1      NOp   1
                         Standard orientation:                         
 ---------------------------------------------------------------------
 Center     Atomic      Atomic             Coordinates (Angstroms)
 Number     Number       Type             X           Y           Z
 ---------------------------------------------------------------------
      1          6           0        0.000000    0.262487    0.000000
      2          6           0        1.246900   -0.432707    0.000000
      3          6           0        1.304441   -1.890226    0.000000
      4          6           0       -0.000014   -2.681405    0.000000
      5          6           0       -1.304464   -1.890205    0.000000
      6          6           0       -1.246904   -0.432702    0.000000
      7         17           0       -2.765366    0.507132    0.000000
      8         17           0        0.000007    2.047135    0.000000
      9         17           0        2.765377    0.507116    0.000000
     10          1           0        2.643637   -2.606068    0.000000
     11          1           0       -0.000030   -4.442873    0.000000
     12          1           0       -2.643662   -2.606034    0.000000
 ---------------------------------------------------------------------
 Rotational constants (GHZ):           1.3491523           0.8059333           0.5045399
 Standard basis: VSTO-6G (5D, 7F)
 There are    30 symmetry adapted cartesian basis functions of A'  symmetry.
 There are     9 symmetry adapted cartesian basis functions of A"  symmetry.
 There are    30 symmetry adapted basis functions of A'  symmetry.
 There are     9 symmetry adapted basis functions of A"  symmetry.
    39 basis functions,   234 primitive gaussians,    39 cartesian basis functions
    25 alpha electrons       24 beta electrons
       nuclear repulsion energy       246.2739880057 Hartrees.
 Integral buffers will be    131072 words long.
 Regular integral format.
 Two-electron integral symmetry is turned off.
 Do NDO integrals.
 One-electron integrals computed using PRISM.
 NBasis=    39 RedAO= T EigKep=  1.00D+00  NBF=    30     9
 NBsUse=    39 1.00D-06 EigRej= -1.00D+00 NBFU=    30     9
 Initial guess from the checkpoint file:  "geometry_chks/123ClBzAnionRadical.chk"
 B after Tr=    -0.000000    0.000000    0.000000
         Rot=    1.000000    0.000000   -0.000000    0.000001 Ang=   0.00 deg.
 Initial guess orbital symmetries:
 Alpha Orbitals:
       Occupied  (A') (A') (A') (A') (A') (A') (A') (A') (A') (A')
                 (A') (A") (A') (A") (A") (A') (A') (A') (A') (A")
                 (A') (A') (A") (A") (A')
       Virtual   (A') (A") (A') (A") (A') (A') (A') (A") (A') (A')
                 (A') (A') (A') (A')
 Beta  Orbitals:
       Occupied  (A') (A') (A') (A') (A') (A') (A') (A') (A') (A')
                 (A') (A") (A') (A") (A") (A') (A') (A') (A') (A")
                 (A') (A") (A") (A')
       Virtual   (A") (A') (A") (A') (A') (A') (A') (A") (A') (A')
                 (A') (A') (A') (A') (A')
 Initial guess <Sx>= 0.0000 <Sy>= 0.0000 <Sz>= 0.5000 <S**2>= 1.0446 S= 0.6378
 Keep J ints in memory in canonical form, NReq=863709.
 Overlap will be assumed to be unity.
 Requested convergence on RMS density matrix=1.00D-08 within  32 cycles.
 Requested convergence on MAX density matrix=1.00D-06.
 Requested convergence on             energy=1.00D-06.
 No special actions if energy rises.
 Fock symm off for IB=2 I1=    1 I=   31 J=   25 Cut=1.00D-07 Err=1.97D-02
 Fock matrix is not symmetric: symmetry in diagonalization turned off.
 SCF Done:  E(UAM1) =  0.281472700685     A.U. after   24 cycles
            NFock= 23  Conv=0.59D-08     -V/T= 1.0025
 <Sx>= 0.0000 <Sy>= 0.0000 <Sz>= 0.5000 <S**2>= 1.2755 S= 0.7351
 <L.S>=  0.00000000000    
 Annihilation of the first spin contaminant:
 S**2 before annihilation     1.2755,   after     0.9931
 QCSCF skips out because SCF is already converged.
 Calling FoFJK, ICntrl=      2127 FMM=F ISym2X=1 I1Cent= 0 IOpClX= 1 NMat=1 NMatS=1 NMatT=0.
 ***** Axes restored to original set *****
 -------------------------------------------------------------------
 Center     Atomic                   Forces (Hartrees/Bohr)
 Number     Number              X              Y              Z
 -------------------------------------------------------------------
      1        6          -0.000092212    0.000052823    0.000000000
      2        6           0.042398515   -0.019247780    0.000000000
      3        6           0.011234771   -0.021746158    0.000000000
      4        6          -0.059136714    0.032010690    0.000000000
      5        6           0.024358891    0.002480893    0.000000000
      6        6           0.039292521   -0.024971653   -0.000000000
      7       17           0.032176288    0.016662173   -0.000000000
      8       17           0.033169367   -0.017954517   -0.000000000
      9       17           0.003643466   -0.036054842   -0.000000000
     10        1          -0.104205818   -0.069014910   -0.000000000
     11        1          -0.023644069    0.012798509   -0.000000000
     12        1           0.000804993    0.124984771   -0.000000000
 -------------------------------------------------------------------
 Cartesian Forces:  Max     0.124984771 RMS     0.035773750

 GradGradGradGradGradGradGradGradGradGradGradGradGradGradGradGradGradGrad
 Berny optimization.
 Using GEDIIS/GDIIS optimizer.
 FormGI is forming the generalized inverse of G from B-inverse, IUseBI=4.
 Internal  Forces:  Max     0.124987551 RMS     0.039485742
 Search for a local minimum.
 Step number   3 out of a maximum of   64
 All quantities printed in internal units (Hartrees-Bohrs-Radians)
 Mixed Optimization -- RFO/linear search
 Update second derivatives using D2CorX and points    2    3
 ITU=  0  1  0
 Use linear search instead of GDIIS.
     Eigenvalues ---    0.01151   0.02011   0.02011   0.02011   0.02011
     Eigenvalues ---    0.02011   0.02011   0.02011   0.02011   0.02011
     Eigenvalues ---    0.06524   0.06708   0.15991   0.16000   0.16000
     Eigenvalues ---    0.21846   0.23547   0.24373   0.25000   0.25000
     Eigenvalues ---    0.25006   0.26645   0.29033   0.29036   0.34461
     Eigenvalues ---    0.41228   0.44389   0.44656   0.44657   0.63813
 RFO step:  Lambda=-1.68692648D-01 EMin= 1.15122494D-02
 Quartic linear search produced a step of -0.49578.
 Maximum step size (   0.505) exceeded in Quadratic search.
    -- Step size scaled by   0.569
 Iteration  1 RMS(Cart)=  0.09553480 RMS(Int)=  0.00078978
 Iteration  2 RMS(Cart)=  0.00113653 RMS(Int)=  0.00010036
 Iteration  3 RMS(Cart)=  0.00000040 RMS(Int)=  0.00010035
 ClnCor:  largest displacement from symmetrization is 6.16D-10 for atom    11.
 Variable       Old X    -DE/DX   Delta X   Delta X   Delta X     New X
                                 (Linear)    (Quad)   (Total)
    R1        2.69778  -0.04803  -0.02262   0.00158  -0.02089   2.67690
    R2        2.69778  -0.04803  -0.02262   0.00158  -0.02089   2.67690
    R3        3.37250  -0.03772  -0.03291  -0.05674  -0.08965   3.28284
    R4        2.75646  -0.08626  -0.06007  -0.02151  -0.08158   2.67488
    R5        3.37465  -0.03621  -0.03266  -0.05036  -0.08302   3.29163
    R6        2.88304  -0.11528  -0.13448  -0.04186  -0.17650   2.70654
    R7        2.86957  -0.12499   0.13563  -0.33393  -0.19829   2.67128
    R8        2.88305  -0.11528  -0.13448  -0.04187  -0.17650   2.70655
    R9        3.32869  -0.02689  -0.03645  -0.11944  -0.15589   3.17280
   R10        2.75643  -0.08625  -0.06006  -0.02150  -0.08156   2.67487
   R11        2.86956  -0.12499   0.13563  -0.33393  -0.19830   2.67126
   R12        3.37464  -0.03620  -0.03266  -0.05035  -0.08301   3.29163
    A1        2.12437  -0.01874  -0.01956  -0.01239  -0.03164   2.09273
    A2        2.07940   0.00937   0.00978   0.00620   0.01582   2.09522
    A3        2.07941   0.00937   0.00978   0.00620   0.01582   2.09523
    A4        2.11887  -0.00756  -0.01619  -0.01127  -0.02730   2.09156
    A5        2.07876   0.00639   0.01018   0.00647   0.01657   2.09533
    A6        2.08556   0.00118   0.00601   0.00480   0.01073   2.09629
    A7        2.07654   0.02077   0.01731   0.03078   0.04794   2.12448
    A8        2.10114  -0.01017  -0.00816  -0.01809  -0.02618   2.07497
    A9        2.10550  -0.01060  -0.00915  -0.01269  -0.02176   2.08374
   A10        2.05118  -0.00768   0.01732  -0.02663  -0.00963   2.04155
   A11        2.11601   0.00384  -0.00866   0.01332   0.00482   2.12082
   A12        2.11600   0.00384  -0.00866   0.01332   0.00482   2.12082
   A13        2.07654   0.02077   0.01731   0.03078   0.04794   2.12448
   A14        2.10550  -0.01060  -0.00915  -0.01269  -0.02176   2.08374
   A15        2.10115  -0.01017  -0.00816  -0.01809  -0.02618   2.07497
   A16        2.11888  -0.00757  -0.01620  -0.01127  -0.02731   2.09157
   A17        2.07876   0.00639   0.01018   0.00647   0.01657   2.09533
   A18        2.08555   0.00118   0.00601   0.00480   0.01074   2.09629
    D1        0.00000  -0.00000   0.00000   0.00000   0.00000   0.00000
    D2        3.14159  -0.00000   0.00000  -0.00000   0.00000   3.14159
    D3        3.14159   0.00000   0.00000   0.00000   0.00000   3.14159
    D4        0.00000  -0.00000   0.00000   0.00000   0.00000   0.00000
    D5        0.00000   0.00000   0.00000  -0.00000   0.00000   0.00000
    D6        3.14159   0.00000   0.00000   0.00000   0.00000   3.14159
    D7        3.14159  -0.00000   0.00000  -0.00000   0.00000   3.14159
    D8        0.00000  -0.00000   0.00000  -0.00000   0.00000   0.00000
    D9        0.00000  -0.00000   0.00000  -0.00000   0.00000   0.00000
   D10        3.14159  -0.00000   0.00000  -0.00000   0.00000   3.14159
   D11        3.14159   0.00000   0.00000   0.00000   0.00000   3.14159
   D12        0.00000   0.00000   0.00000  -0.00000   0.00000   0.00000
   D13        0.00000   0.00000   0.00000   0.00000   0.00000   0.00000
   D14        3.14159  -0.00000   0.00000  -0.00000   0.00000   3.14159
   D15        3.14159   0.00000   0.00000   0.00000   0.00000   3.14159
   D16        0.00000   0.00000   0.00000   0.00000   0.00000   0.00000
   D17        0.00000   0.00000   0.00000  -0.00000   0.00000   0.00000
   D18        3.14159  -0.00000   0.00000  -0.00000   0.00000   3.14159
   D19        3.14159   0.00000   0.00000   0.00000   0.00000   3.14159
   D20        0.00000   0.00000   0.00000  -0.00000   0.00000   0.00000
   D21        0.00000  -0.00000   0.00000   0.00000   0.00000   0.00000
   D22        3.14159  -0.00000   0.00000  -0.00000   0.00000   3.14159
   D23        3.14159   0.00000   0.00000   0.00000   0.00000   3.14159
   D24        0.00000  -0.00000   0.00000   0.00000   0.00000   0.00000
         Item               Value     Threshold  Converged?
 Maximum Force            0.124988     0.000450     NO 
 RMS     Force            0.039486     0.000300     NO 
 Maximum Displacement     0.351379     0.001800     NO 
 RMS     Displacement     0.095748     0.001200     NO 
 Predicted change in Energy=-9.864423D-02
 GradGradGradGradGradGradGradGradGradGradGradGradGradGradGradGradGradGrad

                          Input orientation:                          
 ---------------------------------------------------------------------
 Center     Atomic      Atomic             Coordinates (Angstroms)
 Number     Number       Type             X           Y           Z
 ---------------------------------------------------------------------
      1          6           0       -3.194060    0.191191    0.000000
      2          6           0       -1.986588    0.931887    0.000000
      3          6           0       -0.744243    0.253523    0.000000
      4          6           0       -0.667099   -1.176637    0.000000
      5          6           0       -1.906712   -1.894047    0.000000
      6          6           0       -3.153983   -1.224795    0.000000
      7         17           0       -4.636379   -2.139433    0.000000
      8         17           0       -4.721810    1.018152    0.000000
      9         17           0       -2.031350    2.673169    0.000000
     10          1           0        0.448260    1.012562    0.000000
     11          1           0        0.809439   -1.975884    0.000000
     12          1           0       -1.890175   -3.307520    0.000000
 ---------------------------------------------------------------------
                    Distance matrix (angstroms):
                    1          2          3          4          5
     1  C    0.000000
     2  C    1.416552   0.000000
     3  C    2.450610   1.415485   0.000000
     4  C    2.873410   2.487354   1.432240   0.000000
     5  C    2.450609   2.827063   2.442006   1.432242   0.000000
     6  C    1.416553   2.452364   2.827060   2.487350   1.415480
     7  Cl   2.740820   4.056402   4.568912   4.084380   2.740674
     8  Cl   1.737206   2.736583   4.050395   4.610617   4.050393
     9  Cl   2.740823   1.741857   2.740681   4.084384   4.568917
    10  H    3.733784   2.436184   1.413578   2.456953   3.740892
    11  H    4.552386   4.033968   2.717385   1.678975   2.717383
    12  H    3.733777   4.240503   3.740880   2.456944   1.413569
                    6          7          8          9         10
     6  C    0.000000
     7  Cl   1.741856   0.000000
     8  Cl   2.736584   3.158740   0.000000
     9  Cl   4.056406   5.472414   3.158744   0.000000
    10  H    4.240509   5.982360   5.170074   2.984306   0.000000
    11  H    4.033961   5.448273   6.289592   5.448282   3.010192
    12  H    2.436176   2.984303   5.170067   5.982355   4.912370
                   11         12
    11  H    0.000000
    12  H    3.010178   0.000000
 Stoichiometry    C6H3Cl3(1-,2)
 Framework group  CS[SG(C6H3Cl3)]
 Deg. of freedom    21
 Full point group                 CS      NOp   2
 Largest Abelian subgroup         CS      NOp   2
 Largest concise Abelian subgroup C1      NOp   1
                         Standard orientation:                         
 ---------------------------------------------------------------------
 Center     Atomic      Atomic             Coordinates (Angstroms)
 Number     Number       Type             X           Y           Z
 ---------------------------------------------------------------------
      1          6           0        0.000000    0.294315    0.000000
      2          6           0        1.226181   -0.414980    0.000000
      3          6           0        1.220999   -1.830455    0.000000
      4          6           0       -0.000004   -2.579096    0.000000
      5          6           0       -1.221007   -1.830450    0.000000
      6          6           0       -1.226183   -0.414980    0.000000
      7         17           0       -2.736205    0.453290    0.000000
      8         17           0        0.000001    2.031521    0.000000
      9         17           0        2.736209    0.453285    0.000000
     10          1           0        2.456186   -2.517854    0.000000
     11          1           0       -0.000011   -4.258071    0.000000
     12          1           0       -2.456184   -2.517847    0.000000
 ---------------------------------------------------------------------
 Rotational constants (GHZ):           1.4262626           0.8317125           0.5253559
 Standard basis: VSTO-6G (5D, 7F)
 There are    30 symmetry adapted cartesian basis functions of A'  symmetry.
 There are     9 symmetry adapted cartesian basis functions of A"  symmetry.
 There are    30 symmetry adapted basis functions of A'  symmetry.
 There are     9 symmetry adapted basis functions of A"  symmetry.
    39 basis functions,   234 primitive gaussians,    39 cartesian basis functions
    25 alpha electrons       24 beta electrons
       nuclear repulsion energy       250.3657116604 Hartrees.
 Integral buffers will be    131072 words long.
 Regular integral format.
 Two-electron integral symmetry is turned off.
 Do NDO integrals.
 One-electron integrals computed using PRISM.
 NBasis=    39 RedAO= T EigKep=  1.00D+00  NBF=    30     9
 NBsUse=    39 1.00D-06 EigRej= -1.00D+00 NBFU=    30     9
 Initial guess from the checkpoint file:  "geometry_chks/123ClBzAnionRadical.chk"
 B after Tr=     0.000000    0.000000   -0.000000
         Rot=    1.000000   -0.000000    0.000000   -0.000001 Ang=  -0.00 deg.
 Initial guess orbital symmetries:
 Alpha Orbitals:
       Occupied  (A') (A') (A') (A') (A') (A') (A') (A') (A') (A')
                 (A') (A") (A') (A") (A") (A') (A') (A') (A') (A")
                 (A') (A') (A") (A") (A')
       Virtual   (A') (A") (A") (A') (A') (A') (A') (A") (A') (A')
                 (A') (A') (A') (A')
 Beta  Orbitals:
       Occupied  (A') (A') (A') (A') (A') (A') (A') (A') (A') (A')
                 (A') (A") (A') (A") (A") (A') (A') (A') (A') (A")
                 (A') (A") (A") (A')
       Virtual   (A') (A") (A') (A") (A') (A') (A') (A") (A') (A')
                 (A') (A') (A') (A') (A')
 Initial guess <Sx>= 0.0000 <Sy>= 0.0000 <Sz>= 0.5000 <S**2>= 1.2755 S= 0.7351
 Keep J ints in memory in canonical form, NReq=863709.
 Overlap will be assumed to be unity.
 Requested convergence on RMS density matrix=1.00D-08 within  32 cycles.
 Requested convergence on MAX density matrix=1.00D-06.
 Requested convergence on             energy=1.00D-06.
 No special actions if energy rises.
 Fock symm off for IB=2 I1=    1 I=   31 J=   25 Cut=1.00D-07 Err=5.96D-03
 Fock matrix is not symmetric: symmetry in diagonalization turned off.
 SCF Done:  E(UAM1) =  0.176277193626     A.U. after   20 cycles
            NFock= 19  Conv=0.93D-08     -V/T= 1.0015
 <Sx>= 0.0000 <Sy>= 0.0000 <Sz>= 0.5000 <S**2>= 0.9583 S= 0.5992
 <L.S>=  0.00000000000    
 Annihilation of the first spin contaminant:
 S**2 before annihilation     0.9583,   after     0.7824
 QCSCF skips out because SCF is already converged.
 Calling FoFJK, ICntrl=      2127 FMM=F ISym2X=1 I1Cent= 0 IOpClX= 1 NMat=1 NMatS=1 NMatT=0.
 ***** Axes restored to original set *****
 -------------------------------------------------------------------
 Center     Atomic                   Forces (Hartrees/Bohr)
 Number     Number              X              Y              Z
 -------------------------------------------------------------------
      1        6          -0.000614128    0.000333081    0.000000000
      2        6           0.017644212   -0.012262689    0.000000000
      3        6           0.056326239    0.019680182    0.000000000
      4        6          -0.018062062    0.009776679    0.000000000
      5        6           0.014325783   -0.057921261    0.000000000
      6        6           0.019911617   -0.008065954    0.000000000
      7       17           0.013890679    0.007830165   -0.000000000
      8       17           0.014121729   -0.007644068   -0.000000000
      9       17           0.001039374   -0.015913178   -0.000000000
     10        1          -0.095059575   -0.060864167   -0.000000000
     11        1          -0.022505183    0.012182006   -0.000000000
     12        1          -0.001018685    0.112869204   -0.000000000
 -------------------------------------------------------------------
 Cartesian Forces:  Max     0.112869204 RMS     0.031344043

 GradGradGradGradGradGradGradGradGradGradGradGradGradGradGradGradGradGrad
 Berny optimization.
 Using GEDIIS/GDIIS optimizer.
 FormGI is forming the generalized inverse of G from B-inverse, IUseBI=4.
 Internal  Forces:  Max     0.112874614 RMS     0.026157835
 Search for a local minimum.
 Step number   4 out of a maximum of   64
 All quantities printed in internal units (Hartrees-Bohrs-Radians)
 Mixed Optimization -- RFO/linear search
 Update second derivatives using D2CorX and points    3    4
 DE= -1.05D-01 DEPred=-9.86D-02 R= 1.07D+00
 TightC=F SS=  1.41D+00  RLast= 4.61D-01 DXNew= 8.4853D-01 1.3815D+00
 Trust test= 1.07D+00 RLast= 4.61D-01 DXMaxT set to 8.49D-01
 ITU=  1  0  1  0
 Use linear search instead of GDIIS.
     Eigenvalues ---    0.01208   0.02011   0.02011   0.02011   0.02011
     Eigenvalues ---    0.02011   0.02011   0.02011   0.02011   0.02011
     Eigenvalues ---    0.06524   0.06818   0.16000   0.16000   0.16000
     Eigenvalues ---    0.22172   0.23471   0.24710   0.25000   0.25000
     Eigenvalues ---    0.25004   0.27345   0.29033   0.29033   0.31174
     Eigenvalues ---    0.40955   0.44104   0.44656   0.44657   0.53046
 RFO step:  Lambda=-9.96418192D-02 EMin= 1.20767683D-02
 Quartic linear search produced a step of  1.02640.
 Maximum step size (   0.849) exceeded in Quadratic search.
    -- Step size scaled by   0.953
 Iteration  1 RMS(Cart)=  0.05630916 RMS(Int)=  0.11058726
 Iteration  2 RMS(Cart)=  0.03768731 RMS(Int)=  0.07208294
 Iteration  3 RMS(Cart)=  0.03773206 RMS(Int)=  0.03359329
 Iteration  4 RMS(Cart)=  0.03293198 RMS(Int)=  0.00021394
 Iteration  5 RMS(Cart)=  0.00000010 RMS(Int)=  0.00021394
 ClnCor:  largest displacement from symmetrization is 9.36D-09 for atom     7.
 Variable       Old X    -DE/DX   Delta X   Delta X   Delta X     New X
                                 (Linear)    (Quad)   (Total)
    R1        2.67690  -0.02245  -0.02144   0.01704  -0.00472   2.67218
    R2        2.67690  -0.02245  -0.02144   0.01704  -0.00472   2.67218
    R3        3.28284  -0.01606  -0.09202   0.03297  -0.05904   3.22380
    R4        2.67488  -0.03750  -0.08373   0.06343  -0.02029   2.65459
    R5        3.29163  -0.01593  -0.08521   0.03091  -0.05430   3.23734
    R6        2.70654  -0.05387  -0.18115   0.15604  -0.02479   2.68175
    R7        2.67128  -0.11287  -0.20353  -0.57101  -0.77454   1.89674
    R8        2.70655  -0.05387  -0.18116   0.15604  -0.02480   2.68174
    R9        3.17280  -0.02559  -0.16000  -0.05309  -0.21309   2.95971
   R10        2.67487  -0.03750  -0.08371   0.06343  -0.02028   2.65459
   R11        2.67126  -0.11287  -0.20354  -0.57099  -0.77453   1.89673
   R12        3.29163  -0.01593  -0.08520   0.03091  -0.05429   3.23734
    A1        2.09273  -0.01055  -0.03247   0.01484  -0.01831   2.07443
    A2        2.09522   0.00528   0.01624  -0.00742   0.00915   2.10438
    A3        2.09523   0.00528   0.01624  -0.00742   0.00915   2.10438
    A4        2.09156  -0.00251  -0.02802   0.02643  -0.00193   2.08963
    A5        2.09533   0.00229   0.01701  -0.01521   0.00197   2.09730
    A6        2.09629   0.00022   0.01102  -0.01122  -0.00003   2.09626
    A7        2.12448   0.00870   0.04921  -0.02111   0.02842   2.15290
    A8        2.07497  -0.00395  -0.02687   0.01268  -0.01435   2.06061
    A9        2.08374  -0.00475  -0.02234   0.00843  -0.01407   2.06967
   A10        2.04155  -0.00181  -0.00989  -0.02548  -0.03467   2.00687
   A11        2.12082   0.00091   0.00494   0.01274   0.01734   2.13816
   A12        2.12082   0.00091   0.00494   0.01274   0.01734   2.13815
   A13        2.12448   0.00870   0.04921  -0.02111   0.02842   2.15290
   A14        2.08374  -0.00475  -0.02234   0.00843  -0.01407   2.06967
   A15        2.07497  -0.00395  -0.02687   0.01268  -0.01436   2.06062
   A16        2.09157  -0.00252  -0.02803   0.02643  -0.00194   2.08963
   A17        2.09533   0.00229   0.01701  -0.01521   0.00197   2.09729
   A18        2.09629   0.00022   0.01102  -0.01122  -0.00003   2.09626
    D1        0.00000   0.00000   0.00000   0.00000   0.00000   0.00000
    D2        3.14159  -0.00000   0.00000  -0.00000   0.00000   3.14159
    D3        3.14159   0.00000   0.00000   0.00000   0.00000   3.14159
    D4        0.00000  -0.00000   0.00000  -0.00000   0.00000   0.00000
    D5        0.00000   0.00000   0.00000  -0.00000   0.00000   0.00000
    D6        3.14159   0.00000   0.00000   0.00000   0.00000   3.14159
    D7        3.14159  -0.00000   0.00000  -0.00000   0.00000   3.14159
    D8        0.00000   0.00000   0.00000   0.00000   0.00000   0.00000
    D9        0.00000  -0.00000   0.00000  -0.00000   0.00000   0.00000
   D10        3.14159  -0.00000   0.00000  -0.00000   0.00000   3.14159
   D11        3.14159   0.00000   0.00000   0.00000   0.00000   3.14159
   D12        0.00000   0.00000   0.00000  -0.00000   0.00000   0.00000
   D13        0.00000   0.00000   0.00000   0.00000   0.00000   0.00000
   D14        3.14159  -0.00000   0.00000  -0.00000   0.00000   3.14159
   D15        3.14159   0.00000   0.00000   0.00000   0.00000   3.14159
   D16        0.00000   0.00000   0.00000   0.00000   0.00000   0.00000
   D17        0.00000   0.00000   0.00000   0.00000   0.00000   0.00000
   D18        3.14159  -0.00000   0.00000  -0.00000   0.00000   3.14159
   D19        3.14159   0.00000   0.00000   0.00000   0.00000   3.14159
   D20        0.00000  -0.00000   0.00000  -0.00000   0.00000   0.00000
   D21        0.00000  -0.00000   0.00000  -0.00000   0.00000   0.00000
   D22        3.14159  -0.00000   0.00000  -0.00000   0.00000   3.14159
   D23        3.14159   0.00000   0.00000   0.00000   0.00000   3.14159
   D24        0.00000  -0.00000   0.00000   0.00000   0.00000   0.00000
         Item               Value     Threshold  Converged?
 Maximum Force            0.112875     0.000450     NO 
 RMS     Force            0.026158     0.000300     NO 
 Maximum Displacement     0.788394     0.001800     NO 
 RMS     Displacement     0.158253     0.001200     NO 
 Predicted change in Energy=-1.720013D-01
 GradGradGradGradGradGradGradGradGradGradGradGradGradGradGradGradGradGrad

                          Input orientation:                          
 ---------------------------------------------------------------------
 Center     Atomic      Atomic             Coordinates (Angstroms)
 Number     Number       Type             X           Y           Z
 ---------------------------------------------------------------------
      1          6           0       -3.167521    0.176826    0.000000
      2          6           0       -1.955459    0.905153    0.000000
      3          6           0       -0.730078    0.218307    0.000000
      4          6           0       -0.629086   -1.197214    0.000000
      5          6           0       -1.869478   -1.886651    0.000000
      6          6           0       -3.114580   -1.236238    0.000000
      7         17           0       -4.562432   -2.151946    0.000000
      8         17           0       -4.667794    0.988914    0.000000
      9         17           0       -1.980436    2.618095    0.000000
     10          1           0        0.114892    0.760025    0.000000
[...]
   A18        2.03178  -0.00009  -0.00007  -0.00046  -0.00053   2.03125
    D1        0.00000  -0.00000   0.00000   0.00000   0.00000   0.00000
    D2        3.14159  -0.00000   0.00000  -0.00000   0.00000   3.14159
    D3        3.14159   0.00000   0.00000   0.00000   0.00000   3.14159
    D4       -0.00000   0.00000   0.00000   0.00000   0.00000   0.00000
    D5       -0.00000   0.00000   0.00000  -0.00000   0.00000   0.00000
    D6        3.14159   0.00000   0.00000   0.00000   0.00000   3.14159
    D7        3.14159  -0.00000   0.00000  -0.00000   0.00000   3.14159
    D8        0.00000  -0.00000   0.00000   0.00000   0.00000   0.00000
    D9       -0.00000  -0.00000   0.00000  -0.00000   0.00000   0.00000
   D10        3.14159  -0.00000   0.00000  -0.00000   0.00000   3.14159
   D11        3.14159   0.00000   0.00000   0.00000   0.00000   3.14159
   D12        0.00000  -0.00000   0.00000   0.00000   0.00000   0.00000
   D13        0.00000   0.00000   0.00000   0.00000  -0.00000   0.00000
   D14        3.14159  -0.00000   0.00000  -0.00000   0.00000   3.14159
   D15        3.14159   0.00000   0.00000   0.00000   0.00000   3.14159
   D16       -0.00000   0.00000   0.00000  -0.00000   0.00000   0.00000
   D17        0.00000  -0.00000   0.00000  -0.00000   0.00000   0.00000
   D18        3.14159  -0.00000   0.00000  -0.00000   0.00000   3.14159
   D19        3.14159   0.00000   0.00000   0.00000   0.00000   3.14159
   D20       -0.00000   0.00000   0.00000  -0.00000   0.00000   0.00000
   D21        0.00000   0.00000   0.00000   0.00000   0.00000   0.00000
   D22        3.14159   0.00000   0.00000  -0.00000   0.00000   3.14159
   D23        3.14159   0.00000   0.00000   0.00000   0.00000   3.14159
   D24        0.00000   0.00000   0.00000  -0.00000  -0.00000   0.00000
         Item               Value     Threshold  Converged?
 Maximum Force            0.000264     0.000450     YES
 RMS     Force            0.000071     0.000300     YES
 Maximum Displacement     0.001698     0.001800     YES
 RMS     Displacement     0.000396     0.001200     YES
 Predicted change in Energy=-5.994359D-07
 Optimization completed.
    -- Stationary point found.
                           ----------------------------
                           !   Optimized Parameters   !
                           ! (Angstroms and Degrees)  !
 --------------------------                            --------------------------
 ! Name  Definition              Value          Derivative Info.                !
 --------------------------------------------------------------------------------
 ! R1    R(1,2)                  1.3988         -DE/DX =    0.0                 !
 ! R2    R(1,6)                  1.3988         -DE/DX =    0.0                 !
 ! R3    R(1,8)                  1.7084         -DE/DX =    0.0                 !
 ! R4    R(2,3)                  1.4022         -DE/DX =    0.0001              !
 ! R5    R(2,9)                  1.797          -DE/DX =    0.0003              !
 ! R6    R(3,4)                  1.3983         -DE/DX =   -0.0001              !
 ! R7    R(3,10)                 1.0977         -DE/DX =    0.0                 !
 ! R8    R(4,5)                  1.3984         -DE/DX =   -0.0002              !
 ! R9    R(4,11)                 1.0987         -DE/DX =    0.0001              !
 ! R10   R(5,6)                  1.4022         -DE/DX =    0.0001              !
 ! R11   R(5,12)                 1.0979         -DE/DX =   -0.0002              !
 ! R12   R(6,7)                  1.797          -DE/DX =    0.0003              !
 ! A1    A(2,1,6)              120.4855         -DE/DX =   -0.0001              !
 ! A2    A(2,1,8)              119.7573         -DE/DX =    0.0001              !
 ! A3    A(6,1,8)              119.7573         -DE/DX =    0.0001              !
 ! A4    A(1,2,3)              119.6779         -DE/DX =    0.0001              !
 ! A5    A(1,2,9)              123.9096         -DE/DX =    0.0                 !
 ! A6    A(3,2,9)              116.4125         -DE/DX =   -0.0001              !
 ! A7    A(2,3,4)              119.9635         -DE/DX =    0.0                 !
 ! A8    A(2,3,10)             119.8638         -DE/DX =    0.0                 !
 ! A9    A(4,3,10)             120.1727         -DE/DX =    0.0                 !
 ! A10   A(3,4,5)              120.232          -DE/DX =    0.0001              !
 ! A11   A(3,4,11)             119.884          -DE/DX =    0.0                 !
 ! A12   A(5,4,11)             119.884          -DE/DX =    0.0                 !
 ! A13   A(4,5,6)              119.9631         -DE/DX =    0.0                 !
 ! A14   A(4,5,12)             120.1729         -DE/DX =    0.0                 !
 ! A15   A(6,5,12)             119.8641         -DE/DX =    0.0                 !
 ! A16   A(1,6,5)              119.6781         -DE/DX =    0.0001              !
 ! A17   A(1,6,7)              123.9095         -DE/DX =    0.0                 !
 ! A18   A(5,6,7)              116.4124         -DE/DX =   -0.0001              !
 ! D1    D(6,1,2,3)              0.0            -DE/DX =    0.0                 !
 ! D2    D(6,1,2,9)            180.0            -DE/DX =    0.0                 !
 ! D3    D(8,1,2,3)            180.0            -DE/DX =    0.0                 !
 ! D4    D(8,1,2,9)              0.0            -DE/DX =    0.0                 !
 ! D5    D(2,1,6,5)              0.0            -DE/DX =    0.0                 !
 ! D6    D(2,1,6,7)            180.0            -DE/DX =    0.0                 !
 ! D7    D(8,1,6,5)            180.0            -DE/DX =    0.0                 !
 ! D8    D(8,1,6,7)              0.0            -DE/DX =    0.0                 !
 ! D9    D(1,2,3,4)              0.0            -DE/DX =    0.0                 !
 ! D10   D(1,2,3,10)           180.0            -DE/DX =    0.0                 !
 ! D11   D(9,2,3,4)            180.0            -DE/DX =    0.0                 !
 ! D12   D(9,2,3,10)             0.0            -DE/DX =    0.0                 !
 ! D13   D(2,3,4,5)              0.0            -DE/DX =    0.0                 !
 ! D14   D(2,3,4,11)           180.0            -DE/DX =    0.0                 !
 ! D15   D(10,3,4,5)           180.0            -DE/DX =    0.0                 !
 ! D16   D(10,3,4,11)            0.0            -DE/DX =    0.0                 !
 ! D17   D(3,4,5,6)              0.0            -DE/DX =    0.0                 !
 ! D18   D(3,4,5,12)           180.0            -DE/DX =    0.0                 !
 ! D19   D(11,4,5,6)           180.0            -DE/DX =    0.0                 !
 ! D20   D(11,4,5,12)            0.0            -DE/DX =    0.0                 !
 ! D21   D(4,5,6,1)              0.0            -DE/DX =    0.0                 !
 ! D22   D(4,5,6,7)            180.0            -DE/DX =    0.0                 !
 ! D23   D(12,5,6,1)           180.0            -DE/DX =    0.0                 !
 ! D24   D(12,5,6,7)             0.0            -DE/DX =    0.0                 !
 --------------------------------------------------------------------------------
 GradGradGradGradGradGradGradGradGradGradGradGradGradGradGradGradGradGrad

                          Input orientation:                          
 ---------------------------------------------------------------------
 Center     Atomic      Atomic             Coordinates (Angstroms)
 Number     Number       Type             X           Y           Z
 ---------------------------------------------------------------------
      1          6           0       -3.119186    0.150680    0.000000
      2          6           0       -1.930557    0.888131   -0.000000
      3          6           0       -0.698309    0.218915   -0.000000
      4          6           0       -0.662737   -1.178980    0.000000
      5          6           0       -1.852601   -1.913560    0.000000
      6          6           0       -3.086698   -1.247755    0.000000
      7         17           0       -4.554395   -2.284652    0.000000
      8         17           0       -4.621571    0.963911    0.000000
      9         17           0       -1.864917    2.683955   -0.000000
     10          1           0        0.236337    0.794598   -0.000000
     11          1           0        0.303472   -1.701980    0.000000
     12          1           0       -1.823538   -3.011095    0.000000
 ---------------------------------------------------------------------
                    Distance matrix (angstroms):
                    1          2          3          4          5
     1  C    0.000000
     2  C    1.398812   0.000000
     3  C    2.421838   1.402242   0.000000
     4  C    2.793231   2.424936   1.398348   0.000000
     5  C    2.421843   2.802775   2.424838   1.398350   0.000000
     6  C    1.398812   2.428718   2.802770   2.424936   1.402245
     7  Cl   2.826777   4.117169   4.597526   4.045679   2.727160
     8  Cl   1.708364   2.692082   3.993370   4.501595   3.993374
     9  Cl   2.826778   1.797023   2.727159   4.045677   4.597531
    10  H    3.416748   2.168911   1.097713   2.168719   3.420202
    11  H    3.891906   3.420462   2.166427   1.098676   2.166429
    12  H    3.416946   3.900694   3.420395   2.168894   1.097919
                    6          7          8          9         10
     6  C    0.000000
     7  Cl   1.797023   0.000000
     8  Cl   2.692082   3.249258   0.000000
     9  Cl   4.117170   5.649810   3.249260   0.000000
    10  H    3.900482   5.694989   4.860858   2.825764   0.000000
    11  H    3.420463   4.892686   5.600270   4.892682   2.497480
    12  H    2.169087   2.825828   4.861035   5.695200   4.327398
                   11         12
    11  H    0.000000
    12  H    2.497589   0.000000
 Stoichiometry    C6H3Cl3(1-,2)
 Framework group  CS[SG(C6H3Cl3)]
 Deg. of freedom    21
 Full point group                 CS      NOp   2
 Largest Abelian subgroup         CS      NOp   2
 Largest concise Abelian subgroup C1      NOp   1
                         Standard orientation:                         
 ---------------------------------------------------------------------
 Center     Atomic      Atomic             Coordinates (Angstroms)
 Number     Number       Type             X           Y           Z
 ---------------------------------------------------------------------
      1          6           0       -0.000002   -0.298774    0.000000
      2          6           0       -1.214361    0.395493   -0.000000
      3          6           0       -1.212419    1.797734   -0.000000
      4          6           0       -0.000002    2.494457   -0.000000
      5          6           0        1.212419    1.797737    0.000000
      6          6           0        1.214357    0.395493    0.000000
      7         17           0        2.824902   -0.401650    0.000000
      8         17           0       -0.000002   -2.007138    0.000000
      9         17           0       -2.824907   -0.401646   -0.000000
     10          1           0       -2.163610    2.345648   -0.000000
     11          1           0       -0.000004    3.593132   -0.000000
     12          1           0        2.163789    2.345755    0.000000
 ---------------------------------------------------------------------
 Rotational constants (GHZ):           1.5192409           0.7918614           0.5205430

 **********************************************************************

            Population analysis using the SCF Density.

 **********************************************************************

 Orbital symmetries:
 Alpha Orbitals:
       Occupied  (A') (A') (A') (A') (A') (A') (A') (A') (A') (A')
                 (A') (A') (A') (A") (A') (A') (A") (A") (A') (A")
                 (A') (A') (A") (A") (A')
       Virtual   (A') (A") (A") (A') (A") (A') (A') (A') (A') (A')
                 (A') (A') (A') (A')
 Beta  Orbitals:
       Occupied  (A') (A') (A') (A') (A') (A') (A') (A') (A') (A')
                 (A') (A') (A") (A') (A') (A") (A') (A") (A') (A")
                 (A') (A') (A") (A")
       Virtual   (A") (A") (A') (A') (A") (A') (A') (A') (A') (A')
                 (A') (A') (A') (A') (A')
 The electronic state is 2-A'.
 Alpha  occ. eigenvalues --   -1.28567  -1.21212  -1.16367  -1.15237  -0.98680
 Alpha  occ. eigenvalues --   -0.98049  -0.70383  -0.69778  -0.51587  -0.45710
 Alpha  occ. eigenvalues --   -0.44555  -0.39758  -0.38298  -0.38012  -0.31807
 Alpha  occ. eigenvalues --   -0.31396  -0.30370  -0.29654  -0.27305  -0.26721
 Alpha  occ. eigenvalues --   -0.25429  -0.25028  -0.19239  -0.18758  -0.02951
 Alpha virt. eigenvalues --    0.14189   0.16705   0.16963   0.21836   0.25040
 Alpha virt. eigenvalues --    0.27768   0.29465   0.30137   0.31683   0.32322
 Alpha virt. eigenvalues --    0.34107   0.34290   0.35432   0.35783
  Beta  occ. eigenvalues --   -1.28264  -1.21122  -1.14278  -1.13216  -0.98077
  Beta  occ. eigenvalues --   -0.97755  -0.70169  -0.68335  -0.51210  -0.44349
  Beta  occ. eigenvalues --   -0.44315  -0.38867  -0.37863  -0.37519  -0.30974
  Beta  occ. eigenvalues --   -0.30764  -0.30670  -0.28300  -0.26943  -0.25804
  Beta  occ. eigenvalues --   -0.24837  -0.24386  -0.19580  -0.19065
  Beta virt. eigenvalues --    0.16878   0.18745   0.20829   0.24452   0.25772
  Beta virt. eigenvalues --    0.25866   0.28249   0.29441   0.29970   0.32408
  Beta virt. eigenvalues --    0.32604   0.34216   0.34838   0.36276   0.36290
          Condensed to atoms (all electrons):
               1          2          3          4          5          6
     1  C    4.070400   0.000000   0.000000   0.000000   0.000000   0.000000
     2  C    0.000000   4.038733   0.000000   0.000000   0.000000   0.000000
     3  C    0.000000   0.000000   4.175399   0.000000   0.000000   0.000000
     4  C    0.000000   0.000000   0.000000   4.148220   0.000000   0.000000
     5  C    0.000000   0.000000   0.000000   0.000000   4.175408   0.000000
     6  C    0.000000   0.000000   0.000000   0.000000   0.000000   4.038723
     7  Cl   0.000000   0.000000   0.000000   0.000000   0.000000   0.000000
     8  Cl   0.000000   0.000000   0.000000   0.000000   0.000000   0.000000
     9  Cl   0.000000   0.000000   0.000000   0.000000   0.000000   0.000000
    10  H    0.000000   0.000000   0.000000   0.000000   0.000000   0.000000
    11  H    0.000000   0.000000   0.000000   0.000000   0.000000   0.000000
    12  H    0.000000   0.000000   0.000000   0.000000   0.000000   0.000000
               7          8          9         10         11         12
     1  C    0.000000   0.000000   0.000000   0.000000   0.000000   0.000000
     2  C    0.000000   0.000000   0.000000   0.000000   0.000000   0.000000
     3  C    0.000000   0.000000   0.000000   0.000000   0.000000   0.000000
     4  C    0.000000   0.000000   0.000000   0.000000   0.000000   0.000000
     5  C    0.000000   0.000000   0.000000   0.000000   0.000000   0.000000
     6  C    0.000000   0.000000   0.000000   0.000000   0.000000   0.000000
     7  Cl   7.308175   0.000000   0.000000   0.000000   0.000000   0.000000
     8  Cl   0.000000   7.066592   0.000000   0.000000   0.000000   0.000000
     9  Cl   0.000000   0.000000   7.308194   0.000000   0.000000   0.000000
    10  H    0.000000   0.000000   0.000000   0.882539   0.000000   0.000000
    11  H    0.000000   0.000000   0.000000   0.000000   0.905084   0.000000
    12  H    0.000000   0.000000   0.000000   0.000000   0.000000   0.882533
          Atomic-Atomic Spin Densities.
               1          2          3          4          5          6
     1  C   -0.390683   0.000000   0.000000   0.000000   0.000000   0.000000
     2  C    0.000000   0.634594   0.000000   0.000000   0.000000   0.000000
     3  C    0.000000   0.000000  -0.425084   0.000000   0.000000   0.000000
     4  C    0.000000   0.000000   0.000000   0.411204   0.000000   0.000000
     5  C    0.000000   0.000000   0.000000   0.000000  -0.425094   0.000000
     6  C    0.000000   0.000000   0.000000   0.000000   0.000000   0.634571
     7  Cl   0.000000   0.000000   0.000000   0.000000   0.000000   0.000000
     8  Cl   0.000000   0.000000   0.000000   0.000000   0.000000   0.000000
     9  Cl   0.000000   0.000000   0.000000   0.000000   0.000000   0.000000
    10  H    0.000000   0.000000   0.000000   0.000000   0.000000   0.000000
    11  H    0.000000   0.000000   0.000000   0.000000   0.000000   0.000000
    12  H    0.000000   0.000000   0.000000   0.000000   0.000000   0.000000
               7          8          9         10         11         12
     1  C    0.000000   0.000000   0.000000   0.000000   0.000000   0.000000
     2  C    0.000000   0.000000   0.000000   0.000000   0.000000   0.000000
     3  C    0.000000   0.000000   0.000000   0.000000   0.000000   0.000000
     4  C    0.000000   0.000000   0.000000   0.000000   0.000000   0.000000
     5  C    0.000000   0.000000   0.000000   0.000000   0.000000   0.000000
     6  C    0.000000   0.000000   0.000000   0.000000   0.000000   0.000000
     7  Cl   0.257211   0.000000   0.000000   0.000000   0.000000   0.000000
     8  Cl   0.000000   0.019752   0.000000   0.000000   0.000000   0.000000
     9  Cl   0.000000   0.000000   0.257236   0.000000   0.000000   0.000000
    10  H    0.000000   0.000000   0.000000   0.022366   0.000000   0.000000
    11  H    0.000000   0.000000   0.000000   0.000000  -0.018445   0.000000
    12  H    0.000000   0.000000   0.000000   0.000000   0.000000   0.022373
 Mulliken charges and spin densities:
               1          2
     1  C   -0.070400  -0.390683
     2  C   -0.038733   0.634594
     3  C   -0.175399  -0.425084
     4  C   -0.148220   0.411204
     5  C   -0.175408  -0.425094
     6  C   -0.038723   0.634571
     7  Cl  -0.308175   0.257211
     8  Cl  -0.066592   0.019752
     9  Cl  -0.308194   0.257236
    10  H    0.117461   0.022366
    11  H    0.094916  -0.018445
    12  H    0.117467   0.022373
 Sum of Mulliken charges =  -1.00000   1.00000
 Mulliken charges and spin densities with hydrogens summed into heavy atoms:
               1          2
     1  C   -0.070400  -0.390683
     2  C   -0.038733   0.634594
     3  C   -0.057938  -0.402718
     4  C   -0.053304   0.392759
     5  C   -0.057941  -0.402721
     6  C   -0.038723   0.634571
     7  Cl  -0.308175   0.257211
     8  Cl  -0.066592   0.019752
     9  Cl  -0.308194   0.257236
 Charge=             -1.0000 electrons
 Dipole moment (field-independent basis, Debye):
    X=              0.0005    Y=              1.8153    Z=              0.0000  Tot=              1.8153
 N-N= 2.528283831088D+02 E-N=-3.637418920780D+02  KE=-1.151890438104D+02
 Symmetry A'   KE=-8.918550328872D+01
 Symmetry A"   KE=-2.600354052171D+01
 Symmetry A'   SP= 1.000000000000D+00
 Symmetry A"   SP=-5.717648576820D-15
 1\1\GINC-SH02-01N40\FOpt\UAM1\ZDO\C6H3Cl3(1-,2)\JLAPIER\09-Dec-2025\0\
 \# opt am1 SCF=XQC\\3-Chloro-Benzene Anion Radical (123)\\-1,2\C,-3.11
 91861082,0.15067992,0.\C,-1.9305565854,0.8881311945,0.\C,-0.6983094715
 ,0.2189153603,0.\C,-0.6627367074,-1.1789797833,0.\C,-1.8526006937,-1.9
 135597944,0.\C,-3.0866975201,-1.2477549521,0.\Cl,-4.5543952658,-2.2846
 520687,0.\Cl,-4.6215713724,0.9639113426,0.\Cl,-1.8649174639,2.68395514
 43,0.\H,0.2363369263,0.7945978861,0.\H,0.3034718257,-1.7019797548,0.\H
 ,-1.8235375676,-3.0110945018,0.\\Version=ES64L-G16RevB.01\State=2-A'\H
 F=0.0053306\S2=1.168676\S2-1=0.\S2A=0.899035\RMSD=6.243e-09\RMSF=1.347
 e-04\Dipole=0.6280146,-0.340144,0.\PG=CS [SG(C6H3Cl3)]\\@


  ON THE CHOICE OF THE CORRECT LANGUAGE -
 I SPEAK SPANISH TO GOD, ITALIAN TO WOMEN,
 FRENCH TO MEN, AND GERMAN TO MY HORSE.
          -- CHARLES V
 Job cpu time:       0 days  0 hours  0 minutes 11.4 seconds.
 Elapsed time:       0 days  0 hours  0 minutes 24.5 seconds.
 File lengths (MBytes):  RWF=     10 Int=      0 D2E=      0 Chk=      2 Scr=      1
 Normal termination of Gaussian 16 at Tue Dec  9 09:59:04 2025.
