 Entering Gaussian System, Link 0=g16
 Initial command:
 /share/software/user/restricted/gaussian/g16.B01/l1.exe "/home/users/jlapier/Chloroaromatics/Gau-10162.inp" -scrdir="/home/users/jlapier/Chloroaromatics/"
 Entering Link 1 = /share/software/user/restricted/gaussian/g16.B01/l1.exe PID=     10163.
  
 Copyright (c) 1988-2017, Gaussian, Inc.  All Rights Reserved.
  
 This is part of the Gaussian(R) 16 program.  It is based on
 the Gaussian(R) 09 system (copyright 2009, Gaussian, Inc.),
 the Gaussian(R) 03 system (copyright 2003, Gaussian, Inc.),
 the Gaussian(R) 98 system (copyright 1998, Gaussian, Inc.),
 the Gaussian(R) 94 system (copyright 1995, Gaussian, Inc.),
 the Gaussian 92(TM) system (copyright 1992, Gaussian, Inc.),
 the Gaussian 90(TM) system (copyright 1990, Gaussian, Inc.),
 the Gaussian 88(TM) system (copyright 1988, Gaussian, Inc.),
 the Gaussian 86(TM) system (copyright 1986, Carnegie Mellon
 University), and the Gaussian 82(TM) system (copyright 1983,
 Carnegie Mellon University). Gaussian is a federally registered
 trademark of Gaussian, Inc.
  
 This software contains proprietary and confidential information,
 including trade secrets, belonging to Gaussian, Inc.
  
 This software is provided under written license and may be
 used, copied, transmitted, or stored only in accord with that
 written license.
  
 The following legend is applicable only to US Government
 contracts under FAR:
  
                    RESTRICTED RIGHTS LEGEND
  
 Use, reproduction and disclosure by the US Government is
 subject to restrictions as set forth in subparagraphs (a)
 and (c) of the Commercial Computer Software - Restricted
 Rights clause in FAR 52.227-19.
  
 Gaussian, Inc.
 340 Quinnipiac St., Bldg. 40, Wallingford CT 06492
  
  
 ---------------------------------------------------------------
 Warning -- This program may not be used in any manner that
 competes with the business of Gaussian, Inc. or will provide
 assistance to any competitor of Gaussian, Inc.  The licensee
 of this program is prohibited from giving any competitor of
 Gaussian, Inc. access to this program.  By using this program,
 the user acknowledges that Gaussian, Inc. is engaged in the
 business of creating and licensing software in the field of
 computational chemistry and represents and warrants to the
 licensee that it is not a competitor of Gaussian, Inc. and that
 it will not use this program in any manner prohibited above.
 ---------------------------------------------------------------
  

 Cite this work as:
 Gaussian 16, Revision B.01,
 M. J. Frisch, G. W. Trucks, H. B. Schlegel, G. E. Scuseria, 
 M. A. Robb, J. R. Cheeseman, G. Scalmani, V. Barone, 
 G. A. Petersson, H. Nakatsuji, X. Li, M. Caricato, A. V. Marenich, 
 J. Bloino, B. G. Janesko, R. Gomperts, B. Mennucci, H. P. Hratchian, 
 J. V. Ortiz, A. F. Izmaylov, J. L. Sonnenberg, D. Williams-Young, 
 F. Ding, F. Lipparini, F. Egidi, J. Goings, B. Peng, A. Petrone, 
 T. Henderson, D. Ranasinghe, V. G. Zakrzewski, J. Gao, N. Rega, 
 G. Zheng, W. Liang, M. Hada, M. Ehara, K. Toyota, R. Fukuda, 
 J. Hasegawa, M. Ishida, T. Nakajima, Y. Honda, O. Kitao, H. Nakai, 
 T. Vreven, K. Throssell, J. A. Montgomery, Jr., J. E. Peralta, 
 F. Ogliaro, M. J. Bearpark, J. J. Heyd, E. N. Brothers, K. N. Kudin, 
 V. N. Staroverov, T. A. Keith, R. Kobayashi, J. Normand, 
 K. Raghavachari, A. P. Rendell, J. C. Burant, S. S. Iyengar, 
 J. Tomasi, M. Cossi, J. M. Millam, M. Klene, C. Adamo, R. Cammi, 
 J. W. Ochterski, R. L. Martin, K. Morokuma, O. Farkas, 
 J. B. Foresman, and D. J. Fox, Gaussian, Inc., Wallingford CT, 2016.
 
 ******************************************
 Gaussian 16:  ES64L-G16RevB.01 20-Dec-2017
                 9-Dec-2025 
 ******************************************
 %mem=2GB
 %nprocshare=1
 Will use up to    1 processors via shared memory.
 %chk=geometry_chks/123ClBzAnionRadical.chk
 -----------------
 # opt am1 SCF=XQC
 -----------------
 1/18=20,19=15,26=1,38=1/1,3;
 2/9=110,12=2,17=6,18=5,40=1/2;
 3/5=2,25=1,41=700000,71=1/1,2,3;
 4/35=1/1;
 5/5=2,8=3,13=1,35=1,38=5/2,8;
 6/7=2,8=2,9=2,10=2,28=1/1;
 7//1,2,3,16;
 1/18=20,19=15,26=1/3(2);
 2/9=110/2;
 99//99;
 2/9=110/2;
 3/5=2,25=1,41=700000,71=1,135=20/1,2,3;
 4/5=5,16=3,35=1/1;
 5/5=2,8=3,13=1,35=1,38=5/2,8;
 7//1,2,3,16;
 1/18=20,19=15,26=1/3(-5);
 2/9=110/2;
 6/7=2,8=2,9=2,10=2,19=2,28=1/1;
 99/9=1/99;
 ------------------------------------
 3-Chloro-Benzene Anion Radical (123)
 ------------------------------------
 Symbolic Z-matrix:
 Charge = -1 Multiplicity = 2
 C                    -3.20928   0.19943   0. 
 C                    -2.0115    0.93555   0. 
 C                    -0.77511   0.2663    0. 
 C                    -0.7365   -1.13907   0. 
 C                    -1.93429  -1.87519   0. 
 C                    -3.17067  -1.20594   0. 
 Cl                   -4.67483  -2.13035   0. 
 Cl                   -4.76193   1.03987   0. 
 Cl                    0.81614  -1.97951   0. 
 H                    -1.8858   -3.64003   0. 
 H                    -2.05998   2.7004    0. 
 H                     0.72905   1.19071   0. 
 
 Add virtual bond connecting atoms H10        and C5         Dist= 3.34D+00.
 Add virtual bond connecting atoms H12        and C3         Dist= 3.34D+00.
 Add virtual bond connecting atoms H11        and C2         Dist= 3.34D+00.

 GradGradGradGradGradGradGradGradGradGradGradGradGradGradGradGradGradGrad
 Berny optimization.
 Initialization pass.
                           ----------------------------
                           !    Initial Parameters    !
                           ! (Angstroms and Degrees)  !
 --------------------------                            --------------------------
 ! Name  Definition              Value          Derivative Info.                !
 --------------------------------------------------------------------------------
 ! R1    R(1,2)                  1.4059         estimate D2E/DX2                !
 ! R2    R(1,6)                  1.4059         estimate D2E/DX2                !
 ! R3    R(1,8)                  1.7655         estimate D2E/DX2                !
 ! R4    R(2,3)                  1.4059         estimate D2E/DX2                !
 ! R5    R(2,11)                 1.7655         estimate D2E/DX2                !
 ! R6    R(3,4)                  1.4059         estimate D2E/DX2                !
 ! R7    R(3,12)                 1.7655         estimate D2E/DX2                !
 ! R8    R(4,5)                  1.4059         estimate D2E/DX2                !
 ! R9    R(4,9)                  1.7655         estimate D2E/DX2                !
 ! R10   R(5,6)                  1.4059         estimate D2E/DX2                !
 ! R11   R(5,10)                 1.7655         estimate D2E/DX2                !
 ! R12   R(6,7)                  1.7655         estimate D2E/DX2                !
 ! A1    A(2,1,6)              119.9999         estimate D2E/DX2                !
 ! A2    A(2,1,8)              119.9999         estimate D2E/DX2                !
 ! A3    A(6,1,8)              120.0001         estimate D2E/DX2                !
 ! A4    A(1,2,3)              120.0            estimate D2E/DX2                !
 ! A5    A(1,2,11)             120.0001         estimate D2E/DX2                !
 ! A6    A(3,2,11)             119.9999         estimate D2E/DX2                !
 ! A7    A(2,3,4)              120.0001         estimate D2E/DX2                !
 ! A8    A(2,3,12)             120.0            estimate D2E/DX2                !
 ! A9    A(4,3,12)             119.9999         estimate D2E/DX2                !
 ! A10   A(3,4,5)              119.9997         estimate D2E/DX2                !
 ! A11   A(3,4,9)              120.0003         estimate D2E/DX2                !
 ! A12   A(5,4,9)              120.0            estimate D2E/DX2                !
 ! A13   A(4,5,6)              120.0            estimate D2E/DX2                !
 ! A14   A(4,5,10)             119.9996         estimate D2E/DX2                !
 ! A15   A(6,5,10)             120.0004         estimate D2E/DX2                !
 ! A16   A(1,6,5)              120.0003         estimate D2E/DX2                !
 ! A17   A(1,6,7)              119.9999         estimate D2E/DX2                !
 ! A18   A(5,6,7)              119.9998         estimate D2E/DX2                !
 ! D1    D(6,1,2,3)              0.0            estimate D2E/DX2                !
 ! D2    D(6,1,2,11)           180.0            estimate D2E/DX2                !
 ! D3    D(8,1,2,3)            180.0            estimate D2E/DX2                !
 ! D4    D(8,1,2,11)             0.0            estimate D2E/DX2                !
 ! D5    D(2,1,6,5)              0.0            estimate D2E/DX2                !
 ! D6    D(2,1,6,7)            180.0            estimate D2E/DX2                !
 ! D7    D(8,1,6,5)            180.0            estimate D2E/DX2                !
 ! D8    D(8,1,6,7)              0.0            estimate D2E/DX2                !
 ! D9    D(1,2,3,4)              0.0            estimate D2E/DX2                !
 ! D10   D(1,2,3,12)           180.0            estimate D2E/DX2                !
 ! D11   D(11,2,3,4)           180.0            estimate D2E/DX2                !
 ! D12   D(11,2,3,12)            0.0            estimate D2E/DX2                !
 ! D13   D(2,3,4,5)              0.0            estimate D2E/DX2                !
 ! D14   D(2,3,4,9)            180.0            estimate D2E/DX2                !
 ! D15   D(12,3,4,5)           180.0            estimate D2E/DX2                !
 ! D16   D(12,3,4,9)             0.0            estimate D2E/DX2                !
 ! D17   D(3,4,5,6)              0.0            estimate D2E/DX2                !
 ! D18   D(3,4,5,10)           180.0            estimate D2E/DX2                !
 ! D19   D(9,4,5,6)            180.0            estimate D2E/DX2                !
 ! D20   D(9,4,5,10)             0.0            estimate D2E/DX2                !
 ! D21   D(4,5,6,1)              0.0            estimate D2E/DX2                !
 ! D22   D(4,5,6,7)            180.0            estimate D2E/DX2                !
 ! D23   D(10,5,6,1)           180.0            estimate D2E/DX2                !
 ! D24   D(10,5,6,7)             0.0            estimate D2E/DX2                !
 --------------------------------------------------------------------------------
 Trust Radius=3.00D-01 FncErr=1.00D-07 GrdErr=1.00D-07 EigMax=2.50D+02 EigMin=1.00D-04
 Number of steps in this run=     64 maximum allowed number of steps=    100.
 GradGradGradGradGradGradGradGradGradGradGradGradGradGradGradGradGradGrad

                          Input orientation:                          
 ---------------------------------------------------------------------
 Center     Atomic      Atomic             Coordinates (Angstroms)
 Number     Number       Type             X           Y           Z
 ---------------------------------------------------------------------
      1          6           0       -3.209280    0.199430    0.000000
      2          6           0       -2.011500    0.935550    0.000000
      3          6           0       -0.775110    0.266300    0.000000
      4          6           0       -0.736500   -1.139070    0.000000
      5          6           0       -1.934290   -1.875190    0.000000
      6          6           0       -3.170670   -1.205940    0.000000
      7         17           0       -4.674830   -2.130350    0.000000
      8         17           0       -4.761930    1.039870    0.000000
      9         17           0        0.816140   -1.979510    0.000000
     10          1           0       -1.885800   -3.640030    0.000000
     11          1           0       -2.059980    2.700400    0.000000
     12          1           0        0.729050    1.190710    0.000000
 ---------------------------------------------------------------------
                    Distance matrix (angstroms):
                    1          2          3          4          5
     1  C    0.000000
     2  C    1.405898   0.000000
     3  C    2.435088   1.405900   0.000000
     4  C    2.811801   2.435092   1.405900   0.000000
     5  C    2.435087   2.811800   2.435093   1.405907   0.000000
     6  C    1.405900   2.435088   2.811796   2.435088   1.405892
     7  Cl   2.752401   4.061166   4.577308   4.061167   2.752393
     8  Cl   1.765520   2.752408   4.061175   4.577321   4.061173
     9  Cl   4.577312   4.061173   2.752406   1.765511   2.752408
    10  H    4.061164   4.577306   4.061163   2.752397   1.765506
    11  H    2.752406   1.765516   2.752405   4.061173   4.577316
    12  H    4.061167   2.752403   1.765512   2.752401   4.061173
                    6          7          8          9         10
     6  C    0.000000
     7  Cl   1.765512   0.000000
     8  Cl   2.752412   3.171416   0.000000
     9  Cl   4.061165   5.493041   6.342832   0.000000
    10  H    2.752396   3.171407   5.493049   3.171404   0.000000
    11  H    4.061173   5.493049   3.171418   5.493052   6.342822
    12  H    4.577308   6.342819   5.493051   3.171416   5.493040
                   11         12
    11  H    0.000000
    12  H    3.171412   0.000000
 Stoichiometry    C6H3Cl3(1-,2)
 Framework group  CS[SG(C6H3Cl3)]
 Deg. of freedom    21
 Full point group                 CS      NOp   2
 Largest Abelian subgroup         CS      NOp   2
 Largest concise Abelian subgroup C1      NOp   1
                         Standard orientation:                         
 ---------------------------------------------------------------------
 Center     Atomic      Atomic             Coordinates (Angstroms)
 Number     Number       Type             X           Y           Z
 ---------------------------------------------------------------------
      1          6           0        0.488272   -1.123995    0.000000
      2          6           0        1.705816   -0.421047    0.000000
      3          6           0        1.705816    0.984853    0.000000
      4          6           0        0.488272    1.687806    0.000000
      5          6           0       -0.729277    0.984849   -0.000000
      6          6           0       -0.729272   -0.421043   -0.000000
      7         17           0       -2.258250   -1.303799   -0.000000
      8         17           0        0.488272   -2.889515    0.000000
      9         17           0        0.488266    3.453317    0.000000
     10          1           0       -2.258247    1.867608   -0.000000
     11          1           0        3.234799   -1.303802    0.000000
     12          1           0        3.234794    1.867609    0.000000
 ---------------------------------------------------------------------
 Rotational constants (GHZ):           1.7786955           0.5747793           0.4344034
 Standard basis: VSTO-6G (5D, 7F)
 There are    30 symmetry adapted cartesian basis functions of A'  symmetry.
 There are     9 symmetry adapted cartesian basis functions of A"  symmetry.
 There are    30 symmetry adapted basis functions of A'  symmetry.
 There are     9 symmetry adapted basis functions of A"  symmetry.
    39 basis functions,   234 primitive gaussians,    39 cartesian basis functions
    25 alpha electrons       24 beta electrons
       nuclear repulsion energy       246.3204313616 Hartrees.
 Integral buffers will be    131072 words long.
 Regular integral format.
 Two-electron integral symmetry is turned off.
 Do NDO integrals.
 One-electron integrals computed using PRISM.
 NBasis=    39 RedAO= T EigKep=  1.00D+00  NBF=    30     9
 NBsUse=    39 1.00D-06 EigRej= -1.00D+00 NBFU=    30     9
 Simple Huckel Guess.
 Initial guess orbital symmetries:
 Alpha Orbitals:
       Occupied  (A') (A') (A') (A') (A') (A') (A') (A') (A') (A")
                 (A') (A') (A') (A') (A") (A') (A") (A') (A") (A')
                 (A') (A') (A") (A") (A')
       Virtual   (A") (A') (A") (A') (A") (A') (A') (A') (A') (A')
                 (A') (A') (A') (A')
 Beta  Orbitals:
       Occupied  (A') (A') (A') (A') (A') (A') (A') (A') (A') (A")
                 (A') (A') (A') (A') (A") (A') (A") (A') (A") (A')
                 (A') (A') (A") (A")
       Virtual   (A') (A") (A') (A") (A') (A") (A') (A') (A') (A')
                 (A') (A') (A') (A') (A')
 The electronic state of the initial guess is 2-A'.
 Initial guess <Sx>= 0.0000 <Sy>= 0.0000 <Sz>= 0.5000 <S**2>= 0.7500 S= 0.5000
 Keep J ints in memory in canonical form, NReq=863709.
 Overlap will be assumed to be unity.
 Requested convergence on RMS density matrix=1.00D-08 within  32 cycles.
 Requested convergence on MAX density matrix=1.00D-06.
 Requested convergence on             energy=1.00D-06.
 No special actions if energy rises.
 Fock symm off for IB=2 I1=    1 I=   31 J=   26 Cut=1.00D-07 Err=6.52D-03
 Fock matrix is not symmetric: symmetry in diagonalization turned off.
 Rare condition: small coef for last iteration:  0.000D+00
 Rare condition: small coef for last iteration:  0.000D+00
 Rare condition: small coef for last iteration:  0.000D+00
 Rare condition: small coef for last iteration:  0.000D+00
 Rare condition: small coef for last iteration:  0.000D+00
 Rare condition: small coef for last iteration:  0.000D+00
 Rare condition: small coef for last iteration:  0.000D+00
 Rare condition: small coef for last iteration:  0.000D+00
 >>>>>>>>>> Convergence criterion not met.
 SCF Done:  E(UAM1) =  0.336980690990     A.U. after   33 cycles
            NFock= 32  Conv=0.72D-05     -V/T= 1.0030
 <Sx>= 0.0000 <Sy>= 0.0000 <Sz>= 0.5000 <S**2>= 1.0809 S= 0.6537
 <L.S>=  0.00000000000    
 Annihilation of the first spin contaminant:
 S**2 before annihilation     1.0809,   after     0.7715
 Keep J ints in memory in canonical form, NReq=864109.
 LinEq1:  Iter=  0 NonCon=     1 RMS=8.40D-07 Max=1.27D-05 NDo=     1
 AX will form     1 AO Fock derivatives at one time.
 LinEq1:  Iter=  1 NonCon=     1 RMS=9.12D-08 Max=6.50D-07 NDo=     1
 LinEq1:  Iter=  2 NonCon=     1 RMS=3.18D-08 Max=3.49D-07 NDo=     1
 LinEq1:  Iter=  3 NonCon=     1 RMS=1.48D-08 Max=1.77D-07 NDo=     1
 LinEq1:  Iter=  4 NonCon=     1 RMS=4.07D-09 Max=3.35D-08 NDo=     1
 LinEq1:  Iter=  5 NonCon=     1 RMS=1.21D-09 Max=1.18D-08 NDo=     1
 LinEq1:  Iter=  6 NonCon=     1 RMS=3.79D-10 Max=4.72D-09 NDo=     1
 LinEq1:  Iter=  7 NonCon=     1 RMS=1.20D-10 Max=1.48D-09 NDo=     1
 LinEq1:  Iter=  8 NonCon=     0 RMS=3.79D-11 Max=3.93D-10 NDo=     1
 Linear equations converged to 8.487D-11 8.487D-10 after     8 iterations.
 LinEq1:  Iter=  0 NonCon=     1 RMS=1.42D-07 Max=1.48D-06 NDo=     1
 LinEq1:  Iter=  1 NonCon=     1 RMS=6.34D-08 Max=6.73D-07 NDo=     1
 LinEq1:  Iter=  2 NonCon=     1 RMS=1.80D-08 Max=2.14D-07 NDo=     1
 LinEq1:  Iter=  3 NonCon=     1 RMS=6.00D-09 Max=5.73D-08 NDo=     1
 LinEq1:  Iter=  4 NonCon=     1 RMS=1.88D-09 Max=1.79D-08 NDo=     1
 LinEq1:  Iter=  5 NonCon=     1 RMS=6.26D-10 Max=6.97D-09 NDo=     1
 LinEq1:  Iter=  6 NonCon=     1 RMS=2.08D-10 Max=1.89D-09 NDo=     1
 LinEq1:  Iter=  7 NonCon=     1 RMS=7.70D-11 Max=6.54D-10 NDo=     1
 LinEq1:  Iter=  8 NonCon=     1 RMS=2.01D-11 Max=2.41D-10 NDo=     1
 LinEq1:  Iter=  9 NonCon=     0 RMS=6.29D-12 Max=6.41D-11 NDo=     1
 Linear equations converged to 2.144D-11 2.144D-10 after     9 iterations.
 LinEq1:  Iter=  0 NonCon=     1 RMS=2.28D-07 Max=2.33D-06 NDo=     1
 LinEq1:  Iter=  1 NonCon=     1 RMS=8.80D-08 Max=1.12D-06 NDo=     1
 LinEq1:  Iter=  2 NonCon=     1 RMS=2.56D-08 Max=2.66D-07 NDo=     1
 LinEq1:  Iter=  3 NonCon=     1 RMS=7.59D-09 Max=6.38D-08 NDo=     1
 LinEq1:  Iter=  4 NonCon=     1 RMS=2.48D-09 Max=2.90D-08 NDo=     1
 LinEq1:  Iter=  5 NonCon=     1 RMS=8.50D-10 Max=9.36D-09 NDo=     1
 LinEq1:  Iter=  6 NonCon=     1 RMS=2.95D-10 Max=2.17D-09 NDo=     1
 LinEq1:  Iter=  7 NonCon=     1 RMS=7.99D-11 Max=6.64D-10 NDo=     1
 LinEq1:  Iter=  8 NonCon=     0 RMS=2.31D-11 Max=2.23D-10 NDo=     1
 Linear equations converged to 3.786D-11 3.786D-10 after     8 iterations.
 LinEq1:  Iter=  0 NonCon=     1 RMS=7.94D-07 Max=7.69D-06 NDo=     1
 LinEq1:  Iter=  1 NonCon=     1 RMS=4.00D-07 Max=4.86D-06 NDo=     1
 LinEq1:  Iter=  2 NonCon=     1 RMS=1.05D-07 Max=6.98D-07 NDo=     1
 LinEq1:  Iter=  3 NonCon=     1 RMS=3.34D-08 Max=2.65D-07 NDo=     1
 LinEq1:  Iter=  4 NonCon=     1 RMS=1.06D-08 Max=1.18D-07 NDo=     1
 LinEq1:  Iter=  5 NonCon=     1 RMS=3.60D-09 Max=3.71D-08 NDo=     1
 LinEq1:  Iter=  6 NonCon=     1 RMS=1.32D-09 Max=1.04D-08 NDo=     1
 LinEq1:  Iter=  7 NonCon=     1 RMS=3.74D-10 Max=4.15D-09 NDo=     1
 LinEq1:  Iter=  8 NonCon=     1 RMS=1.15D-10 Max=9.79D-10 NDo=     1
 LinEq1:  Iter=  9 NonCon=     0 RMS=3.01D-11 Max=3.31D-10 NDo=     1
 Linear equations converged to 1.109D-10 1.109D-09 after     9 iterations.
 Incorrect curvature in search direction -- initial direction reversed.
 LinEq1:  Iter=  0 NonCon=     1 RMS=1.61D-04 Max=1.88D-03 NDo=     1
 LinEq1:  Iter=  1 NonCon=     1 RMS=6.31D-05 Max=8.28D-04 NDo=     1
 LinEq1:  Iter=  2 NonCon=     1 RMS=1.77D-05 Max=1.33D-04 NDo=     1
 LinEq1:  Iter=  3 NonCon=     1 RMS=5.41D-06 Max=5.39D-05 NDo=     1
 LinEq1:  Iter=  4 NonCon=     1 RMS=1.83D-06 Max=2.17D-05 NDo=     1
 LinEq1:  Iter=  5 NonCon=     1 RMS=6.39D-07 Max=7.81D-06 NDo=     1
 LinEq1:  Iter=  6 NonCon=     1 RMS=1.90D-07 Max=1.31D-06 NDo=     1
 LinEq1:  Iter=  7 NonCon=     1 RMS=5.42D-08 Max=3.39D-07 NDo=     1
 LinEq1:  Iter=  8 NonCon=     1 RMS=1.44D-08 Max=1.93D-07 NDo=     1
 LinEq1:  Iter=  9 NonCon=     1 RMS=6.15D-09 Max=6.53D-08 NDo=     1
 LinEq1:  Iter= 10 NonCon=     0 RMS=1.63D-09 Max=1.40D-08 NDo=     1
 Linear equations converged to 2.665D-09 2.665D-08 after    10 iterations.
 Incorrect curvature in search direction -- initial direction reversed.
 LinEq1:  Iter=  0 NonCon=     1 RMS=2.58D-04 Max=1.85D-03 NDo=     1
 LinEq1:  Iter=  1 NonCon=     1 RMS=9.50D-05 Max=9.44D-04 NDo=     1
 LinEq1:  Iter=  2 NonCon=     1 RMS=2.89D-05 Max=2.66D-04 NDo=     1
 LinEq1:  Iter=  3 NonCon=     1 RMS=9.43D-06 Max=8.59D-05 NDo=     1
 LinEq1:  Iter=  4 NonCon=     1 RMS=2.98D-06 Max=2.50D-05 NDo=     1
 LinEq1:  Iter=  5 NonCon=     1 RMS=6.40D-07 Max=4.98D-06 NDo=     1
 LinEq1:  Iter=  6 NonCon=     1 RMS=2.20D-07 Max=1.99D-06 NDo=     1
 LinEq1:  Iter=  7 NonCon=     1 RMS=7.44D-08 Max=6.78D-07 NDo=     1
 LinEq1:  Iter=  8 NonCon=     1 RMS=1.70D-08 Max=2.04D-07 NDo=     1
 LinEq1:  Iter=  9 NonCon=     1 RMS=6.87D-09 Max=6.42D-08 NDo=     1
 LinEq1:  Iter= 10 NonCon=     0 RMS=1.71D-09 Max=2.04D-08 NDo=     1
 Linear equations converged to 2.665D-09 2.665D-08 after    10 iterations.
 Incorrect curvature in search direction -- initial direction reversed.
     Accept linear search using points  2 and  3.
     Minimum is close to point  3 DX= -5.58D-02 DF= -5.36D-07 DXR=  3.39D-02 DFR=  1.46D-03 which will be used.
 Gradient too large for Newton-Raphson -- use scaled steepest descent instead.
 LinEq1:  Iter=  0 NonCon=     1 RMS=3.34D-04 Max=3.68D-03 NDo=     1
 LinEq1:  Iter=  1 NonCon=     1 RMS=1.30D-04 Max=1.35D-03 NDo=     1
 LinEq1:  Iter=  2 NonCon=     1 RMS=3.80D-05 Max=3.52D-04 NDo=     1
 LinEq1:  Iter=  3 NonCon=     1 RMS=1.39D-05 Max=1.36D-04 NDo=     1
 LinEq1:  Iter=  4 NonCon=     1 RMS=3.02D-06 Max=1.95D-05 NDo=     1
 LinEq1:  Iter=  5 NonCon=     1 RMS=9.77D-07 Max=8.90D-06 NDo=     1
 LinEq1:  Iter=  6 NonCon=     1 RMS=3.66D-07 Max=3.59D-06 NDo=     1
 LinEq1:  Iter=  7 NonCon=     1 RMS=7.29D-08 Max=6.80D-07 NDo=     1
 LinEq1:  Iter=  8 NonCon=     1 RMS=2.37D-08 Max=2.13D-07 NDo=     1
 LinEq1:  Iter=  9 NonCon=     1 RMS=3.98D-09 Max=2.79D-08 NDo=     1
 LinEq1:  Iter= 10 NonCon=     0 RMS=9.74D-10 Max=8.13D-09 NDo=     1
 Linear equations converged to 2.665D-09 2.665D-08 after    10 iterations.
     Accept linear search using points  1 and  2.
 LinEq1:  Iter=  0 NonCon=     1 RMS=1.12D-04 Max=9.82D-04 NDo=     1
 LinEq1:  Iter=  1 NonCon=     1 RMS=3.31D-05 Max=2.30D-04 NDo=     1
 LinEq1:  Iter=  2 NonCon=     1 RMS=7.58D-06 Max=7.99D-05 NDo=     1
 LinEq1:  Iter=  3 NonCon=     1 RMS=2.92D-06 Max=4.67D-05 NDo=     1
 LinEq1:  Iter=  4 NonCon=     1 RMS=1.01D-06 Max=8.88D-06 NDo=     1
 LinEq1:  Iter=  5 NonCon=     1 RMS=2.42D-07 Max=2.84D-06 NDo=     1
 LinEq1:  Iter=  6 NonCon=     1 RMS=7.10D-08 Max=7.32D-07 NDo=     1
 LinEq1:  Iter=  7 NonCon=     1 RMS=1.97D-08 Max=1.72D-07 NDo=     1
 LinEq1:  Iter=  8 NonCon=     1 RMS=5.65D-09 Max=5.12D-08 NDo=     1
 LinEq1:  Iter=  9 NonCon=     0 RMS=1.62D-09 Max=1.29D-08 NDo=     1
 Linear equations converged to 2.665D-09 2.665D-08 after     9 iterations.
     Minimum is close to point  2 DX=  2.86D-02 DF= -1.31D-08 DXR=  2.78D-02 DFR=  7.76D-04 which will be used.
 LinEq1:  Iter=  0 NonCon=     1 RMS=5.29D-06 Max=4.28D-05 NDo=     1
 LinEq1:  Iter=  1 NonCon=     1 RMS=2.08D-06 Max=1.54D-05 NDo=     1
 LinEq1:  Iter=  2 NonCon=     1 RMS=6.10D-07 Max=6.46D-06 NDo=     1
 LinEq1:  Iter=  3 NonCon=     1 RMS=1.89D-07 Max=1.49D-06 NDo=     1
 LinEq1:  Iter=  4 NonCon=     1 RMS=7.00D-08 Max=6.42D-07 NDo=     1
 LinEq1:  Iter=  5 NonCon=     1 RMS=2.00D-08 Max=1.67D-07 NDo=     1
 LinEq1:  Iter=  6 NonCon=     1 RMS=6.60D-09 Max=5.98D-08 NDo=     1
 LinEq1:  Iter=  7 NonCon=     1 RMS=1.87D-09 Max=1.42D-08 NDo=     1
 LinEq1:  Iter=  8 NonCon=     0 RMS=4.97D-10 Max=5.50D-09 NDo=     1
 Linear equations converged to 8.601D-10 8.601D-09 after     8 iterations.
 LinEq1:  Iter=  0 NonCon=     1 RMS=2.03D-06 Max=2.25D-05 NDo=     1
 LinEq1:  Iter=  1 NonCon=     1 RMS=7.75D-07 Max=8.75D-06 NDo=     1
 LinEq1:  Iter=  2 NonCon=     1 RMS=1.87D-07 Max=1.73D-06 NDo=     1
 LinEq1:  Iter=  3 NonCon=     1 RMS=6.22D-08 Max=6.11D-07 NDo=     1
 LinEq1:  Iter=  4 NonCon=     1 RMS=1.67D-08 Max=1.59D-07 NDo=     1
 LinEq1:  Iter=  5 NonCon=     1 RMS=5.19D-09 Max=4.97D-08 NDo=     1
 LinEq1:  Iter=  6 NonCon=     1 RMS=1.69D-09 Max=1.21D-08 NDo=     1
 LinEq1:  Iter=  7 NonCon=     1 RMS=5.02D-10 Max=5.29D-09 NDo=     1
 LinEq1:  Iter=  8 NonCon=     0 RMS=1.76D-10 Max=1.55D-09 NDo=     1
 Linear equations converged to 3.322D-10 3.322D-09 after     8 iterations.
 LinEq1:  Iter=  0 NonCon=     1 RMS=9.38D-07 Max=8.24D-06 NDo=     1
 LinEq1:  Iter=  1 NonCon=     1 RMS=4.63D-07 Max=5.51D-06 NDo=     1
 LinEq1:  Iter=  2 NonCon=     1 RMS=1.17D-07 Max=1.03D-06 NDo=     1
 LinEq1:  Iter=  3 NonCon=     1 RMS=3.87D-08 Max=2.74D-07 NDo=     1
 LinEq1:  Iter=  4 NonCon=     1 RMS=1.22D-08 Max=1.18D-07 NDo=     1
 LinEq1:  Iter=  5 NonCon=     1 RMS=3.10D-09 Max=3.62D-08 NDo=     1
 LinEq1:  Iter=  6 NonCon=     1 RMS=1.04D-09 Max=1.10D-08 NDo=     1
 LinEq1:  Iter=  7 NonCon=     1 RMS=2.92D-10 Max=2.73D-09 NDo=     1
 LinEq1:  Iter=  8 NonCon=     0 RMS=9.86D-11 Max=9.95D-10 NDo=     1
 Linear equations converged to 1.454D-10 1.454D-09 after     8 iterations.
 Incorrect curvature in search direction -- initial direction reversed.
     Note:  rotation exceeds Pi/2.
     Minimum is close to point 13 DX=  0.00D+00 DF=  0.00D+00 DXR=  0.00D+00 DFR=  0.00D+00 which will be used.
 Gradient too large for Newton-Raphson -- use scaled steepest descent instead.
     Accept linear search using points  2 and  3.
 LinEq1:  Iter=  0 NonCon=     1 RMS=6.09D-04 Max=7.64D-03 NDo=     1
 LinEq1:  Iter=  1 NonCon=     1 RMS=2.01D-04 Max=1.54D-03 NDo=     1
 LinEq1:  Iter=  2 NonCon=     1 RMS=5.94D-05 Max=4.31D-04 NDo=     1
 LinEq1:  Iter=  3 NonCon=     1 RMS=1.35D-05 Max=1.32D-04 NDo=     1
 LinEq1:  Iter=  4 NonCon=     1 RMS=5.58D-06 Max=6.42D-05 NDo=     1
 LinEq1:  Iter=  5 NonCon=     1 RMS=1.27D-06 Max=9.69D-06 NDo=     1
 LinEq1:  Iter=  6 NonCon=     1 RMS=2.01D-07 Max=1.44D-06 NDo=     1
 LinEq1:  Iter=  7 NonCon=     1 RMS=4.66D-08 Max=4.34D-07 NDo=     1
 LinEq1:  Iter=  8 NonCon=     1 RMS=1.57D-08 Max=1.50D-07 NDo=     1
 LinEq1:  Iter=  9 NonCon=     1 RMS=4.87D-09 Max=3.32D-08 NDo=     1
 LinEq1:  Iter= 10 NonCon=     0 RMS=1.06D-09 Max=6.11D-09 NDo=     1
 Linear equations converged to 2.665D-09 2.665D-08 after    10 iterations.
 Incorrect curvature in search direction -- initial direction reversed.
 LinEq1:  Iter=  0 NonCon=     1 RMS=6.74D-04 Max=8.66D-03 NDo=     1
 LinEq1:  Iter=  1 NonCon=     1 RMS=2.19D-04 Max=2.02D-03 NDo=     1
 LinEq1:  Iter=  2 NonCon=     1 RMS=6.89D-05 Max=7.35D-04 NDo=     1
 LinEq1:  Iter=  3 NonCon=     1 RMS=1.32D-05 Max=1.21D-04 NDo=     1
 LinEq1:  Iter=  4 NonCon=     1 RMS=4.46D-06 Max=3.89D-05 NDo=     1
 LinEq1:  Iter=  5 NonCon=     1 RMS=1.08D-06 Max=1.04D-05 NDo=     1
 LinEq1:  Iter=  6 NonCon=     1 RMS=2.23D-07 Max=2.18D-06 NDo=     1
 LinEq1:  Iter=  7 NonCon=     1 RMS=6.15D-08 Max=5.44D-07 NDo=     1
 LinEq1:  Iter=  8 NonCon=     1 RMS=2.25D-08 Max=1.67D-07 NDo=     1
 LinEq1:  Iter=  9 NonCon=     1 RMS=6.12D-09 Max=3.84D-08 NDo=     1
 LinEq1:  Iter= 10 NonCon=     0 RMS=1.36D-09 Max=1.09D-08 NDo=     1
 Linear equations converged to 2.665D-09 2.665D-08 after    10 iterations.
     Accept linear search using points  1 and  2.
 LinEq1:  Iter=  0 NonCon=     1 RMS=1.31D-04 Max=1.24D-03 NDo=     1
 LinEq1:  Iter=  1 NonCon=     1 RMS=5.52D-05 Max=4.89D-04 NDo=     1
 LinEq1:  Iter=  2 NonCon=     1 RMS=1.55D-05 Max=1.23D-04 NDo=     1
 LinEq1:  Iter=  3 NonCon=     1 RMS=3.70D-06 Max=2.67D-05 NDo=     1
 LinEq1:  Iter=  4 NonCon=     1 RMS=8.92D-07 Max=6.95D-06 NDo=     1
 LinEq1:  Iter=  5 NonCon=     1 RMS=2.67D-07 Max=2.13D-06 NDo=     1
 LinEq1:  Iter=  6 NonCon=     1 RMS=6.84D-08 Max=5.08D-07 NDo=     1
 LinEq1:  Iter=  7 NonCon=     1 RMS=1.69D-08 Max=1.10D-07 NDo=     1
 LinEq1:  Iter=  8 NonCon=     1 RMS=4.07D-09 Max=4.12D-08 NDo=     1
 LinEq1:  Iter=  9 NonCon=     0 RMS=1.12D-09 Max=1.21D-08 NDo=     1
 Linear equations converged to 2.665D-09 2.665D-08 after     9 iterations.
 Gradient too large for Newton-Raphson -- use scaled steepest descent instead.
 LinEq1:  Iter=  0 NonCon=     1 RMS=7.58D-04 Max=8.20D-03 NDo=     1
 LinEq1:  Iter=  1 NonCon=     1 RMS=3.16D-04 Max=3.21D-03 NDo=     1
 LinEq1:  Iter=  2 NonCon=     1 RMS=7.34D-05 Max=9.59D-04 NDo=     1
 LinEq1:  Iter=  3 NonCon=     1 RMS=1.55D-05 Max=1.25D-04 NDo=     1
 LinEq1:  Iter=  4 NonCon=     1 RMS=4.30D-06 Max=4.24D-05 NDo=     1
 LinEq1:  Iter=  5 NonCon=     1 RMS=9.21D-07 Max=9.40D-06 NDo=     1
 LinEq1:  Iter=  6 NonCon=     1 RMS=3.26D-07 Max=2.90D-06 NDo=     1
 LinEq1:  Iter=  7 NonCon=     1 RMS=7.45D-08 Max=8.08D-07 NDo=     1
 LinEq1:  Iter=  8 NonCon=     1 RMS=1.87D-08 Max=1.53D-07 NDo=     1
 LinEq1:  Iter=  9 NonCon=     1 RMS=3.96D-09 Max=2.83D-08 NDo=     1
 LinEq1:  Iter= 10 NonCon=     0 RMS=8.40D-10 Max=5.87D-09 NDo=     1
 Linear equations converged to 2.665D-09 2.665D-08 after    10 iterations.
     Accept linear search using points  1 and  2.
 LinEq1:  Iter=  0 NonCon=     1 RMS=1.61D-04 Max=1.47D-03 NDo=     1
 LinEq1:  Iter=  1 NonCon=     1 RMS=5.91D-05 Max=5.91D-04 NDo=     1
 LinEq1:  Iter=  2 NonCon=     1 RMS=1.03D-05 Max=1.06D-04 NDo=     1
 LinEq1:  Iter=  3 NonCon=     1 RMS=2.62D-06 Max=2.27D-05 NDo=     1
 LinEq1:  Iter=  4 NonCon=     1 RMS=6.96D-07 Max=6.97D-06 NDo=     1
 LinEq1:  Iter=  5 NonCon=     1 RMS=1.54D-07 Max=1.87D-06 NDo=     1
 LinEq1:  Iter=  6 NonCon=     1 RMS=4.20D-08 Max=4.38D-07 NDo=     1
 LinEq1:  Iter=  7 NonCon=     1 RMS=1.17D-08 Max=9.87D-08 NDo=     1
 LinEq1:  Iter=  8 NonCon=     1 RMS=2.71D-09 Max=2.54D-08 NDo=     1
 LinEq1:  Iter=  9 NonCon=     0 RMS=6.01D-10 Max=5.17D-09 NDo=     1
 Linear equations converged to 2.665D-09 2.665D-08 after     9 iterations.
     Minimum is close to point  2 DX=  1.57D-02 DF= -3.97D-09 DXR=  1.55D-02 DFR=  2.40D-04 which will be used.
 LinEq1:  Iter=  0 NonCon=     1 RMS=1.81D-06 Max=1.49D-05 NDo=     1
 LinEq1:  Iter=  1 NonCon=     1 RMS=5.40D-07 Max=3.37D-06 NDo=     1
 LinEq1:  Iter=  2 NonCon=     1 RMS=1.16D-07 Max=1.20D-06 NDo=     1
 LinEq1:  Iter=  3 NonCon=     1 RMS=2.92D-08 Max=2.74D-07 NDo=     1
 LinEq1:  Iter=  4 NonCon=     1 RMS=9.68D-09 Max=9.58D-08 NDo=     1
 LinEq1:  Iter=  5 NonCon=     1 RMS=2.02D-09 Max=1.46D-08 NDo=     1
 LinEq1:  Iter=  6 NonCon=     1 RMS=4.42D-10 Max=3.52D-09 NDo=     1
 LinEq1:  Iter=  7 NonCon=     0 RMS=1.14D-10 Max=1.34D-09 NDo=     1
 Linear equations converged to 2.539D-10 2.539D-09 after     7 iterations.
 LinEq1:  Iter=  0 NonCon=     1 RMS=4.49D-08 Max=5.19D-07 NDo=     1
 LinEq1:  Iter=  1 NonCon=     1 RMS=1.44D-08 Max=1.74D-07 NDo=     1
 LinEq1:  Iter=  2 NonCon=     1 RMS=3.50D-09 Max=3.69D-08 NDo=     1
 LinEq1:  Iter=  3 NonCon=     1 RMS=9.45D-10 Max=7.69D-09 NDo=     1
 LinEq1:  Iter=  4 NonCon=     1 RMS=2.42D-10 Max=1.98D-09 NDo=     1
 LinEq1:  Iter=  5 NonCon=     1 RMS=5.00D-11 Max=3.99D-10 NDo=     1
 LinEq1:  Iter=  6 NonCon=     1 RMS=1.40D-11 Max=1.02D-10 NDo=     1
 LinEq1:  Iter=  7 NonCon=     0 RMS=4.12D-12 Max=3.33D-11 NDo=     1
 Linear equations converged to 6.939D-12 6.939D-11 after     7 iterations.
 SCF Done:  E(UAM1) =  0.330399669663     a.u. after   22 cycles
            Convg  =    0.2110D-07                   230 Fock formations.
              S**2 =  1.6980                  -V/T =  1.0029
 <Sx>= 0.0000 <Sy>= 0.0000 <Sz>= 0.5000 <S**2>= 1.6980 S= 0.8957
 <L.S>=  0.00000000000    
 Annihilation of the first spin contaminant:
 S**2 before annihilation     1.6980,   after     1.9286

 **********************************************************************

            Population analysis using the SCF Density.

 **********************************************************************

 Orbital symmetries:
 Alpha Orbitals:
       Occupied  (A') (A') (A') (A') (A') (A') (A') (A') (A') (A')
                 (A') (A") (A') (A") (A") (A') (A') (A') (A') (A")
                 (A') (A') (A") (A") (A')
       Virtual   (A') (A') (A") (A") (A') (A') (A') (A") (A') (A')
                 (A') (A') (A') (A')
 Beta  Orbitals:
       Occupied  (A') (A') (A') (A') (A') (A') (A') (A') (A') (A')
                 (A') (A") (A') (A") (A") (A') (A') (A') (A') (A")
                 (A') (A") (A") (A')
       Virtual   (A') (A") (A') (A') (A") (A') (A') (A") (A') (A')
                 (A') (A') (A') (A') (A')
 The electronic state is 2-A'.
 Alpha  occ. eigenvalues --   -1.27661  -1.23510  -1.22659  -1.19619  -0.96229
 Alpha  occ. eigenvalues --   -0.93809  -0.68200  -0.65889  -0.48674  -0.44598
 Alpha  occ. eigenvalues --   -0.44299  -0.39833  -0.37645  -0.34075  -0.33525
 Alpha  occ. eigenvalues --   -0.32282  -0.31098  -0.29479  -0.28930  -0.28267
 Alpha  occ. eigenvalues --   -0.25962  -0.21276  -0.21168  -0.18157  -0.07505
 Alpha virt. eigenvalues --    0.15353   0.16142   0.16190   0.17011   0.17450
 Alpha virt. eigenvalues --    0.19402   0.21143   0.26623   0.30133   0.30649
 Alpha virt. eigenvalues --    0.32354   0.33538   0.35910   0.39189
  Beta  occ. eigenvalues --   -1.27577  -1.23469  -1.22589  -1.19492  -0.96011
  Beta  occ. eigenvalues --   -0.93825  -0.68106  -0.65248  -0.49135  -0.44629
  Beta  occ. eigenvalues --   -0.43993  -0.39849  -0.37235  -0.34156  -0.33781
  Beta  occ. eigenvalues --   -0.32264  -0.31006  -0.29650  -0.28710  -0.28185
  Beta  occ. eigenvalues --   -0.24892  -0.20656  -0.19711  -0.15431
  Beta virt. eigenvalues --    0.13943   0.16132   0.16683   0.18197   0.18439
  Beta virt. eigenvalues --    0.19850   0.20828   0.26813   0.29738   0.30746
  Beta virt. eigenvalues --    0.31341   0.32758   0.34326   0.36184   0.38422
          Condensed to atoms (all electrons):
               1          2          3          4          5          6
     1  C    4.039551   0.000000   0.000000   0.000000   0.000000   0.000000
     2  C    0.000000   4.115351   0.000000   0.000000   0.000000   0.000000
     3  C    0.000000   0.000000   4.232488   0.000000   0.000000   0.000000
     4  C    0.000000   0.000000   0.000000   4.039538   0.000000   0.000000
     5  C    0.000000   0.000000   0.000000   0.000000   4.115032   0.000000
     6  C    0.000000   0.000000   0.000000   0.000000   0.000000   4.089677
     7  Cl   0.000000   0.000000   0.000000   0.000000   0.000000   0.000000
     8  Cl   0.000000   0.000000   0.000000   0.000000   0.000000   0.000000
     9  Cl   0.000000   0.000000   0.000000   0.000000   0.000000   0.000000
    10  H    0.000000   0.000000   0.000000   0.000000   0.000000   0.000000
    11  H    0.000000   0.000000   0.000000   0.000000   0.000000   0.000000
    12  H    0.000000   0.000000   0.000000   0.000000   0.000000   0.000000
               7          8          9         10         11         12
     1  C    0.000000   0.000000   0.000000   0.000000   0.000000   0.000000
     2  C    0.000000   0.000000   0.000000   0.000000   0.000000   0.000000
     3  C    0.000000   0.000000   0.000000   0.000000   0.000000   0.000000
     4  C    0.000000   0.000000   0.000000   0.000000   0.000000   0.000000
     5  C    0.000000   0.000000   0.000000   0.000000   0.000000   0.000000
     6  C    0.000000   0.000000   0.000000   0.000000   0.000000   0.000000
     7  Cl   7.094380   0.000000   0.000000   0.000000   0.000000   0.000000
     8  Cl   0.000000   7.112974   0.000000   0.000000   0.000000   0.000000
     9  Cl   0.000000   0.000000   7.111546   0.000000   0.000000   0.000000
    10  H    0.000000   0.000000   0.000000   0.923635   0.000000   0.000000
    11  H    0.000000   0.000000   0.000000   0.000000   0.943340   0.000000
    12  H    0.000000   0.000000   0.000000   0.000000   0.000000   1.182488
          Atomic-Atomic Spin Densities.
               1          2          3          4          5          6
     1  C    0.400497   0.000000   0.000000   0.000000   0.000000   0.000000
     2  C    0.000000  -0.829083   0.000000   0.000000   0.000000   0.000000
     3  C    0.000000   0.000000   0.513508   0.000000   0.000000   0.000000
     4  C    0.000000   0.000000   0.000000  -0.402673   0.000000   0.000000
     5  C    0.000000   0.000000   0.000000   0.000000   0.883724   0.000000
     6  C    0.000000   0.000000   0.000000   0.000000   0.000000  -0.423883
     7  Cl   0.000000   0.000000   0.000000   0.000000   0.000000   0.000000
     8  Cl   0.000000   0.000000   0.000000   0.000000   0.000000   0.000000
     9  Cl   0.000000   0.000000   0.000000   0.000000   0.000000   0.000000
    10  H    0.000000   0.000000   0.000000   0.000000   0.000000   0.000000
    11  H    0.000000   0.000000   0.000000   0.000000   0.000000   0.000000
    12  H    0.000000   0.000000   0.000000   0.000000   0.000000   0.000000
               7          8          9         10         11         12
     1  C    0.000000   0.000000   0.000000   0.000000   0.000000   0.000000
     2  C    0.000000   0.000000   0.000000   0.000000   0.000000   0.000000
     3  C    0.000000   0.000000   0.000000   0.000000   0.000000   0.000000
     4  C    0.000000   0.000000   0.000000   0.000000   0.000000   0.000000
     5  C    0.000000   0.000000   0.000000   0.000000   0.000000   0.000000
     6  C    0.000000   0.000000   0.000000   0.000000   0.000000   0.000000
     7  Cl   0.003322   0.000000   0.000000   0.000000   0.000000   0.000000
     8  Cl   0.000000   0.007161   0.000000   0.000000   0.000000   0.000000
     9  Cl   0.000000   0.000000   0.013167   0.000000   0.000000   0.000000
    10  H    0.000000   0.000000   0.000000  -0.506241   0.000000   0.000000
    11  H    0.000000   0.000000   0.000000   0.000000   0.554645   0.000000
    12  H    0.000000   0.000000   0.000000   0.000000   0.000000   0.785857
 Mulliken charges and spin densities:
               1          2
     1  C   -0.039551   0.400497
     2  C   -0.115351  -0.829083
     3  C   -0.232488   0.513508
     4  C   -0.039538  -0.402673
     5  C   -0.115032   0.883724
     6  C   -0.089677  -0.423883
     7  Cl  -0.094380   0.003322
     8  Cl  -0.112974   0.007161
     9  Cl  -0.111546   0.013167
    10  H    0.076365  -0.506241
    11  H    0.056660   0.554645
    12  H   -0.182488   0.785857
 Sum of Mulliken charges =  -1.00000   1.00000
 Mulliken charges and spin densities with hydrogens summed into heavy atoms:
               1          2
     1  C   -0.039551   0.400497
     2  C   -0.058691  -0.274438
     3  C   -0.414976   1.299364
     4  C   -0.039538  -0.402673
     5  C   -0.038667   0.377483
     6  C   -0.089677  -0.423883
     7  Cl  -0.094380   0.003322
     8  Cl  -0.112974   0.007161
     9  Cl  -0.111546   0.013167
 Charge=             -1.0000 electrons
 Dipole moment (field-independent basis, Debye):
    X=             -5.9269    Y=             -3.0878    Z=              0.0000  Tot=              6.6830
 N-N= 2.463204313616D+02 E-N=-3.515310961193D+02  KE=-1.137094888217D+02
 Symmetry A'   KE=-8.767773310557D+01
 Symmetry A"   KE=-2.603175571615D+01
 Symmetry A'   SP= 1.000000000000D+00
 Symmetry A"   SP= 4.440892098501D-16
 Calling FoFJK, ICntrl=      2127 FMM=F ISym2X=1 I1Cent= 0 IOpClX= 1 NMat=1 NMatS=1 NMatT=0.
 ***** Axes restored to original set *****
 -------------------------------------------------------------------
 Center     Atomic                   Forces (Hartrees/Bohr)
 Number     Number              X              Y              Z
 -------------------------------------------------------------------
      1        6          -0.004765033    0.036192089   -0.000000000
      2        6           0.017372700    0.018394624   -0.000000000
      3        6          -0.009485090    0.020662033   -0.000000000
      4        6           0.001801455    0.003843965   -0.000000000
      5        6           0.001291859   -0.055189939   -0.000000000
      6        6          -0.005371269   -0.029180544   -0.000000000
      7       17           0.026876520    0.012959029   -0.000000000
      8       17           0.022705533   -0.012025815   -0.000000000
      9       17          -0.026839024    0.011669730   -0.000000000
     10        1          -0.003463636    0.092269807    0.000000000
     11        1           0.002259127   -0.085852249    0.000000000
     12        1          -0.022383141   -0.013742729    0.000000000
 -------------------------------------------------------------------
 Cartesian Forces:  Max     0.092269807 RMS     0.026579995

 GradGradGradGradGradGradGradGradGradGradGradGradGradGradGradGradGradGrad
 Berny optimization.
 FormGI is forming the generalized inverse of G from B-inverse, IUseBI=4.
 Internal  Forces:  Max     0.092330128 RMS     0.021969723
 Search for a local minimum.
 Step number   1 out of a maximum of   64
 All quantities printed in internal units (Hartrees-Bohrs-Radians)
 Mixed Optimization -- RFO/linear search
 Second derivative matrix not updated -- first step.
 ITU=  0
     Eigenvalues ---    0.02011   0.02011   0.02011   0.02011   0.02011
     Eigenvalues ---    0.02011   0.02011   0.02011   0.02011   0.06524
     Eigenvalues ---    0.06524   0.06524   0.16000   0.16000   0.16000
     Eigenvalues ---    0.22374   0.23491   0.24609   0.25000   0.25000
     Eigenvalues ---    0.25000   0.29033   0.29033   0.29033   0.40810
     Eigenvalues ---    0.41112   0.44656   0.44657   0.44657   0.44657
 RFO step:  Lambda=-1.12986699D-01 EMin= 2.01065826D-02
 Linear search not attempted -- first point.
 Maximum step size (   0.300) exceeded in Quadratic search.
    -- Step size scaled by   0.399
 Iteration  1 RMS(Cart)=  0.04807778 RMS(Int)=  0.00090420
 Iteration  2 RMS(Cart)=  0.00085134 RMS(Int)=  0.00001252
 Iteration  3 RMS(Cart)=  0.00000006 RMS(Int)=  0.00001252
 ClnCor:  largest displacement from symmetrization is 5.76D-09 for atom     7.
 Variable       Old X    -DE/DX   Delta X   Delta X   Delta X     New X
                                 (Linear)    (Quad)   (Total)
    R1        2.65676  -0.02982   0.00000  -0.02137  -0.02135   2.63541
    R2        2.65677  -0.00611   0.00000  -0.00395  -0.00395   2.65282
    R3        3.33635  -0.02569   0.00000  -0.02541  -0.02541   3.31094
    R4        2.65677  -0.04943   0.00000  -0.03575  -0.03573   2.62103
    R5        3.33634  -0.08588   0.00000  -0.19219  -0.19219   3.14415
    R6        2.65677  -0.03041   0.00000  -0.02208  -0.02208   2.63469
    R7        3.33633  -0.02627   0.00000  -0.05878  -0.05878   3.27756
    R8        2.65678  -0.02551   0.00000  -0.01807  -0.01809   2.63869
    R9        3.33633  -0.02916   0.00000  -0.02883  -0.02883   3.30750
   R10        2.65675  -0.03086   0.00000  -0.02147  -0.02149   2.63526
   R11        3.33632  -0.09233   0.00000  -0.20662  -0.20662   3.12970
   R12        3.33633  -0.02968   0.00000  -0.02935  -0.02935   3.30698
    A1        2.09439  -0.01067   0.00000  -0.01156  -0.01154   2.08285
    A2        2.09439   0.00495   0.00000   0.00535   0.00534   2.09974
    A3        2.09440   0.00572   0.00000   0.00621   0.00620   2.10059
    A4        2.09439   0.01987   0.00000   0.02239   0.02243   2.11682
    A5        2.09440  -0.01010   0.00000  -0.01144  -0.01146   2.08294
    A6        2.09439  -0.00977   0.00000  -0.01095  -0.01097   2.08342
    A7        2.09440  -0.00784   0.00000  -0.01129  -0.01127   2.08312
    A8        2.09440   0.00390   0.00000   0.00562   0.00561   2.10000
    A9        2.09439   0.00394   0.00000   0.00567   0.00566   2.10006
   A10        2.09439   0.00088   0.00000   0.00023   0.00021   2.09460
   A11        2.09440   0.00375   0.00000   0.00449   0.00450   2.09890
   A12        2.09440  -0.00463   0.00000  -0.00472  -0.00471   2.08968
   A13        2.09439   0.00769   0.00000   0.01000   0.00996   2.10435
   A14        2.09439  -0.00230   0.00000  -0.00274  -0.00272   2.09167
   A15        2.09440  -0.00540   0.00000  -0.00726  -0.00724   2.08716
   A16        2.09440  -0.00995   0.00000  -0.00976  -0.00978   2.08462
   A17        2.09439   0.01003   0.00000   0.01044   0.01045   2.10484
   A18        2.09439  -0.00008   0.00000  -0.00067  -0.00067   2.09373
    D1       -0.00000   0.00000   0.00000   0.00000   0.00000   0.00000
    D2        3.14159   0.00000   0.00000   0.00000   0.00000   3.14159
    D3        3.14159  -0.00000   0.00000   0.00000   0.00000   3.14159
    D4       -0.00000   0.00000   0.00000   0.00000   0.00000   0.00000
    D5        0.00000  -0.00000   0.00000   0.00000  -0.00000   0.00000
    D6        3.14159  -0.00000   0.00000  -0.00000   0.00000   3.14159
    D7        3.14159   0.00000   0.00000   0.00000   0.00000   3.14159
    D8        0.00000   0.00000   0.00000   0.00000   0.00000   0.00000
    D9        0.00000  -0.00000   0.00000  -0.00000  -0.00000   0.00000
   D10        3.14159   0.00000   0.00000   0.00000   0.00000   3.14159
   D11        3.14159  -0.00000   0.00000  -0.00000   0.00000   3.14159
   D12        0.00000  -0.00000   0.00000  -0.00000  -0.00000   0.00000
   D13       -0.00000  -0.00000   0.00000  -0.00000   0.00000   0.00000
   D14        3.14159  -0.00000   0.00000  -0.00000   0.00000   3.14159
   D15        3.14159  -0.00000   0.00000  -0.00000   0.00000   3.14159
   D16        0.00000  -0.00000   0.00000  -0.00000  -0.00000   0.00000
   D17       -0.00000   0.00000   0.00000   0.00000   0.00000   0.00000
   D18        3.14159   0.00000   0.00000   0.00000   0.00000   3.14159
   D19        3.14159   0.00000   0.00000   0.00000   0.00000   3.14159
   D20       -0.00000   0.00000   0.00000   0.00000   0.00000   0.00000
   D21        0.00000  -0.00000   0.00000  -0.00000   0.00000   0.00000
   D22        3.14159  -0.00000   0.00000  -0.00000   0.00000   3.14159
   D23        3.14159  -0.00000   0.00000  -0.00000   0.00000   3.14159
   D24        0.00000  -0.00000   0.00000  -0.00000  -0.00000   0.00000
         Item               Value     Threshold  Converged?
 Maximum Force            0.092330     0.000450     NO 
 RMS     Force            0.021970     0.000300     NO 
 Maximum Displacement     0.238337     0.001800     NO 
 RMS     Displacement     0.048663     0.001200     NO 
 Predicted change in Energy=-4.116166D-02
 GradGradGradGradGradGradGradGradGradGradGradGradGradGradGradGradGradGrad

                          Input orientation:                          
 ---------------------------------------------------------------------
 Center     Atomic      Atomic             Coordinates (Angstroms)
 Number     Number       Type             X           Y           Z
 ---------------------------------------------------------------------
      1          6           0       -3.203443    0.198325    0.000000
      2          6           0       -2.006009    0.913207    0.000000
      3          6           0       -0.779978    0.264676   -0.000000
      4          6           0       -0.744044   -1.129077   -0.000000
      5          6           0       -1.934762   -1.858422   -0.000000
      6          6           0       -3.166723   -1.205006    0.000000
      7         17           0       -4.649210   -2.134875    0.000000
      8         17           0       -4.737969    1.043900    0.000000
      9         17           0        0.789988   -1.971769   -0.000000
     10          1           0       -1.887229   -3.513907   -0.000000
     11          1           0       -2.049385    2.576454    0.000000
     12          1           0        0.694063    1.178665   -0.000000
 ---------------------------------------------------------------------
                    Distance matrix (angstroms):
                    1          2          3          4          5
     1  C    0.000000
     2  C    1.394599   0.000000
     3  C    2.424374   1.386991   0.000000
     4  C    2.794752   2.400724   1.394216   0.000000
     5  C    2.416560   2.772545   2.416831   1.396336   0.000000
     6  C    1.403811   2.415384   2.802948   2.423868   1.394518
     7  Cl   2.744825   4.034515   4.552890   4.032611   2.728489
     8  Cl   1.752075   2.735085   4.033967   4.546786   4.035028
     9  Cl   4.544976   4.017547   2.732486   1.750253   2.727106
    10  H    3.938666   4.428708   3.937474   2.644672   1.656167
    11  H    2.643359   1.663812   2.637368   3.928724   4.436357
    12  H    4.018908   2.713089   1.734408   2.719158   4.016792
                    6          7          8          9         10
     6  C    0.000000
     7  Cl   1.749978   0.000000
     8  Cl   2.743427   3.180014   0.000000
     9  Cl   4.030321   5.441643   6.297029   0.000000
    10  H    2.639722   3.087113   5.375903   3.089609   0.000000
    11  H    3.943080   5.381051   3.094706   5.361751   6.092520
    12  H    4.537351   6.287297   5.433703   3.151894   5.355679
                   11         12
    11  H    0.000000
    12  H    3.079012   0.000000
 Stoichiometry    C6H3Cl3(1-,2)
 Framework group  CS[SG(C6H3Cl3)]
 Deg. of freedom    21
 Full point group                 CS      NOp   2
 Largest Abelian subgroup         CS      NOp   2
 Largest concise Abelian subgroup C1      NOp   1
                         Standard orientation:                         
 ---------------------------------------------------------------------
 Center     Atomic      Atomic             Coordinates (Angstroms)
 Number     Number       Type             X           Y           Z
 ---------------------------------------------------------------------
      1          6           0        1.214616   -0.138808   -0.000000
      2          6           0        1.196299    1.255670   -0.000000
      3          6           0        0.001625    1.960297   -0.000000
      4          6           0       -1.204420    1.260802   -0.000000
      5          6           0       -1.201942   -0.135532    0.000000
      6          6           0        0.000000   -0.842650    0.000000
      7         17           0       -0.015491   -2.592560    0.000000
      8         17           0        2.738737   -1.002995   -0.000000
      9         17           0       -2.725827    2.126078    0.000000
     10          1           0       -2.637011   -0.962253    0.000000
     11          1           0        2.635802    2.089998   -0.000000
     12          1           0        0.008013    3.694693   -0.000000
 ---------------------------------------------------------------------
 Rotational constants (GHZ):           1.7936888           0.5847651           0.4409952
 Standard basis: VSTO-6G (5D, 7F)
 There are    30 symmetry adapted cartesian basis functions of A'  symmetry.
 There are     9 symmetry adapted cartesian basis functions of A"  symmetry.
 There are    30 symmetry adapted basis functions of A'  symmetry.
 There are     9 symmetry adapted basis functions of A"  symmetry.
    39 basis functions,   234 primitive gaussians,    39 cartesian basis functions
    25 alpha electrons       24 beta electrons
       nuclear repulsion energy       247.7292340119 Hartrees.
 Integral buffers will be    131072 words long.
 Regular integral format.
 Two-electron integral symmetry is turned off.
 Do NDO integrals.
 One-electron integrals computed using PRISM.
 NBasis=    39 RedAO= T EigKep=  1.00D+00  NBF=    30     9
 NBsUse=    39 1.00D-06 EigRej= -1.00D+00 NBFU=    30     9
 Initial guess from the checkpoint file:  "geometry_chks/123ClBzAnionRadical.chk"
 B after Tr=     0.000000    0.000000    0.000000
         Rot=    0.865861    0.000000   -0.000000   -0.500285 Ang= -60.04 deg.
 Initial guess orbital symmetries:
 Alpha Orbitals:
       Occupied  (A') (A') (A') (A') (A') (A') (A') (A') (A') (A')
                 (A') (A") (A') (A") (A") (A') (A') (A') (A') (A")
                 (A') (A') (A") (A") (A')
       Virtual   (A') (A') (A") (A") (A') (A') (A') (A") (A') (A')
                 (A') (A') (A') (A')
 Beta  Orbitals:
       Occupied  (A') (A') (A') (A') (A') (A') (A') (A') (A') (A')
                 (A') (A") (A') (A") (A") (A') (A') (A') (A') (A")
                 (A') (A") (A") (A')
       Virtual   (A') (A") (A') (A') (A") (A') (A') (A") (A') (A')
                 (A') (A') (A') (A') (A')
 Initial guess <Sx>= 0.0000 <Sy>= 0.0000 <Sz>= 0.5000 <S**2>= 1.6980 S= 0.8957
 Keep J ints in memory in canonical form, NReq=863709.
 Overlap will be assumed to be unity.
 Requested convergence on RMS density matrix=1.00D-08 within  32 cycles.
 Requested convergence on MAX density matrix=1.00D-06.
 Requested convergence on             energy=1.00D-06.
 No special actions if energy rises.
 Fock symm off for IB=2 I1=    1 I=   31 J=   18 Cut=1.00D-07 Err=4.54D-03
 Fock matrix is not symmetric: symmetry in diagonalization turned off.
 SCF Done:  E(UAM1) =  0.280678380257     A.U. after   27 cycles
            NFock= 26  Conv=0.56D-08     -V/T= 1.0025
 <Sx>= 0.0000 <Sy>= 0.0000 <Sz>= 0.5000 <S**2>= 0.9592 S= 0.5996
 <L.S>=  0.00000000000    
 Annihilation of the first spin contaminant:
 S**2 before annihilation     0.9592,   after     0.7908
 QCSCF skips out because SCF is already converged.
 Calling FoFJK, ICntrl=      2127 FMM=F ISym2X=1 I1Cent= 0 IOpClX= 1 NMat=1 NMatS=1 NMatT=0.
 ***** Axes restored to original set *****
 -------------------------------------------------------------------
 Center     Atomic                   Forces (Hartrees/Bohr)
 Number     Number              X              Y              Z
 -------------------------------------------------------------------
      1        6          -0.009321209    0.025866776   -0.000000000
      2        6           0.002717016    0.078671529    0.000000000
      3        6           0.013877634    0.022108438    0.000000000
      4        6           0.002370741   -0.003827066    0.000000000
      5        6           0.004140786   -0.099927915   -0.000000000
      6        6          -0.007974007   -0.021752126   -0.000000000
      7       17           0.019194089    0.009431554   -0.000000000
      8       17           0.016986511   -0.009093861    0.000000000
      9       17          -0.018990156    0.007866972   -0.000000000
     10        1          -0.004632833    0.119353419   -0.000000000
     11        1           0.002760623   -0.115987093    0.000000000
     12        1          -0.021129196   -0.012710626    0.000000000
 -------------------------------------------------------------------
 Cartesian Forces:  Max     0.119353419 RMS     0.036431112

 GradGradGradGradGradGradGradGradGradGradGradGradGradGradGradGradGradGrad
 Berny optimization.
 Using GEDIIS/GDIIS optimizer.
 FormGI is forming the generalized inverse of G from B-inverse, IUseBI=4.
 Internal  Forces:  Max     0.119437216 RMS     0.024101572
 Search for a local minimum.
 Step number   2 out of a maximum of   64
 All quantities printed in internal units (Hartrees-Bohrs-Radians)
 Mixed Optimization -- RFO/linear search
 Update second derivatives using D2CorX and points    1    2
 DE= -4.97D-02 DEPred=-4.12D-02 R= 1.21D+00
 TightC=F SS=  1.41D+00  RLast= 3.00D-01 DXNew= 5.0454D-01 9.0000D-01
 Trust test= 1.21D+00 RLast= 3.00D-01 DXMaxT set to 5.05D-01
 ITU=  1  0
 Use linear search instead of GDIIS.
     Eigenvalues ---   -0.28047   0.02011   0.02011   0.02011   0.02011
     Eigenvalues ---    0.02011   0.02011   0.02011   0.02011   0.02011
     Eigenvalues ---    0.05250   0.06524   0.10728   0.15997   0.16000
     Eigenvalues ---    0.16006   0.23166   0.23952   0.24699   0.24998
     Eigenvalues ---    0.25000   0.25183   0.29030   0.29033   0.32690
     Eigenvalues ---    0.40857   0.41496   0.44612   0.44656   0.44657
 RFO step:  Lambda=-3.30851704D-01 EMin=-2.80471687D-01
 Skip linear search -- no minimum in search direction.
 Maximum step size (   0.505) exceeded in Quadratic search.
    -- Step size scaled by   0.482
 Iteration  1 RMS(Cart)=  0.03567085 RMS(Int)=  0.02816519
 Iteration  2 RMS(Cart)=  0.02815437 RMS(Int)=  0.00004154
 Iteration  3 RMS(Cart)=  0.00001790 RMS(Int)=  0.00004034
 Iteration  4 RMS(Cart)=  0.00000000 RMS(Int)=  0.00004034
 ClnCor:  largest displacement from symmetrization is 3.19D-09 for atom     8.
 Variable       Old X    -DE/DX   Delta X   Delta X   Delta X     New X
                                 (Linear)    (Quad)   (Total)
    R1        2.63541  -0.01470   0.00000   0.03716   0.03718   2.67259
    R2        2.65282  -0.00032   0.00000   0.01833   0.01829   2.67111
    R3        3.31094  -0.01927   0.00000   0.00459   0.00459   3.31554
    R4        2.62103  -0.02044   0.00000   0.07912   0.07919   2.70022
    R5        3.14415  -0.11602   0.00000  -0.35254  -0.35254   2.79161
    R6        2.63469  -0.01098   0.00000   0.05575   0.05579   2.69048
    R7        3.27756  -0.02466   0.00000  -0.02717  -0.02717   3.25039
    R8        2.63869  -0.01333   0.00000   0.02835   0.02832   2.66701
    R9        3.30750  -0.02043   0.00000   0.01268   0.01268   3.32018
   R10        2.63526  -0.01647   0.00000   0.03203   0.03196   2.66722
   R11        3.12970  -0.11944   0.00000  -0.33958  -0.33958   2.79012
   R12        3.30698  -0.02127   0.00000   0.01045   0.01045   3.31743
    A1        2.08285  -0.00638   0.00000   0.01029   0.01027   2.09313
    A2        2.09974   0.00281   0.00000  -0.00559  -0.00558   2.09415
    A3        2.10059   0.00358   0.00000  -0.00470  -0.00469   2.09591
    A4        2.11682   0.01310   0.00000  -0.01287  -0.01277   2.10405
    A5        2.08294  -0.00697   0.00000   0.00463   0.00458   2.08753
    A6        2.08342  -0.00614   0.00000   0.00824   0.00819   2.09161
    A7        2.08312  -0.00867   0.00000  -0.01191  -0.01180   2.07133
    A8        2.10000   0.00379   0.00000   0.00261   0.00255   2.10255
    A9        2.10006   0.00488   0.00000   0.00931   0.00925   2.10930
   A10        2.09460   0.00201   0.00000   0.00840   0.00842   2.10301
   A11        2.09890   0.00271   0.00000  -0.00185  -0.00186   2.09705
   A12        2.08968  -0.00472   0.00000  -0.00655  -0.00656   2.08313
   A13        2.10435   0.00543   0.00000  -0.00469  -0.00479   2.09957
   A14        2.09167  -0.00083   0.00000   0.00656   0.00660   2.09828
   A15        2.08716  -0.00460   0.00000  -0.00187  -0.00182   2.08534
   A16        2.08462  -0.00549   0.00000   0.01078   0.01067   2.09528
   A17        2.10484   0.00640   0.00000  -0.00714  -0.00708   2.09776
   A18        2.09373  -0.00091   0.00000  -0.00364  -0.00358   2.09014
    D1       -0.00000  -0.00000   0.00000  -0.00000   0.00000   0.00000
    D2        3.14159  -0.00000   0.00000  -0.00000   0.00000   3.14159
    D3        3.14159  -0.00000   0.00000  -0.00000   0.00000   3.14159
    D4        0.00000  -0.00000   0.00000  -0.00000  -0.00000   0.00000
    D5        0.00000   0.00000   0.00000   0.00000  -0.00000   0.00000
    D6        3.14159  -0.00000   0.00000  -0.00000   0.00000   3.14159
    D7        3.14159   0.00000   0.00000   0.00000   0.00000   3.14159
    D8       -0.00000   0.00000   0.00000   0.00000   0.00000   0.00000
    D9        0.00000  -0.00000   0.00000   0.00000  -0.00000   0.00000
   D10        3.14159   0.00000   0.00000  -0.00000   0.00000   3.14159
   D11        3.14159  -0.00000   0.00000   0.00000   0.00000   3.14159
   D12       -0.00000  -0.00000   0.00000   0.00000   0.00000   0.00000
   D13        0.00000   0.00000   0.00000   0.00000   0.00000   0.00000
   D14        3.14159   0.00000   0.00000   0.00000   0.00000   3.14159
   D15        3.14159   0.00000   0.00000   0.00000   0.00000   3.14159
   D16        0.00000  -0.00000   0.00000   0.00000  -0.00000   0.00000
   D17       -0.00000  -0.00000   0.00000  -0.00000   0.00000   0.00000
   D18        3.14159   0.00000   0.00000  -0.00000   0.00000   3.14159
   D19        3.14159  -0.00000   0.00000  -0.00000   0.00000   3.14159
   D20        0.00000   0.00000   0.00000  -0.00000   0.00000   0.00000
   D21       -0.00000  -0.00000   0.00000   0.00000   0.00000   0.00000
   D22        3.14159   0.00000   0.00000   0.00000   0.00000   3.14159
   D23        3.14159  -0.00000   0.00000   0.00000   0.00000   3.14159
   D24        0.00000   0.00000   0.00000   0.00000  -0.00000   0.00000
         Item               Value     Threshold  Converged?
 Maximum Force            0.119437     0.000450     NO 
 RMS     Force            0.024102     0.000300     NO 
 Maximum Displacement     0.302899     0.001800     NO 
 RMS     Displacement     0.060568     0.001200     NO 
 Predicted change in Energy=-1.092186D-01
 GradGradGradGradGradGradGradGradGradGradGradGradGradGradGradGradGradGrad

                          Input orientation:                          
 ---------------------------------------------------------------------
 Center     Atomic      Atomic             Coordinates (Angstroms)
 Number     Number       Type             X           Y           Z
 ---------------------------------------------------------------------
      1          6           0       -3.216113    0.204844    0.000000
      2          6           0       -2.012360    0.947241    0.000000
      3          6           0       -0.748191    0.281191   -0.000000
      4          6           0       -0.725948   -1.142376   -0.000000
      5          6           0       -1.930723   -1.877457   -0.000000
      6          6           0       -3.173286   -1.207996    0.000000
      7         17           0       -4.663192   -2.136428    0.000000
      8         17           0       -4.760185    1.037991    0.000000
      9         17           0        0.806894   -2.001044   -0.000000
     10          1           0       -1.900661   -3.353620   -0.000000
     11          1           0       -2.065387    2.423544    0.000000
     12          1           0        0.714451    1.186279   -0.000000
 ---------------------------------------------------------------------
                    Distance matrix (angstroms):
                    1          2          3          4          5
     1  C    0.000000
     2  C    1.414275   0.000000
     3  C    2.469103   1.428897   0.000000
     4  C    2.831241   2.453844   1.423741   0.000000
     5  C    2.447081   2.825877   2.461330   1.411322   0.000000
     6  C    1.413489   2.448018   2.845833   2.448218   1.411432
     7  Cl   2.752380   4.066439   4.601317   4.060792   2.744713
     8  Cl   1.754506   2.749323   4.082749   4.585746   4.062720
     9  Cl   4.588086   4.079286   2.761682   1.756962   2.740406
    10  H    3.793822   4.302311   3.813141   2.503908   1.476470
    11  H    2.499360   1.477256   2.514892   3.809184   4.303109
    12  H    4.051241   2.737269   1.720031   2.738135   4.047645
                    6          7          8          9         10
     6  C    0.000000
     7  Cl   1.755507   0.000000
     8  Cl   2.750038   3.175901   0.000000
     9  Cl   4.058418   5.471761   6.342563   0.000000
    10  H    2.494650   3.018796   5.240527   3.026602   0.000000
    11  H    3.796778   5.248041   3.030130   5.275128   5.779513
    12  H    4.565857   6.321347   5.476644   3.188663   5.239227
                   11         12
    11  H    0.000000
    12  H    3.042750   0.000000
 Stoichiometry    C6H3Cl3(1-,2)
 Framework group  CS[SG(C6H3Cl3)]
 Deg. of freedom    21
 Full point group                 CS      NOp   2
 Largest Abelian subgroup         CS      NOp   2
 Largest concise Abelian subgroup C1      NOp   1
                         Standard orientation:                         
 ---------------------------------------------------------------------
 Center     Atomic      Atomic             Coordinates (Angstroms)
 Number     Number       Type             X           Y           Z
 ---------------------------------------------------------------------
      1          6           0        1.229604   -0.148295   -0.000000
      2          6           0        1.238864    1.265949   -0.000000
      3          6           0        0.013141    2.000352    0.000000
      4          6           0       -1.214940    1.280036    0.000000
      5          6           0       -1.217418   -0.131284    0.000000
      6          6           0        0.000000   -0.845450   -0.000000
      7         17           0       -0.019628   -2.600848   -0.000000
      8         17           0        2.743490   -1.035111   -0.000000
      9         17           0       -2.744802    2.144001    0.000000
     10          1           0       -2.494506   -0.872234    0.000000
     11          1           0        2.528000    1.987347   -0.000000
     12          1           0        0.026978    3.720327    0.000000
 ---------------------------------------------------------------------
 Rotational constants (GHZ):           1.7862043           0.5757998           0.4354337
 Standard basis: VSTO-6G (5D, 7F)
 There are    30 symmetry adapted cartesian basis functions of A'  symmetry.
 There are     9 symmetry adapted cartesian basis functions of A"  symmetry.
 There are    30 symmetry adapted basis functions of A'  symmetry.
 There are     9 symmetry adapted basis functions of A"  symmetry.
    39 basis functions,   234 primitive gaussians,    39 cartesian basis functions
    25 alpha electrons       24 beta electrons
       nuclear repulsion energy       247.0443870277 Hartrees.
 Integral buffers will be    131072 words long.
 Regular integral format.
 Two-electron integral symmetry is turned off.
 Do NDO integrals.
 One-electron integrals computed using PRISM.
 NBasis=    39 RedAO= T EigKep=  1.00D+00  NBF=    30     9
 NBsUse=    39 1.00D-06 EigRej= -1.00D+00 NBFU=    30     9
 Initial guess from the checkpoint file:  "geometry_chks/123ClBzAnionRadical.chk"
 B after Tr=     0.000000    0.000000   -0.000000
         Rot=    0.999998   -0.000000    0.000000    0.002154 Ang=   0.25 deg.
 Initial guess orbital symmetries:
 Alpha Orbitals:
       Occupied  (A') (A') (A') (A') (A') (A') (A') (A') (A') (A')
                 (A') (A") (A') (A") (A") (A') (A') (A') (A') (A")
                 (A') (A') (A") (A") (A')
       Virtual   (A') (A") (A') (A") (A') (A') (A') (A") (A') (A')
                 (A') (A') (A') (A')
 Beta  Orbitals:
       Occupied  (A') (A') (A') (A') (A') (A') (A') (A') (A') (A')
                 (A') (A") (A') (A") (A") (A') (A') (A') (A') (A")
                 (A') (A") (A") (A')
       Virtual   (A') (A") (A') (A") (A') (A') (A') (A") (A') (A')
                 (A') (A') (A') (A') (A')
 Initial guess <Sx>= 0.0000 <Sy>= 0.0000 <Sz>= 0.5000 <S**2>= 0.9592 S= 0.5996
 Keep J ints in memory in canonical form, NReq=863709.
 Overlap will be assumed to be unity.
 Requested convergence on RMS density matrix=1.00D-08 within  32 cycles.
 Requested convergence on MAX density matrix=1.00D-06.
 Requested convergence on             energy=1.00D-06.
 No special actions if energy rises.
 Fock symm off for IB=2 I1=    1 I=   31 J=   25 Cut=1.00D-07 Err=3.43D-03
 Fock matrix is not symmetric: symmetry in diagonalization turned off.
 SCF Done:  E(UAM1) =  0.204450707771     A.U. after   25 cycles
            NFock= 24  Conv=0.48D-08     -V/T= 1.0018
 <Sx>= 0.0000 <Sy>= 0.0000 <Sz>= 0.5000 <S**2>= 0.9183 S= 0.5809
 <L.S>=  0.00000000000    
 Annihilation of the first spin contaminant:
 S**2 before annihilation     0.9183,   after     0.7710
 QCSCF skips out because SCF is already converged.
 Calling FoFJK, ICntrl=      2127 FMM=F ISym2X=1 I1Cent= 0 IOpClX= 1 NMat=1 NMatS=1 NMatT=0.
 ***** Axes restored to original set *****
 -------------------------------------------------------------------
 Center     Atomic                   Forces (Hartrees/Bohr)
 Number     Number              X              Y              Z
 -------------------------------------------------------------------
      1        6           0.011622416    0.018085514   -0.000000000
      2        6           0.009895116    0.055955840   -0.000000000
      3        6          -0.011975445    0.008849127    0.000000000
      4        6          -0.016864605    0.014667991   -0.000000000
      5        6           0.003134072   -0.082740662    0.000000000
      6        6           0.006705257   -0.012519265   -0.000000000
      7       17           0.022274499    0.010665961    0.000000000
      8       17           0.019082707   -0.009544529    0.000000000
      9       17          -0.024063197    0.011755463    0.000000000
     10        1          -0.003584048    0.117183604    0.000000000
     11        1           0.004715446   -0.119903854    0.000000000
     12        1          -0.020942218   -0.012455191    0.000000000
 -------------------------------------------------------------------
 Cartesian Forces:  Max     0.119903854 RMS     0.034152462

 GradGradGradGradGradGradGradGradGradGradGradGradGradGradGradGradGradGrad
 Berny optimization.
 Using GEDIIS/GDIIS optimizer.
 FormGI is forming the generalized inverse of G from B-inverse, IUseBI=4.
 Internal  Forces:  Max     0.119995845 RMS     0.027251354
 Search for a local minimum.
 Step number   3 out of a maximum of   64
 All quantities printed in internal units (Hartrees-Bohrs-Radians)
 Mixed Optimization -- RFO/linear search
 Update second derivatives using D2CorX and points    2    3
 DE= -7.62D-02 DEPred=-1.09D-01 R= 6.98D-01
 TightC=F SS=  1.41D+00  RLast= 5.05D-01 DXNew= 8.4853D-01 1.5136D+00
 Trust test= 6.98D-01 RLast= 5.05D-01 DXMaxT set to 8.49D-01
 ITU=  1  1  0
 Use linear search instead of GDIIS.
     Eigenvalues ---    0.00469   0.02011   0.02011   0.02011   0.02011
     Eigenvalues ---    0.02011   0.02011   0.02011   0.02011   0.02011
     Eigenvalues ---    0.06062   0.06598   0.15980   0.15997   0.16004
     Eigenvalues ---    0.18571   0.23200   0.24430   0.24936   0.24999
     Eigenvalues ---    0.25020   0.27474   0.29032   0.29079   0.40221
     Eigenvalues ---    0.41020   0.44006   0.44635   0.44656   0.87575
 RFO step:  Lambda=-8.07276806D-02 EMin= 4.68894766D-03
 Quartic linear search produced a step of  1.17888.
 Iteration  1 RMS(Cart)=  0.07585241 RMS(Int)=  0.09795024
 Iteration  2 RMS(Cart)=  0.03855959 RMS(Int)=  0.05954047
 Iteration  3 RMS(Cart)=  0.03848988 RMS(Int)=  0.02166344
 Iteration  4 RMS(Cart)=  0.02150687 RMS(Int)=  0.00015461
 Iteration  5 RMS(Cart)=  0.00000010 RMS(Int)=  0.00015461
 ClnCor:  largest displacement from symmetrization is 1.25D-08 for atom     8.
 Variable       Old X    -DE/DX   Delta X   Delta X   Delta X     New X
                                 (Linear)    (Quad)   (Total)
    R1        2.67259  -0.03796   0.04383  -0.08745  -0.04341   2.62918
    R2        2.67111  -0.01960   0.02156  -0.01127   0.01023   2.68134
    R3        3.31554  -0.02133   0.00542  -0.10818  -0.10276   3.21277
    R4        2.70022  -0.05381   0.09336  -0.15020  -0.05658   2.64365
    R5        2.79161  -0.12000  -0.41560  -0.25898  -0.67458   2.11703
    R6        2.69048  -0.03964   0.06577  -0.09061  -0.02478   2.66570
    R7        3.25039  -0.02436  -0.03203  -0.19059  -0.22262   3.02776
    R8        2.66701  -0.03408   0.03338  -0.07303  -0.03985   2.62716
    R9        3.32018  -0.02674   0.01495  -0.12295  -0.10800   3.21218
   R10        2.66722  -0.03865   0.03768  -0.08705  -0.04964   2.61758
   R11        2.79012  -0.11723  -0.40032  -0.34029  -0.74062   2.04951
   R12        3.31743  -0.02455   0.01232  -0.12604  -0.11372   3.20371
    A1        2.09313  -0.00482   0.01211  -0.05312  -0.04087   2.05225
    A2        2.09415   0.00131  -0.00658   0.02534   0.01868   2.11284
    A3        2.09591   0.00351  -0.00553   0.02778   0.02219   2.11809
    A4        2.10405   0.01329  -0.01506   0.09770   0.08310   2.18715
    A5        2.08753  -0.00608   0.00540  -0.04941  -0.04424   2.04329
    A6        2.09161  -0.00722   0.00965  -0.04829  -0.03886   2.05274
    A7        2.07133  -0.00880  -0.01391  -0.04434  -0.05791   2.01342
    A8        2.10255   0.00370   0.00300   0.02441   0.02725   2.12980
    A9        2.10930   0.00510   0.01090   0.01993   0.03066   2.13996
   A10        2.10301   0.00741   0.00992  -0.00619   0.00360   2.10661
   A11        2.09705  -0.00121  -0.00219   0.02232   0.02020   2.11725
   A12        2.08313  -0.00620  -0.00773  -0.01613  -0.02380   2.05933
   A13        2.09957   0.00047  -0.00564   0.04829   0.04218   2.14175
   A14        2.09828   0.00144   0.00779  -0.01749  -0.00947   2.08881
   A15        2.08534  -0.00191  -0.00214  -0.03080  -0.03271   2.05263
   A16        2.09528  -0.00755   0.01257  -0.04233  -0.03010   2.06518
   A17        2.09776   0.00830  -0.00835   0.04475   0.03658   2.13434
   A18        2.09014  -0.00075  -0.00423  -0.00242  -0.00648   2.08367
    D1        0.00000   0.00000   0.00000   0.00000  -0.00000   0.00000
    D2        3.14159   0.00000   0.00000   0.00000   0.00000   3.14159
    D3        3.14159  -0.00000   0.00000  -0.00000   0.00000   3.14159
    D4        0.00000  -0.00000   0.00000  -0.00000   0.00000   0.00000
    D5       -0.00000  -0.00000   0.00000   0.00000   0.00000   0.00000
    D6        3.14159  -0.00000   0.00000  -0.00000   0.00000   3.14159
    D7        3.14159   0.00000   0.00000   0.00000   0.00000   3.14159
    D8        0.00000   0.00000   0.00000   0.00000   0.00000   0.00000
    D9       -0.00000   0.00000   0.00000  -0.00000   0.00000   0.00000
   D10        3.14159   0.00000   0.00000   0.00000   0.00000   3.14159
   D11        3.14159  -0.00000   0.00000  -0.00000   0.00000   3.14159
   D12        0.00000  -0.00000   0.00000   0.00000  -0.00000   0.00000
   D13        0.00000  -0.00000   0.00000   0.00000  -0.00000   0.00000
   D14        3.14159   0.00000   0.00000  -0.00000   0.00000   3.14159
   D15        3.14159  -0.00000   0.00000  -0.00000   0.00000   3.14159
   D16       -0.00000  -0.00000   0.00000  -0.00000   0.00000   0.00000
   D17       -0.00000   0.00000   0.00000   0.00000   0.00000   0.00000
   D18        3.14159   0.00000   0.00000   0.00000   0.00000   3.14159
   D19        3.14159  -0.00000   0.00000   0.00000   0.00000   3.14159
   D20        0.00000   0.00000   0.00000   0.00000  -0.00000   0.00000
   D21        0.00000  -0.00000   0.00000  -0.00000  -0.00000   0.00000
   D22        3.14159   0.00000   0.00000   0.00000   0.00000   3.14159
   D23        3.14159  -0.00000   0.00000  -0.00000   0.00000   3.14159
   D24        0.00000  -0.00000   0.00000  -0.00000   0.00000   0.00000
         Item               Value     Threshold  Converged?
 Maximum Force            0.119996     0.000450     NO 
 RMS     Force            0.027251     0.000300     NO 
 Maximum Displacement     0.830003     0.001800     NO 
 RMS     Displacement     0.163553     0.001200     NO 
 Predicted change in Energy=-1.796733D-01
 GradGradGradGradGradGradGradGradGradGradGradGradGradGradGradGradGradGrad

                          Input orientation:                          
 ---------------------------------------------------------------------
 Center     Atomic      Atomic             Coordinates (Angstroms)
 Number     Number       Type             X           Y           Z
 ---------------------------------------------------------------------
      1          6           0       -3.212873    0.207960    0.000000
      2          6           0       -1.999964    0.889560    0.000000
      3          6           0       -0.735729    0.290568   -0.000000
      4          6           0       -0.735504   -1.120062   -0.000000
      5          6           0       -1.930789   -1.830025   -0.000000
      6          6           0       -3.169580   -1.210282    0.000000
      7         17           0       -4.574461   -2.159203    0.000000
      8         17           0       -4.690986    1.047966    0.000000
      9         17           0        0.716912   -2.003149   -0.000000
     10          1           0       -1.911309   -2.914402   -0.000000
     11          1           0       -2.044183    2.008968    0.000000
     12          1           0        0.613766    1.154271   -0.000000
 ---------------------------------------------------------------------
                    Distance matrix (angstroms):
                    1          2          3          4          5
     1  C    0.000000
     2  C    1.391304   0.000000
     3  C    2.478521   1.398957   0.000000
     4  C    2.810872   2.374329   1.410630   0.000000
     5  C    2.407721   2.720464   2.434149   1.390235   0.000000
     6  C    1.418903   2.403609   2.859402   2.435747   1.385165
     7  Cl   2.730821   3.990362   4.553816   3.977110   2.664087
     8  Cl   1.700125   2.695680   4.027121   4.510674   3.987670
     9  Cl   4.509126   3.968524   2.715015   1.699811   2.653355
    10  H    3.382782   3.804995   3.413769   2.145267   1.084552
    11  H    2.146967   1.120281   2.159850   3.391677   3.840667
    12  H    3.941913   2.627101   1.602224   2.644452   3.921834
                    6          7          8          9         10
     6  C    0.000000
     7  Cl   1.695330   0.000000
     8  Cl   2.722932   3.209284   0.000000
     9  Cl   3.966542   5.293674   6.209240   0.000000
    10  H    2.118318   2.768160   4.840140   2.781712   0.000000
    11  H    3.410292   4.876060   2.815864   4.870393   4.925163
    12  H    4.461482   6.156039   5.305817   3.159105   4.788539
                   11         12
    11  H    0.000000
    12  H    2.791989   0.000000
 Stoichiometry    C6H3Cl3(1-,2)
 Framework group  CS[SG(C6H3Cl3)]
 Deg. of freedom    21
 Full point group                 CS      NOp   2
 Largest Abelian subgroup         CS      NOp   2
 Largest concise Abelian subgroup C1      NOp   1
                         Standard orientation:                         
 ---------------------------------------------------------------------
 Center     Atomic      Atomic             Coordinates (Angstroms)
 Number     Number       Type             X           Y           Z
 ---------------------------------------------------------------------
      1          6           0        1.237922   -0.160701    0.000000
      2          6           0        1.197379    1.230012    0.000000
      3          6           0        0.032761    2.005091    0.000000
      4          6           0       -1.176452    1.278674    0.000000
      5          6           0       -1.169297   -0.111542    0.000000
      6          6           0        0.000000   -0.854123    0.000000
      7         17           0       -0.089702   -2.547078    0.000000
      8         17           0        2.719288   -0.994956    0.000000
[...]
    D1        0.00000   0.00000   0.00000  -0.00000  -0.00000   0.00000
    D2        3.14159   0.00000   0.00000  -0.00000   0.00000   3.14159
    D3        3.14159  -0.00000   0.00000   0.00000   0.00000   3.14159
    D4       -0.00000   0.00000   0.00000  -0.00000   0.00000   0.00000
    D5        0.00000  -0.00000   0.00000   0.00000   0.00000   0.00000
    D6        3.14159  -0.00000   0.00000   0.00000   0.00000   3.14159
    D7        3.14159   0.00000   0.00000  -0.00000   0.00000   3.14159
    D8        0.00000   0.00000   0.00000   0.00000   0.00000   0.00000
    D9        0.00000  -0.00000   0.00000  -0.00000  -0.00000   0.00000
   D10        3.14159   0.00000   0.00000  -0.00000   0.00000   3.14159
   D11        3.14159  -0.00000   0.00000   0.00000   0.00000   3.14159
   D12       -0.00000  -0.00000   0.00000  -0.00000   0.00000   0.00000
   D13        0.00000  -0.00000   0.00000   0.00000   0.00000   0.00000
   D14        3.14159  -0.00000   0.00000  -0.00000   0.00000   3.14159
   D15        3.14159  -0.00000   0.00000   0.00000   0.00000   3.14159
   D16        0.00000  -0.00000   0.00000  -0.00000  -0.00000   0.00000
   D17       -0.00000   0.00000   0.00000  -0.00000   0.00000   0.00000
   D18        3.14159   0.00000   0.00000  -0.00000   0.00000   3.14159
   D19        3.14159   0.00000   0.00000   0.00000   0.00000   3.14159
   D20       -0.00000   0.00000   0.00000   0.00000   0.00000   0.00000
   D21        0.00000  -0.00000   0.00000  -0.00000   0.00000   0.00000
   D22        3.14159   0.00000   0.00000  -0.00000   0.00000   3.14159
   D23        3.14159  -0.00000   0.00000   0.00000   0.00000   3.14159
   D24       -0.00000  -0.00000   0.00000   0.00000   0.00000   0.00000
         Item               Value     Threshold  Converged?
 Maximum Force            0.000139     0.000450     YES
 RMS     Force            0.000037     0.000300     YES
 Maximum Displacement     0.000566     0.001800     YES
 RMS     Displacement     0.000157     0.001200     YES
 Predicted change in Energy=-1.266869D-07
 Optimization completed.
    -- Stationary point found.
                           ----------------------------
                           !   Optimized Parameters   !
                           ! (Angstroms and Degrees)  !
 --------------------------                            --------------------------
 ! Name  Definition              Value          Derivative Info.                !
 --------------------------------------------------------------------------------
 ! R1    R(1,2)                  1.4022         -DE/DX =    0.0001              !
 ! R2    R(1,6)                  1.4044         -DE/DX =   -0.0001              !
 ! R3    R(1,8)                  1.7113         -DE/DX =    0.0                 !
 ! R4    R(2,3)                  1.3944         -DE/DX =   -0.0001              !
 ! R5    R(2,11)                 1.0987         -DE/DX =    0.0                 !
 ! R6    R(3,4)                  1.3981         -DE/DX =    0.0                 !
 ! R7    R(3,12)                 1.0985         -DE/DX =   -0.0001              !
 ! R8    R(4,5)                  1.3964         -DE/DX =    0.0                 !
 ! R9    R(4,9)                  1.9385         -DE/DX =    0.0                 !
 ! R10   R(5,6)                  1.3994         -DE/DX =    0.0                 !
 ! R11   R(5,10)                 1.0982         -DE/DX =    0.0001              !
 ! R12   R(6,7)                  1.7138         -DE/DX =    0.0                 !
 ! A1    A(2,1,6)              119.8117         -DE/DX =    0.0                 !
 ! A2    A(2,1,8)              118.8915         -DE/DX =   -0.0001              !
 ! A3    A(6,1,8)              121.2968         -DE/DX =    0.0001              !
 ! A4    A(1,2,3)              119.6879         -DE/DX =    0.0                 !
 ! A5    A(1,2,11)             119.5737         -DE/DX =   -0.0001              !
 ! A6    A(3,2,11)             120.7383         -DE/DX =    0.0001              !
 ! A7    A(2,3,4)              120.6309         -DE/DX =    0.0                 !
 ! A8    A(2,3,12)             120.0403         -DE/DX =    0.0                 !
 ! A9    A(4,3,12)             119.3288         -DE/DX =    0.0                 !
 ! A10   A(3,4,5)              119.7988         -DE/DX =    0.0                 !
 ! A11   A(3,4,9)              119.8881         -DE/DX =    0.0                 !
 ! A12   A(5,4,9)              120.3131         -DE/DX =    0.0                 !
 ! A13   A(4,5,6)              120.0096         -DE/DX =    0.0                 !
 ! A14   A(4,5,10)             119.5616         -DE/DX =   -0.0001              !
 ! A15   A(6,5,10)             120.4288         -DE/DX =    0.0                 !
 ! A16   A(1,6,5)              120.0611         -DE/DX =    0.0                 !
 ! A17   A(1,6,7)              120.4284         -DE/DX =    0.0                 !
 ! A18   A(5,6,7)              119.5105         -DE/DX =    0.0                 !
 ! D1    D(6,1,2,3)              0.0            -DE/DX =    0.0                 !
 ! D2    D(6,1,2,11)           180.0            -DE/DX =    0.0                 !
 ! D3    D(8,1,2,3)            180.0            -DE/DX =    0.0                 !
 ! D4    D(8,1,2,11)             0.0            -DE/DX =    0.0                 !
 ! D5    D(2,1,6,5)              0.0            -DE/DX =    0.0                 !
 ! D6    D(2,1,6,7)            180.0            -DE/DX =    0.0                 !
 ! D7    D(8,1,6,5)            180.0            -DE/DX =    0.0                 !
 ! D8    D(8,1,6,7)              0.0            -DE/DX =    0.0                 !
 ! D9    D(1,2,3,4)              0.0            -DE/DX =    0.0                 !
 ! D10   D(1,2,3,12)           180.0            -DE/DX =    0.0                 !
 ! D11   D(11,2,3,4)           180.0            -DE/DX =    0.0                 !
 ! D12   D(11,2,3,12)            0.0            -DE/DX =    0.0                 !
 ! D13   D(2,3,4,5)              0.0            -DE/DX =    0.0                 !
 ! D14   D(2,3,4,9)            180.0            -DE/DX =    0.0                 !
 ! D15   D(12,3,4,5)           180.0            -DE/DX =    0.0                 !
 ! D16   D(12,3,4,9)             0.0            -DE/DX =    0.0                 !
 ! D17   D(3,4,5,6)              0.0            -DE/DX =    0.0                 !
 ! D18   D(3,4,5,10)           180.0            -DE/DX =    0.0                 !
 ! D19   D(9,4,5,6)            180.0            -DE/DX =    0.0                 !
 ! D20   D(9,4,5,10)             0.0            -DE/DX =    0.0                 !
 ! D21   D(4,5,6,1)              0.0            -DE/DX =    0.0                 !
 ! D22   D(4,5,6,7)            180.0            -DE/DX =    0.0                 !
 ! D23   D(10,5,6,1)           180.0            -DE/DX =    0.0                 !
 ! D24   D(10,5,6,7)             0.0            -DE/DX =    0.0                 !
 --------------------------------------------------------------------------------
 GradGradGradGradGradGradGradGradGradGradGradGradGradGradGradGradGradGrad

                          Input orientation:                          
 ---------------------------------------------------------------------
 Center     Atomic      Atomic             Coordinates (Angstroms)
 Number     Number       Type             X           Y           Z
 ---------------------------------------------------------------------
      1          6           0       -3.179841    0.234762    0.000000
      2          6           0       -1.983551    0.966283    0.000000
      3          6           0       -0.762378    0.293087   -0.000000
      4          6           0       -0.719333   -1.104364   -0.000000
      5          6           0       -1.909130   -1.835275   -0.000000
      6          6           0       -3.139801   -1.169093    0.000000
      7         17           0       -4.592168   -2.078823    0.000000
      8         17           0       -4.666892    1.081688    0.000000
      9         17           0        0.990329   -2.018152   -0.000000
     10          1           0       -1.870778   -2.932756   -0.000000
     11          1           0       -2.019438    2.064440    0.000000
     12          1           0        0.178280    0.860373   -0.000000
 ---------------------------------------------------------------------
                    Distance matrix (angstroms):
                    1          2          3          4          5
     1  C    0.000000
     2  C    1.402225   0.000000
     3  C    2.418167   1.394438   0.000000
     4  C    2.801314   2.426073   1.398114   0.000000
     5  C    2.428942   2.802546   2.417636   1.396369   0.000000
     6  C    1.404425   2.428321   2.791076   2.421333   1.399410
     7  Cl   2.710598   4.009682   4.504803   3.993547   2.694069
     8  Cl   1.711316   2.685821   3.983355   4.512432   4.014215
     9  Cl   4.739825   4.213172   2.900657   1.938544   2.905221
    10  H    3.427363   3.900670   3.410955   2.160750   1.098151
    11  H    2.166624   1.098743   2.172071   3.425141   3.901274
    12  H    3.415900   2.164425   1.098477   2.160070   3.409369
                    6          7          8          9         10
     6  C    0.000000
     7  Cl   1.713762   0.000000
     8  Cl   2.719930   3.161394   0.000000
     9  Cl   4.216500   5.582827   6.450826   0.000000
    10  H    2.172769   2.852221   4.892240   3.003737   0.000000
    11  H    3.422126   4.877045   2.823971   5.072106   4.999407
    12  H    3.889524   5.603218   4.850224   2.990875   4.311203
                   11         12
    11  H    0.000000
    12  H    2.505942   0.000000
 Stoichiometry    C6H3Cl3(1-,2)
 Framework group  CS[SG(C6H3Cl3)]
 Deg. of freedom    21
 Full point group                 CS      NOp   2
 Largest Abelian subgroup         CS      NOp   2
 Largest concise Abelian subgroup C1      NOp   1
                         Standard orientation:                         
 ---------------------------------------------------------------------
 Center     Atomic      Atomic             Coordinates (Angstroms)
 Number     Number       Type             X           Y           Z
 ---------------------------------------------------------------------
      1          6           0        1.243665   -0.215823   -0.000000
      2          6           0        1.295753    1.185433    0.000000
      3          6           0        0.110846    1.920588    0.000000
      4          6           0       -1.128707    1.273878    0.000000
      5          6           0       -1.183442   -0.121417    0.000000
      6          6           0        0.000000   -0.868287   -0.000000
      7         17           0       -0.082089   -2.580082   -0.000000
      8         17           0        2.710235   -1.097739   -0.000000
      9         17           0       -2.762574    2.317158    0.000000
     10          1           0       -2.159144   -0.625342    0.000000
     11          1           0        2.270838    1.691839    0.000000
     12          1           0        0.144899    3.018537    0.000000
 ---------------------------------------------------------------------
 Rotational constants (GHZ):           1.8587190           0.5625951           0.4318755

 **********************************************************************

            Population analysis using the SCF Density.

 **********************************************************************

 Orbital symmetries:
 Alpha Orbitals:
       Occupied  (A') (A') (A') (A') (A') (A') (A') (A') (A') (A')
                 (A') (A") (A') (A') (A") (A') (A') (A") (A') (A')
                 (A") (A") (A') (A") (A')
       Virtual   (A") (A") (A') (A') (A") (A') (A') (A') (A') (A')
                 (A') (A') (A') (A')
 Beta  Orbitals:
       Occupied  (A') (A') (A') (A') (A') (A') (A') (A') (A') (A')
                 (A') (A") (A') (A') (A") (A') (A') (A") (A') (A')
                 (A") (A") (A') (A")
       Virtual   (A") (A') (A") (A') (A") (A') (A') (A') (A') (A')
                 (A') (A') (A') (A') (A')
 The electronic state is 2-A'.
 Alpha  occ. eigenvalues --   -1.30508  -1.25060  -1.23182  -1.07044  -1.00737
 Alpha  occ. eigenvalues --   -0.97097  -0.71462  -0.69906  -0.52805  -0.46555
 Alpha  occ. eigenvalues --   -0.45504  -0.40848  -0.39861  -0.38725  -0.34838
 Alpha  occ. eigenvalues --   -0.32724  -0.32165  -0.30831  -0.29473  -0.28741
 Alpha  occ. eigenvalues --   -0.22658  -0.21514  -0.19675  -0.16998  -0.07273
 Alpha virt. eigenvalues --    0.15787   0.16371   0.17207   0.18754   0.25476
 Alpha virt. eigenvalues --    0.27348   0.29503   0.30549   0.31779   0.32235
 Alpha virt. eigenvalues --    0.33178   0.33475   0.36549   0.37444
  Beta  occ. eigenvalues --   -1.30377  -1.25007  -1.22977  -1.03555  -1.00584
  Beta  occ. eigenvalues --   -0.96371  -0.71403  -0.68607  -0.52630  -0.45677
  Beta  occ. eigenvalues --   -0.45244  -0.40865  -0.39613  -0.37930  -0.34806
  Beta  occ. eigenvalues --   -0.32547  -0.31659  -0.30520  -0.29296  -0.24779
  Beta  occ. eigenvalues --   -0.21870  -0.21287  -0.18576  -0.17201
  Beta virt. eigenvalues --    0.15814   0.17193   0.17376   0.18763   0.27043
  Beta virt. eigenvalues --    0.27704   0.28453   0.29724   0.30660   0.31768
  Beta virt. eigenvalues --    0.32720   0.33135   0.34729   0.37148   0.38984
          Condensed to atoms (all electrons):
               1          2          3          4          5          6
     1  C    4.114384   0.000000   0.000000   0.000000   0.000000   0.000000
     2  C    0.000000   4.143120   0.000000   0.000000   0.000000   0.000000
     3  C    0.000000   0.000000   4.145269   0.000000   0.000000   0.000000
     4  C    0.000000   0.000000   0.000000   4.075272   0.000000   0.000000
     5  C    0.000000   0.000000   0.000000   0.000000   4.138109   0.000000
     6  C    0.000000   0.000000   0.000000   0.000000   0.000000   4.063605
     7  Cl   0.000000   0.000000   0.000000   0.000000   0.000000   0.000000
     8  Cl   0.000000   0.000000   0.000000   0.000000   0.000000   0.000000
     9  Cl   0.000000   0.000000   0.000000   0.000000   0.000000   0.000000
    10  H    0.000000   0.000000   0.000000   0.000000   0.000000   0.000000
    11  H    0.000000   0.000000   0.000000   0.000000   0.000000   0.000000
    12  H    0.000000   0.000000   0.000000   0.000000   0.000000   0.000000
               7          8          9         10         11         12
     1  C    0.000000   0.000000   0.000000   0.000000   0.000000   0.000000
     2  C    0.000000   0.000000   0.000000   0.000000   0.000000   0.000000
     3  C    0.000000   0.000000   0.000000   0.000000   0.000000   0.000000
     4  C    0.000000   0.000000   0.000000   0.000000   0.000000   0.000000
     5  C    0.000000   0.000000   0.000000   0.000000   0.000000   0.000000
     6  C    0.000000   0.000000   0.000000   0.000000   0.000000   0.000000
     7  Cl   7.084573   0.000000   0.000000   0.000000   0.000000   0.000000
     8  Cl   0.000000   7.080898   0.000000   0.000000   0.000000   0.000000
     9  Cl   0.000000   0.000000   7.522769   0.000000   0.000000   0.000000
    10  H    0.000000   0.000000   0.000000   0.864836   0.000000   0.000000
    11  H    0.000000   0.000000   0.000000   0.000000   0.890225   0.000000
    12  H    0.000000   0.000000   0.000000   0.000000   0.000000   0.876938
          Atomic-Atomic Spin Densities.
               1          2          3          4          5          6
     1  C   -0.344219   0.000000   0.000000   0.000000   0.000000   0.000000
     2  C    0.000000   0.326972   0.000000   0.000000   0.000000   0.000000
     3  C    0.000000   0.000000  -0.316912   0.000000   0.000000   0.000000
     4  C    0.000000   0.000000   0.000000   0.845279   0.000000   0.000000
     5  C    0.000000   0.000000   0.000000   0.000000  -0.315363   0.000000
     6  C    0.000000   0.000000   0.000000   0.000000   0.000000   0.331935
     7  Cl   0.000000   0.000000   0.000000   0.000000   0.000000   0.000000
     8  Cl   0.000000   0.000000   0.000000   0.000000   0.000000   0.000000
     9  Cl   0.000000   0.000000   0.000000   0.000000   0.000000   0.000000
    10  H    0.000000   0.000000   0.000000   0.000000   0.000000   0.000000
    11  H    0.000000   0.000000   0.000000   0.000000   0.000000   0.000000
    12  H    0.000000   0.000000   0.000000   0.000000   0.000000   0.000000
               7          8          9         10         11         12
     1  C    0.000000   0.000000   0.000000   0.000000   0.000000   0.000000
     2  C    0.000000   0.000000   0.000000   0.000000   0.000000   0.000000
     3  C    0.000000   0.000000   0.000000   0.000000   0.000000   0.000000
     4  C    0.000000   0.000000   0.000000   0.000000   0.000000   0.000000
     5  C    0.000000   0.000000   0.000000   0.000000   0.000000   0.000000
     6  C    0.000000   0.000000   0.000000   0.000000   0.000000   0.000000
     7  Cl   0.006630   0.000000   0.000000   0.000000   0.000000   0.000000
     8  Cl   0.000000   0.003793   0.000000   0.000000   0.000000   0.000000
     9  Cl   0.000000   0.000000   0.437914   0.000000   0.000000   0.000000
    10  H    0.000000   0.000000   0.000000   0.019377   0.000000   0.000000
    11  H    0.000000   0.000000   0.000000   0.000000  -0.014399   0.000000
    12  H    0.000000   0.000000   0.000000   0.000000   0.000000   0.018993
 Mulliken charges and spin densities:
               1          2
     1  C   -0.114384  -0.344219
     2  C   -0.143120   0.326972
     3  C   -0.145269  -0.316912
     4  C   -0.075272   0.845279
     5  C   -0.138109  -0.315363
     6  C   -0.063605   0.331935
     7  Cl  -0.084573   0.006630
     8  Cl  -0.080898   0.003793
     9  Cl  -0.522769   0.437914
    10  H    0.135164   0.019377
    11  H    0.109775  -0.014399
    12  H    0.123062   0.018993
 Sum of Mulliken charges =  -1.00000   1.00000
 Mulliken charges and spin densities with hydrogens summed into heavy atoms:
               1          2
     1  C   -0.114384  -0.344219
     2  C   -0.033346   0.312573
     3  C   -0.022206  -0.297919
     4  C   -0.075272   0.845279
     5  C   -0.002946  -0.295986
     6  C   -0.063605   0.331935
     7  Cl  -0.084573   0.006630
     8  Cl  -0.080898   0.003793
     9  Cl  -0.522769   0.437914
 Charge=             -1.0000 electrons
 Dipole moment (field-independent basis, Debye):
    X=              6.3275    Y=             -4.8880    Z=              0.0000  Tot=              7.9956
 N-N= 2.498798775421D+02 E-N=-3.574634230685D+02  KE=-1.152260946736D+02
 Symmetry A'   KE=-8.919885784269D+01
 Symmetry A"   KE=-2.602723683087D+01
 Symmetry A'   SP= 1.000000000000D+00
 Symmetry A"   SP= 3.996802888651D-15
 1\1\GINC-SH02-01N11\FOpt\UAM1\ZDO\C6H3Cl3(1-,2)\JLAPIER\09-Dec-2025\0\
 \# opt am1 SCF=XQC\\3-Chloro-Benzene Anion Radical (123)\\-1,2\C,-3.17
 98414086,0.2347615708,0.\C,-1.9835513961,0.9662833002,0.\C,-0.76237810
 04,0.2930871162,0.\C,-0.7193333728,-1.1043643025,0.\C,-1.9091296876,-1
 .8352745805,0.\C,-3.1398005643,-1.1690928231,0.\Cl,-4.5921678238,-2.07
 88230735,0.\Cl,-4.6668915449,1.0816879314,0.\Cl,0.9903292515,-2.018152
 2001,0.\H,-1.8707777619,-2.9327559623,0.\H,-2.0194380391,2.0644399359,
 0.\H,0.1782804481,0.8603730874,0.\\Version=ES64L-G16RevB.01\State=2-A'
 \HF=-0.0127079\S2=1.008438\S2-1=0.\S2A=0.799984\RMSD=2.535e-09\RMSF=7.
 425e-05\Dipole=-2.8957128,1.22899,0.\PG=CS [SG(C6H3Cl3)]\\@


 WHEN YOU REACH FOR THE STARS, YOU MAY NOT QUITE GET ONE,
 BUT YOU WON'T COME UP WITH A HANDFUL OF MUD, EITHER.

                                         -- LEO BURNETT (AD AGENCY HEAD)
 Job cpu time:       0 days  0 hours  0 minutes 16.1 seconds.
 Elapsed time:       0 days  0 hours  0 minutes 31.1 seconds.
 File lengths (MBytes):  RWF=     15 Int=      0 D2E=      0 Chk=      2 Scr=      1
 Normal termination of Gaussian 16 at Tue Dec  9 08:35:15 2025.
