 Entering Gaussian System, Link 0=g16
 Initial command:
 /share/software/user/restricted/gaussian/g16.B01/l1.exe "/home/users/jlapier/Chloroaromatics/Gau-8845.inp" -scrdir="/home/users/jlapier/Chloroaromatics/"
 Entering Link 1 = /share/software/user/restricted/gaussian/g16.B01/l1.exe PID=      8847.
  
 Copyright (c) 1988-2017, Gaussian, Inc.  All Rights Reserved.
  
 This is part of the Gaussian(R) 16 program.  It is based on
 the Gaussian(R) 09 system (copyright 2009, Gaussian, Inc.),
 the Gaussian(R) 03 system (copyright 2003, Gaussian, Inc.),
 the Gaussian(R) 98 system (copyright 1998, Gaussian, Inc.),
 the Gaussian(R) 94 system (copyright 1995, Gaussian, Inc.),
 the Gaussian 92(TM) system (copyright 1992, Gaussian, Inc.),
 the Gaussian 90(TM) system (copyright 1990, Gaussian, Inc.),
 the Gaussian 88(TM) system (copyright 1988, Gaussian, Inc.),
 the Gaussian 86(TM) system (copyright 1986, Carnegie Mellon
 University), and the Gaussian 82(TM) system (copyright 1983,
 Carnegie Mellon University). Gaussian is a federally registered
 trademark of Gaussian, Inc.
  
 This software contains proprietary and confidential information,
 including trade secrets, belonging to Gaussian, Inc.
  
 This software is provided under written license and may be
 used, copied, transmitted, or stored only in accord with that
 written license.
  
 The following legend is applicable only to US Government
 contracts under FAR:
  
                    RESTRICTED RIGHTS LEGEND
  
 Use, reproduction and disclosure by the US Government is
 subject to restrictions as set forth in subparagraphs (a)
 and (c) of the Commercial Computer Software - Restricted
 Rights clause in FAR 52.227-19.
  
 Gaussian, Inc.
 340 Quinnipiac St., Bldg. 40, Wallingford CT 06492
  
  
 ---------------------------------------------------------------
 Warning -- This program may not be used in any manner that
 competes with the business of Gaussian, Inc. or will provide
 assistance to any competitor of Gaussian, Inc.  The licensee
 of this program is prohibited from giving any competitor of
 Gaussian, Inc. access to this program.  By using this program,
 the user acknowledges that Gaussian, Inc. is engaged in the
 business of creating and licensing software in the field of
 computational chemistry and represents and warrants to the
 licensee that it is not a competitor of Gaussian, Inc. and that
 it will not use this program in any manner prohibited above.
 ---------------------------------------------------------------
  

 Cite this work as:
 Gaussian 16, Revision B.01,
 M. J. Frisch, G. W. Trucks, H. B. Schlegel, G. E. Scuseria, 
 M. A. Robb, J. R. Cheeseman, G. Scalmani, V. Barone, 
 G. A. Petersson, H. Nakatsuji, X. Li, M. Caricato, A. V. Marenich, 
 J. Bloino, B. G. Janesko, R. Gomperts, B. Mennucci, H. P. Hratchian, 
 J. V. Ortiz, A. F. Izmaylov, J. L. Sonnenberg, D. Williams-Young, 
 F. Ding, F. Lipparini, F. Egidi, J. Goings, B. Peng, A. Petrone, 
 T. Henderson, D. Ranasinghe, V. G. Zakrzewski, J. Gao, N. Rega, 
 G. Zheng, W. Liang, M. Hada, M. Ehara, K. Toyota, R. Fukuda, 
 J. Hasegawa, M. Ishida, T. Nakajima, Y. Honda, O. Kitao, H. Nakai, 
 T. Vreven, K. Throssell, J. A. Montgomery, Jr., J. E. Peralta, 
 F. Ogliaro, M. J. Bearpark, J. J. Heyd, E. N. Brothers, K. N. Kudin, 
 V. N. Staroverov, T. A. Keith, R. Kobayashi, J. Normand, 
 K. Raghavachari, A. P. Rendell, J. C. Burant, S. S. Iyengar, 
 J. Tomasi, M. Cossi, J. M. Millam, M. Klene, C. Adamo, R. Cammi, 
 J. W. Ochterski, R. L. Martin, K. Morokuma, O. Farkas, 
 J. B. Foresman, and D. J. Fox, Gaussian, Inc., Wallingford CT, 2016.
 
 ******************************************
 Gaussian 16:  ES64L-G16RevB.01 20-Dec-2017
                 9-Dec-2025 
 ******************************************
 %mem=2GB
 %nprocshare=1
 Will use up to    1 processors via shared memory.
 %chk=geometry_chks/123ClBz.chk
 -----------------
 # opt am1 SCF=XQC
 -----------------
 1/18=20,19=15,26=1,38=1/1,3;
 2/9=110,12=2,17=6,18=5,40=1/2;
 3/5=2,25=1,41=700000,71=1/1,2,3;
 4/35=1/1;
 5/5=2,8=3,13=1,35=1,38=5/2,8;
 6/7=2,8=2,9=2,10=2,28=1/1;
 7//1,2,3,16;
 1/18=20,19=15,26=1/3(2);
 2/9=110/2;
 99//99;
 2/9=110/2;
 3/5=2,25=1,41=700000,71=1,135=20/1,2,3;
 4/5=5,16=3,35=1/1;
 5/5=2,8=3,13=1,35=1,38=5/2,8;
 7//1,2,3,16;
 1/18=20,19=15,26=1/3(-5);
 2/9=110/2;
 6/7=2,8=2,9=2,10=2,19=2,28=1/1;
 99/9=1/99;
 ----------------------
 3-Chloro-Benzene (123)
 ----------------------
 Symbolic Z-matrix:
 Charge =  0 Multiplicity = 1
 C                    -3.20928   0.19943   0. 
 C                    -2.0115    0.93555   0. 
 C                    -0.77511   0.2663    0. 
 C                    -0.7365   -1.13907   0. 
 C                    -1.93429  -1.87519   0. 
 C                    -3.17067  -1.20594   0. 
 Cl                   -4.67483  -2.13035   0. 
 Cl                   -4.76193   1.03987   0. 
 Cl                   -2.05998   2.7004    0. 
 H                     0.72905   1.19071   0. 
 H                     0.81614  -1.97951   0. 
 H                    -1.8858   -3.64003   0. 
 
 Add virtual bond connecting atoms H12        and C5         Dist= 3.34D+00.
 Add virtual bond connecting atoms H11        and C4         Dist= 3.34D+00.
 Add virtual bond connecting atoms H10        and C3         Dist= 3.34D+00.

 GradGradGradGradGradGradGradGradGradGradGradGradGradGradGradGradGradGrad
 Berny optimization.
 Initialization pass.
                           ----------------------------
                           !    Initial Parameters    !
                           ! (Angstroms and Degrees)  !
 --------------------------                            --------------------------
 ! Name  Definition              Value          Derivative Info.                !
 --------------------------------------------------------------------------------
 ! R1    R(1,2)                  1.4059         estimate D2E/DX2                !
 ! R2    R(1,6)                  1.4059         estimate D2E/DX2                !
 ! R3    R(1,8)                  1.7655         estimate D2E/DX2                !
 ! R4    R(2,3)                  1.4059         estimate D2E/DX2                !
 ! R5    R(2,9)                  1.7655         estimate D2E/DX2                !
 ! R6    R(3,4)                  1.4059         estimate D2E/DX2                !
 ! R7    R(3,10)                 1.7655         estimate D2E/DX2                !
 ! R8    R(4,5)                  1.4059         estimate D2E/DX2                !
 ! R9    R(4,11)                 1.7655         estimate D2E/DX2                !
 ! R10   R(5,6)                  1.4059         estimate D2E/DX2                !
 ! R11   R(5,12)                 1.7655         estimate D2E/DX2                !
 ! R12   R(6,7)                  1.7655         estimate D2E/DX2                !
 ! A1    A(2,1,6)              119.9999         estimate D2E/DX2                !
 ! A2    A(2,1,8)              119.9999         estimate D2E/DX2                !
 ! A3    A(6,1,8)              120.0001         estimate D2E/DX2                !
 ! A4    A(1,2,3)              120.0            estimate D2E/DX2                !
 ! A5    A(1,2,9)              120.0001         estimate D2E/DX2                !
 ! A6    A(3,2,9)              119.9999         estimate D2E/DX2                !
 ! A7    A(2,3,4)              120.0001         estimate D2E/DX2                !
 ! A8    A(2,3,10)             120.0            estimate D2E/DX2                !
 ! A9    A(4,3,10)             119.9999         estimate D2E/DX2                !
 ! A10   A(3,4,5)              119.9997         estimate D2E/DX2                !
 ! A11   A(3,4,11)             120.0003         estimate D2E/DX2                !
 ! A12   A(5,4,11)             120.0            estimate D2E/DX2                !
 ! A13   A(4,5,6)              120.0            estimate D2E/DX2                !
 ! A14   A(4,5,12)             119.9996         estimate D2E/DX2                !
 ! A15   A(6,5,12)             120.0004         estimate D2E/DX2                !
 ! A16   A(1,6,5)              120.0003         estimate D2E/DX2                !
 ! A17   A(1,6,7)              119.9999         estimate D2E/DX2                !
 ! A18   A(5,6,7)              119.9998         estimate D2E/DX2                !
 ! D1    D(6,1,2,3)              0.0            estimate D2E/DX2                !
 ! D2    D(6,1,2,9)            180.0            estimate D2E/DX2                !
 ! D3    D(8,1,2,3)            180.0            estimate D2E/DX2                !
 ! D4    D(8,1,2,9)              0.0            estimate D2E/DX2                !
 ! D5    D(2,1,6,5)              0.0            estimate D2E/DX2                !
 ! D6    D(2,1,6,7)            180.0            estimate D2E/DX2                !
 ! D7    D(8,1,6,5)            180.0            estimate D2E/DX2                !
 ! D8    D(8,1,6,7)              0.0            estimate D2E/DX2                !
 ! D9    D(1,2,3,4)              0.0            estimate D2E/DX2                !
 ! D10   D(1,2,3,10)           180.0            estimate D2E/DX2                !
 ! D11   D(9,2,3,4)            180.0            estimate D2E/DX2                !
 ! D12   D(9,2,3,10)             0.0            estimate D2E/DX2                !
 ! D13   D(2,3,4,5)              0.0            estimate D2E/DX2                !
 ! D14   D(2,3,4,11)           180.0            estimate D2E/DX2                !
 ! D15   D(10,3,4,5)           180.0            estimate D2E/DX2                !
 ! D16   D(10,3,4,11)            0.0            estimate D2E/DX2                !
 ! D17   D(3,4,5,6)              0.0            estimate D2E/DX2                !
 ! D18   D(3,4,5,12)           180.0            estimate D2E/DX2                !
 ! D19   D(11,4,5,6)           180.0            estimate D2E/DX2                !
 ! D20   D(11,4,5,12)            0.0            estimate D2E/DX2                !
 ! D21   D(4,5,6,1)              0.0            estimate D2E/DX2                !
 ! D22   D(4,5,6,7)            180.0            estimate D2E/DX2                !
 ! D23   D(12,5,6,1)           180.0            estimate D2E/DX2                !
 ! D24   D(12,5,6,7)             0.0            estimate D2E/DX2                !
 --------------------------------------------------------------------------------
 Trust Radius=3.00D-01 FncErr=1.00D-07 GrdErr=1.00D-07 EigMax=2.50D+02 EigMin=1.00D-04
 Number of steps in this run=     64 maximum allowed number of steps=    100.
 GradGradGradGradGradGradGradGradGradGradGradGradGradGradGradGradGradGrad

                          Input orientation:                          
 ---------------------------------------------------------------------
 Center     Atomic      Atomic             Coordinates (Angstroms)
 Number     Number       Type             X           Y           Z
 ---------------------------------------------------------------------
      1          6           0       -3.209280    0.199430    0.000000
      2          6           0       -2.011500    0.935550    0.000000
      3          6           0       -0.775110    0.266300    0.000000
      4          6           0       -0.736500   -1.139070    0.000000
      5          6           0       -1.934290   -1.875190    0.000000
      6          6           0       -3.170670   -1.205940    0.000000
      7         17           0       -4.674830   -2.130350    0.000000
      8         17           0       -4.761930    1.039870    0.000000
      9         17           0       -2.059980    2.700400    0.000000
     10          1           0        0.729050    1.190710    0.000000
     11          1           0        0.816140   -1.979510    0.000000
     12          1           0       -1.885800   -3.640030    0.000000
 ---------------------------------------------------------------------
                    Distance matrix (angstroms):
                    1          2          3          4          5
     1  C    0.000000
     2  C    1.405898   0.000000
     3  C    2.435088   1.405900   0.000000
     4  C    2.811801   2.435092   1.405900   0.000000
     5  C    2.435087   2.811800   2.435093   1.405907   0.000000
     6  C    1.405900   2.435088   2.811796   2.435088   1.405892
     7  Cl   2.752401   4.061166   4.577308   4.061167   2.752393
     8  Cl   1.765520   2.752408   4.061175   4.577321   4.061173
     9  Cl   2.752406   1.765516   2.752405   4.061173   4.577316
    10  H    4.061167   2.752403   1.765512   2.752401   4.061173
    11  H    4.577312   4.061173   2.752406   1.765511   2.752408
    12  H    4.061164   4.577306   4.061163   2.752397   1.765506
                    6          7          8          9         10
     6  C    0.000000
     7  Cl   1.765512   0.000000
     8  Cl   2.752412   3.171416   0.000000
     9  Cl   4.061173   5.493049   3.171418   0.000000
    10  H    4.577308   6.342819   5.493051   3.171412   0.000000
    11  H    4.061165   5.493041   6.342832   5.493052   3.171416
    12  H    2.752396   3.171407   5.493049   6.342822   5.493040
                   11         12
    11  H    0.000000
    12  H    3.171404   0.000000
 Stoichiometry    C6H3Cl3
 Framework group  CS[SG(C6H3Cl3)]
 Deg. of freedom    21
 Full point group                 CS      NOp   2
 Largest Abelian subgroup         CS      NOp   2
 Largest concise Abelian subgroup C1      NOp   1
                         Standard orientation:                         
 ---------------------------------------------------------------------
 Center     Atomic      Atomic             Coordinates (Angstroms)
 Number     Number       Type             X           Y           Z
 ---------------------------------------------------------------------
      1          6           0       -0.000001    0.278285    0.000000
      2          6           0        1.217543   -0.424663    0.000000
      3          6           0        1.217543   -1.830563    0.000000
      4          6           0       -0.000001   -2.533516    0.000000
      5          6           0       -1.217550   -1.830559    0.000000
      6          6           0       -1.217545   -0.424667    0.000000
      7         17           0       -2.746523    0.458089    0.000000
      8         17           0       -0.000000    2.043805    0.000000
      9         17           0        2.746526    0.458092    0.000000
     10          1           0        2.746521   -2.713319    0.000000
     11          1           0       -0.000006   -4.299027    0.000000
     12          1           0       -2.746519   -2.713318    0.000000
 ---------------------------------------------------------------------
 Rotational constants (GHZ):           1.4194219           0.8231885           0.5210231
 Standard basis: VSTO-6G (5D, 7F)
 There are    30 symmetry adapted cartesian basis functions of A'  symmetry.
 There are     9 symmetry adapted cartesian basis functions of A"  symmetry.
 There are    30 symmetry adapted basis functions of A'  symmetry.
 There are     9 symmetry adapted basis functions of A"  symmetry.
    39 basis functions,   234 primitive gaussians,    39 cartesian basis functions
    24 alpha electrons       24 beta electrons
       nuclear repulsion energy       249.1145351142 Hartrees.
 Integral buffers will be    131072 words long.
 Regular integral format.
 Two-electron integral symmetry is turned off.
 Do NDO integrals.
 One-electron integrals computed using PRISM.
 NBasis=    39 RedAO= T EigKep=  1.00D+00  NBF=    30     9
 NBsUse=    39 1.00D-06 EigRej= -1.00D+00 NBFU=    30     9
 Simple Huckel Guess.
 Initial guess orbital symmetries:
       Occupied  (A') (A') (A') (A') (A') (A') (A') (A') (A') (A")
                 (A') (A') (A') (A') (A") (A") (A') (A') (A") (A')
                 (A') (A') (A") (A")
       Virtual   (A') (A") (A") (A') (A') (A") (A') (A') (A') (A')
                 (A') (A') (A') (A') (A')
 The electronic state of the initial guess is 1-A'.
 Keep J ints in memory in canonical form, NReq=863709.
 Overlap will be assumed to be unity.
 Requested convergence on RMS density matrix=1.00D-08 within  32 cycles.
 Requested convergence on MAX density matrix=1.00D-06.
 Requested convergence on             energy=1.00D-06.
 No special actions if energy rises.
 Fock symm off for IB=2 I1=    1 I=   31 J=    8 Cut=1.00D-07 Err=3.75D-03
 Fock matrix is not symmetric: symmetry in diagonalization turned off.
 SCF Done:  E(RAM1) =  0.379825654527     A.U. after   14 cycles
            NFock= 13  Conv=0.56D-08     -V/T= 1.0034
 QCSCF skips out because SCF is already converged.

 **********************************************************************

            Population analysis using the SCF Density.

 **********************************************************************

 Orbital symmetries:
       Occupied  (A') (A') (A') (A') (A') (A') (A') (A') (A') (A')
                 (A') (A") (A') (A") (A') (A") (A') (A') (A") (A')
                 (A') (A') (A") (A")
       Virtual   (A') (A") (A") (A') (A') (A') (A') (A') (A") (A')
                 (A') (A') (A') (A') (A')
 The electronic state is 1-A'.
 Alpha  occ. eigenvalues --   -1.43305  -1.37434  -1.36435  -1.34923  -1.11503
 Alpha  occ. eigenvalues --   -1.11343  -0.83396  -0.83061  -0.64666  -0.61178
 Alpha  occ. eigenvalues --   -0.56959  -0.54820  -0.53901  -0.48022  -0.47155
 Alpha  occ. eigenvalues --   -0.45778  -0.44854  -0.44580  -0.43538  -0.42885
 Alpha  occ. eigenvalues --   -0.39699  -0.39385  -0.35217  -0.35193
 Alpha virt. eigenvalues --   -0.01230  -0.00190   0.00038   0.00412   0.00989
 Alpha virt. eigenvalues --    0.02655   0.04803   0.05025   0.08859   0.14635
 Alpha virt. eigenvalues --    0.14746   0.16455   0.17208   0.18292   0.19652
          Condensed to atoms (all electrons):
               1          2          3          4          5          6
     1  C    4.040006   0.000000   0.000000   0.000000   0.000000   0.000000
     2  C    0.000000   4.046660   0.000000   0.000000   0.000000   0.000000
     3  C    0.000000   0.000000   4.133976   0.000000   0.000000   0.000000
     4  C    0.000000   0.000000   0.000000   4.138667   0.000000   0.000000
     5  C    0.000000   0.000000   0.000000   0.000000   4.133975   0.000000
     6  C    0.000000   0.000000   0.000000   0.000000   0.000000   4.046661
     7  Cl   0.000000   0.000000   0.000000   0.000000   0.000000   0.000000
     8  Cl   0.000000   0.000000   0.000000   0.000000   0.000000   0.000000
     9  Cl   0.000000   0.000000   0.000000   0.000000   0.000000   0.000000
    10  H    0.000000   0.000000   0.000000   0.000000   0.000000   0.000000
    11  H    0.000000   0.000000   0.000000   0.000000   0.000000   0.000000
    12  H    0.000000   0.000000   0.000000   0.000000   0.000000   0.000000
               7          8          9         10         11         12
     1  C    0.000000   0.000000   0.000000   0.000000   0.000000   0.000000
     2  C    0.000000   0.000000   0.000000   0.000000   0.000000   0.000000
     3  C    0.000000   0.000000   0.000000   0.000000   0.000000   0.000000
     4  C    0.000000   0.000000   0.000000   0.000000   0.000000   0.000000
     5  C    0.000000   0.000000   0.000000   0.000000   0.000000   0.000000
     6  C    0.000000   0.000000   0.000000   0.000000   0.000000   0.000000
     7  Cl   7.020115   0.000000   0.000000   0.000000   0.000000   0.000000
     8  Cl   0.000000   7.002293   0.000000   0.000000   0.000000   0.000000
     9  Cl   0.000000   0.000000   7.020116   0.000000   0.000000   0.000000
    10  H    0.000000   0.000000   0.000000   0.797154   0.000000   0.000000
    11  H    0.000000   0.000000   0.000000   0.000000   0.823224   0.000000
    12  H    0.000000   0.000000   0.000000   0.000000   0.000000   0.797154
 Mulliken charges:
               1
     1  C   -0.040006
     2  C   -0.046660
     3  C   -0.133976
     4  C   -0.138667
     5  C   -0.133975
     6  C   -0.046661
     7  Cl  -0.020115
     8  Cl  -0.002293
     9  Cl  -0.020116
    10  H    0.202846
    11  H    0.176776
    12  H    0.202846
 Sum of Mulliken charges =  -0.00000
 Mulliken charges with hydrogens summed into heavy atoms:
               1
     1  C   -0.040006
     2  C   -0.046660
     3  C    0.068870
     4  C    0.038109
     5  C    0.068871
     6  C   -0.046661
     7  Cl  -0.020115
     8  Cl  -0.002293
     9  Cl  -0.020116
 Charge=             -0.0000 electrons
 Dipole moment (field-independent basis, Debye):
    X=             -0.0000    Y=             -4.2802    Z=              0.0000  Tot=              4.2802
 N-N= 2.491145351142D+02 E-N=-3.507940068910D+02  KE=-1.126908101298D+02
 Symmetry A'   KE=-8.664977529670D+01
 Symmetry A"   KE=-2.604103483309D+01
 Calling FoFJK, ICntrl=      2127 FMM=F ISym2X=1 I1Cent= 0 IOpClX= 0 NMat=1 NMatS=1 NMatT=0.
 ***** Axes restored to original set *****
 -------------------------------------------------------------------
 Center     Atomic                   Forces (Hartrees/Bohr)
 Number     Number              X              Y              Z
 -------------------------------------------------------------------
      1        6          -0.022542956    0.012203998    0.000000000
      2        6           0.017700912    0.019358138    0.000000000
      3        6           0.070655141    0.021456030   -0.000000000
      4        6           0.059000633   -0.031939398    0.000000000
      5        6           0.020677798   -0.070890223    0.000000000
      6        6          -0.006533981   -0.025402951   -0.000000000
      7       17           0.033268856    0.017496224   -0.000000000
      8       17           0.032975853   -0.017849885   -0.000000000
      9       17           0.003542302   -0.037424506   -0.000000000
     10        1          -0.100629567   -0.060488440   -0.000000000
     11        1          -0.103736049    0.056152109   -0.000000000
     12        1          -0.004378941    0.117328904   -0.000000000
 -------------------------------------------------------------------
 Cartesian Forces:  Max     0.117328904 RMS     0.041884970

 GradGradGradGradGradGradGradGradGradGradGradGradGradGradGradGradGradGrad
 Berny optimization.
 FormGI is forming the generalized inverse of G from B-inverse, IUseBI=4.
 Internal  Forces:  Max     0.117958582 RMS     0.031528815
 Search for a local minimum.
 Step number   1 out of a maximum of   64
 All quantities printed in internal units (Hartrees-Bohrs-Radians)
 Mixed Optimization -- RFO/linear search
 Second derivative matrix not updated -- first step.
 ITU=  0
     Eigenvalues ---    0.02011   0.02011   0.02011   0.02011   0.02011
     Eigenvalues ---    0.02011   0.02011   0.02011   0.02011   0.06524
     Eigenvalues ---    0.06524   0.06524   0.16000   0.16000   0.16000
     Eigenvalues ---    0.22085   0.23477   0.24913   0.25000   0.25000
     Eigenvalues ---    0.25000   0.29033   0.29033   0.29033   0.40951
     Eigenvalues ---    0.40971   0.44656   0.44657   0.44657   0.44657
 RFO step:  Lambda=-1.86494658D-01 EMin= 2.01065826D-02
 Linear search not attempted -- first point.
 Maximum step size (   0.300) exceeded in Quadratic search.
    -- Step size scaled by   0.360
 Iteration  1 RMS(Cart)=  0.04627843 RMS(Int)=  0.00002846
 Iteration  2 RMS(Cart)=  0.00005027 RMS(Int)=  0.00000837
 Iteration  3 RMS(Cart)=  0.00000000 RMS(Int)=  0.00000837
 ClnCor:  largest displacement from symmetrization is 2.27D-09 for atom    10.
 Variable       Old X    -DE/DX   Delta X   Delta X   Delta X     New X
                                 (Linear)    (Quad)   (Total)
    R1        2.65676  -0.01254   0.00000  -0.00647  -0.00648   2.65028
    R2        2.65677  -0.01254   0.00000  -0.00647  -0.00648   2.65028
    R3        3.33635  -0.03750   0.00000  -0.02832  -0.02832   3.30803
    R4        2.65677  -0.03321   0.00000  -0.01889  -0.01889   2.63787
    R5        3.33634  -0.03751   0.00000  -0.02833  -0.02833   3.30801
    R6        2.65677  -0.05023   0.00000  -0.02924  -0.02922   2.62754
    R7        3.33633  -0.11740   0.00000  -0.16796  -0.16796   3.16838
    R8        2.65678  -0.05023   0.00000  -0.02924  -0.02923   2.62755
    R9        3.33633  -0.11796   0.00000  -0.16875  -0.16875   3.16759
   R10        2.65675  -0.03321   0.00000  -0.01889  -0.01889   2.63786
   R11        3.33632  -0.11740   0.00000  -0.16796  -0.16796   3.16837
   R12        3.33633  -0.03750   0.00000  -0.02833  -0.02833   3.30801
    A1        2.09439  -0.00823   0.00000  -0.00495  -0.00498   2.08942
    A2        2.09439   0.00412   0.00000   0.00248   0.00249   2.09688
    A3        2.09440   0.00411   0.00000   0.00247   0.00249   2.09688
    A4        2.09439  -0.00474   0.00000  -0.00306  -0.00307   2.09132
    A5        2.09440   0.00656   0.00000   0.00499   0.00499   2.09939
    A6        2.09439  -0.00182   0.00000  -0.00193  -0.00192   2.09247
    A7        2.09440   0.00612   0.00000   0.00423   0.00424   2.09864
    A8        2.09440  -0.00498   0.00000  -0.00412  -0.00412   2.09027
    A9        2.09439  -0.00113   0.00000  -0.00011  -0.00012   2.09428
   A10        2.09439   0.00548   0.00000   0.00261   0.00264   2.09703
   A11        2.09440  -0.00274   0.00000  -0.00130  -0.00132   2.09308
   A12        2.09440  -0.00274   0.00000  -0.00130  -0.00132   2.09308
   A13        2.09439   0.00612   0.00000   0.00423   0.00424   2.09863
   A14        2.09439  -0.00113   0.00000  -0.00011  -0.00012   2.09427
   A15        2.09440  -0.00498   0.00000  -0.00412  -0.00412   2.09028
   A16        2.09440  -0.00474   0.00000  -0.00306  -0.00307   2.09133
   A17        2.09439   0.00656   0.00000   0.00499   0.00499   2.09939
   A18        2.09439  -0.00182   0.00000  -0.00193  -0.00192   2.09247
    D1        0.00000   0.00000   0.00000   0.00000   0.00000   0.00000
    D2        3.14159  -0.00000   0.00000  -0.00000   0.00000   3.14159
    D3        3.14159   0.00000   0.00000   0.00000   0.00000   3.14159
    D4        0.00000  -0.00000   0.00000  -0.00000   0.00000   0.00000
    D5        0.00000  -0.00000   0.00000   0.00000   0.00000   0.00000
    D6        3.14159   0.00000   0.00000   0.00000   0.00000   3.14159
    D7        3.14159  -0.00000   0.00000  -0.00000   0.00000   3.14159
    D8        0.00000  -0.00000   0.00000  -0.00000   0.00000   0.00000
    D9        0.00000  -0.00000   0.00000  -0.00000   0.00000   0.00000
   D10        3.14159  -0.00000   0.00000  -0.00000   0.00000   3.14159
   D11        3.14159   0.00000   0.00000   0.00000   0.00000   3.14159
   D12        0.00000  -0.00000   0.00000  -0.00000   0.00000   0.00000
   D13        0.00000   0.00000   0.00000   0.00000   0.00000   0.00000
   D14        3.14159  -0.00000   0.00000  -0.00000   0.00000   3.14159
   D15        3.14159   0.00000   0.00000   0.00000   0.00000   3.14159
   D16        0.00000   0.00000   0.00000   0.00000   0.00000   0.00000
   D17        0.00000   0.00000   0.00000   0.00000   0.00000   0.00000
   D18        3.14159  -0.00000   0.00000  -0.00000   0.00000   3.14159
   D19        3.14159   0.00000   0.00000   0.00000   0.00000   3.14159
   D20        0.00000  -0.00000   0.00000   0.00000   0.00000   0.00000
   D21        0.00000  -0.00000   0.00000  -0.00000   0.00000   0.00000
   D22        3.14159  -0.00000   0.00000  -0.00000   0.00000   3.14159
   D23        3.14159   0.00000   0.00000   0.00000   0.00000   3.14159
   D24        0.00000   0.00000   0.00000   0.00000   0.00000   0.00000
         Item               Value     Threshold  Converged?
 Maximum Force            0.117959     0.000450     NO 
 RMS     Force            0.031529     0.000300     NO 
 Maximum Displacement     0.182577     0.001800     NO 
 RMS     Displacement     0.046277     0.001200     NO 
 Predicted change in Energy=-6.346012D-02
 GradGradGradGradGradGradGradGradGradGradGradGradGradGradGradGradGradGrad

                          Input orientation:                          
 ---------------------------------------------------------------------
 Center     Atomic      Atomic             Coordinates (Angstroms)
 Number     Number       Type             X           Y           Z
 ---------------------------------------------------------------------
      1          6           0       -3.195575    0.192012    0.000000
      2          6           0       -1.998894    0.923360    0.000000
      3          6           0       -0.775009    0.252057    0.000000
      4          6           0       -0.738655   -1.137904    0.000000
      5          6           0       -1.922308   -1.867487    0.000000
      6          6           0       -3.153572   -1.209829    0.000000
      7         17           0       -4.638063   -2.137523    0.000000
      8         17           0       -4.735046    1.025318    0.000000
      9         17           0       -2.033868    2.673536    0.000000
     10          1           0        0.654689    1.127879    0.000000
     11          1           0        0.735454   -1.935835    0.000000
     12          1           0       -1.873852   -3.543415    0.000000
 ---------------------------------------------------------------------
                    Distance matrix (angstroms):
                    1          2          3          4          5
     1  C    0.000000
     2  C    1.402468   0.000000
     3  C    2.421311   1.395902   0.000000
     4  C    2.793766   2.415991   1.390436   0.000000
     5  C    2.421310   2.791898   2.410137   1.390441   0.000000
     6  C    1.402470   2.425650   2.791894   2.415988   1.395896
     7  Cl   2.739983   4.041561   4.542387   4.025496   2.729147
     8  Cl   1.750534   2.738051   4.034827   4.544300   4.034825
     9  Cl   2.739986   1.750525   2.729155   4.025500   4.542393
    10  H    3.962371   2.661453   1.676634   2.659921   3.951346
    11  H    4.469980   3.956218   2.658640   1.676214   2.658641
    12  H    3.962368   4.468525   3.951337   2.659917   1.676628
                    6          7          8          9         10
     6  C    0.000000
     7  Cl   1.750522   0.000000
     8  Cl   2.738054   3.164328   0.000000
     9  Cl   4.041567   5.470660   3.164330   0.000000
    10  H    4.468527   6.219009   5.390710   3.101193   0.000000
    11  H    3.956212   5.377301   6.220514   5.377309   3.064778
    12  H    2.661448   3.101192   5.390709   6.219010   5.311733
                   11         12
    11  H    0.000000
    12  H    3.064767   0.000000
 Stoichiometry    C6H3Cl3
 Framework group  CS[SG(C6H3Cl3)]
 Deg. of freedom    21
 Full point group                 CS      NOp   2
 Largest Abelian subgroup         CS      NOp   2
 Largest concise Abelian subgroup C1      NOp   1
                         Standard orientation:                         
 ---------------------------------------------------------------------
 Center     Atomic      Atomic             Coordinates (Angstroms)
 Number     Number       Type             X           Y           Z
 ---------------------------------------------------------------------
      1          6           0        0.000000    0.284217    0.000000
      2          6           0        1.212823   -0.420038    0.000000
      3          6           0        1.205063   -1.815919    0.000000
      4          6           0       -0.000004   -2.509550    0.000000
      5          6           0       -1.205074   -1.815912    0.000000
      6          6           0       -1.212826   -0.420038    0.000000
      7         17           0       -2.735328    0.443859    0.000000
      8         17           0        0.000003    2.034751    0.000000
      9         17           0        2.735332    0.443852    0.000000
     10          1           0        2.655864   -2.656322    0.000000
     11          1           0       -0.000011   -4.185764    0.000000
     12          1           0       -2.655869   -2.656314    0.000000
 ---------------------------------------------------------------------
 Rotational constants (GHZ):           1.4459185           0.8316957           0.5279929
 Standard basis: VSTO-6G (5D, 7F)
 There are    30 symmetry adapted cartesian basis functions of A'  symmetry.
 There are     9 symmetry adapted cartesian basis functions of A"  symmetry.
 There are    30 symmetry adapted basis functions of A'  symmetry.
 There are     9 symmetry adapted basis functions of A"  symmetry.
    39 basis functions,   234 primitive gaussians,    39 cartesian basis functions
    24 alpha electrons       24 beta electrons
       nuclear repulsion energy       250.4930729469 Hartrees.
 Integral buffers will be    131072 words long.
 Regular integral format.
 Two-electron integral symmetry is turned off.
 Do NDO integrals.
 One-electron integrals computed using PRISM.
 NBasis=    39 RedAO= T EigKep=  1.00D+00  NBF=    30     9
 NBsUse=    39 1.00D-06 EigRej= -1.00D+00 NBFU=    30     9
 Initial guess from the checkpoint file:  "geometry_chks/123ClBz.chk"
 B after Tr=     0.000000   -0.000000    0.000000
         Rot=    1.000000    0.000000    0.000000    0.000001 Ang=   0.00 deg.
 Initial guess orbital symmetries:
       Occupied  (A') (A') (A') (A') (A') (A') (A') (A') (A') (A')
                 (A') (A") (A') (A") (A') (A") (A') (A') (A") (A')
                 (A') (A') (A") (A")
       Virtual   (A') (A") (A") (A') (A') (A') (A') (A') (A") (A')
                 (A') (A') (A') (A') (A')
 Keep J ints in memory in canonical form, NReq=863709.
 Overlap will be assumed to be unity.
 Requested convergence on RMS density matrix=1.00D-08 within  32 cycles.
 Requested convergence on MAX density matrix=1.00D-06.
 Requested convergence on             energy=1.00D-06.
 No special actions if energy rises.
 Fock symm off for IB=2 I1=    1 I=   31 J=    7 Cut=1.00D-07 Err=1.29D-03
 Fock matrix is not symmetric: symmetry in diagonalization turned off.
 SCF Done:  E(RAM1) =  0.312857344607     A.U. after   12 cycles
            NFock= 11  Conv=0.31D-08     -V/T= 1.0028
 QCSCF skips out because SCF is already converged.
 Calling FoFJK, ICntrl=      2127 FMM=F ISym2X=1 I1Cent= 0 IOpClX= 0 NMat=1 NMatS=1 NMatT=0.
 ***** Axes restored to original set *****
 -------------------------------------------------------------------
 Center     Atomic                   Forces (Hartrees/Bohr)
 Number     Number              X              Y              Z
 -------------------------------------------------------------------
      1        6          -0.024006110    0.012995151    0.000000000
      2        6           0.011894939    0.023382710    0.000000000
      3        6           0.087478416    0.037806676    0.000000000
      4        6           0.081369456   -0.044047548    0.000000000
      5        6           0.016185519   -0.093915552    0.000000000
      6        6          -0.013077379   -0.022742385   -0.000000000
      7       17           0.026500573    0.014212245   -0.000000000
      8       17           0.026795603   -0.014504541   -0.000000000
      9       17           0.002590937   -0.029961333   -0.000000000
     10        1          -0.103982571   -0.062435516   -0.000000000
     11        1          -0.107167191    0.058009337   -0.000000000
     12        1          -0.004582192    0.121200755   -0.000000000
 -------------------------------------------------------------------
 Cartesian Forces:  Max     0.121200755 RMS     0.045902936

 GradGradGradGradGradGradGradGradGradGradGradGradGradGradGradGradGradGrad
 Berny optimization.
 Using GEDIIS/GDIIS optimizer.
 FormGI is forming the generalized inverse of G from B-inverse, IUseBI=4.
 Internal  Forces:  Max     0.121860125 RMS     0.030304023
 Search for a local minimum.
 Step number   2 out of a maximum of   64
 All quantities printed in internal units (Hartrees-Bohrs-Radians)
 Mixed Optimization -- RFO/linear search
 Update second derivatives using D2CorX and points    1    2
 DE= -6.70D-02 DEPred=-6.35D-02 R= 1.06D+00
 TightC=F SS=  1.41D+00  RLast= 3.00D-01 DXNew= 5.0454D-01 9.0000D-01
 Trust test= 1.06D+00 RLast= 3.00D-01 DXMaxT set to 5.05D-01
 ITU=  1  0
 Use linear search instead of GDIIS.
 Linear search step of   0.600 exceeds DXMaxT=   0.505 but not scaled.
 Quartic linear search produced a step of  2.00000.
 Iteration  1 RMS(Cart)=  0.06369619 RMS(Int)=  0.03216177
 Iteration  2 RMS(Cart)=  0.03028967 RMS(Int)=  0.00005120
 Iteration  3 RMS(Cart)=  0.00000283 RMS(Int)=  0.00005117
 Iteration  4 RMS(Cart)=  0.00000000 RMS(Int)=  0.00005117
 ClnCor:  largest displacement from symmetrization is 2.51D-15 for atom     7.
 Variable       Old X    -DE/DX   Delta X   Delta X   Delta X     New X
                                 (Linear)    (Quad)   (Total)
    R1        2.65028  -0.00323  -0.01296   0.00000  -0.01304   2.63724
    R2        2.65028  -0.00323  -0.01296   0.00000  -0.01304   2.63724
    R3        3.30803  -0.03047  -0.05664   0.00000  -0.05664   3.25139
    R4        2.63787  -0.01743  -0.03779   0.00000  -0.03779   2.60009
    R5        3.30801  -0.03001  -0.05666   0.00000  -0.05666   3.25136
    R6        2.62754  -0.02949  -0.05845   0.00000  -0.05837   2.56918
    R7        3.16838  -0.12128  -0.33591   0.00000  -0.33591   2.83247
    R8        2.62755  -0.02949  -0.05845   0.00000  -0.05837   2.56918
    R9        3.16759  -0.12186  -0.33750   0.00000  -0.33750   2.83009
   R10        2.63786  -0.01743  -0.03778   0.00000  -0.03778   2.60008
   R11        3.16837  -0.12128  -0.33591   0.00000  -0.33591   2.83246
   R12        3.30801  -0.03001  -0.05665   0.00000  -0.05665   3.25136
    A1        2.08942  -0.00576  -0.00995   0.00000  -0.01011   2.07930
    A2        2.09688   0.00288   0.00498   0.00000   0.00506   2.10194
    A3        2.09688   0.00288   0.00498   0.00000   0.00506   2.10194
    A4        2.09132  -0.00348  -0.00614   0.00000  -0.00622   2.08511
    A5        2.09939   0.00504   0.00999   0.00000   0.01003   2.10942
    A6        2.09247  -0.00155  -0.00385   0.00000  -0.00381   2.08866
    A7        2.09864   0.00465   0.00848   0.00000   0.00856   2.10720
    A8        2.09027  -0.00403  -0.00824   0.00000  -0.00828   2.08199
    A9        2.09428  -0.00062  -0.00024   0.00000  -0.00028   2.09400
   A10        2.09703   0.00342   0.00527   0.00000   0.00543   2.10246
   A11        2.09308  -0.00171  -0.00264   0.00000  -0.00272   2.09037
   A12        2.09308  -0.00171  -0.00264   0.00000  -0.00272   2.09036
   A13        2.09863   0.00465   0.00848   0.00000   0.00856   2.10720
   A14        2.09427  -0.00062  -0.00024   0.00000  -0.00028   2.09399
   A15        2.09028  -0.00403  -0.00824   0.00000  -0.00828   2.08200
   A16        2.09133  -0.00349  -0.00614   0.00000  -0.00622   2.08511
   A17        2.09939   0.00504   0.00999   0.00000   0.01003   2.10942
   A18        2.09247  -0.00155  -0.00385   0.00000  -0.00381   2.08866
    D1        0.00000  -0.00000   0.00000   0.00000   0.00000   0.00000
    D2        3.14159  -0.00000   0.00000   0.00000   0.00000   3.14159
    D3        3.14159   0.00000   0.00000   0.00000   0.00000   3.14159
    D4        0.00000  -0.00000   0.00000   0.00000   0.00000   0.00000
    D5        0.00000   0.00000   0.00000   0.00000   0.00000   0.00000
    D6        3.14159   0.00000   0.00000   0.00000   0.00000   3.14159
    D7        3.14159  -0.00000   0.00000   0.00000   0.00000   3.14159
    D8        0.00000  -0.00000   0.00000   0.00000   0.00000   0.00000
    D9        0.00000  -0.00000   0.00000   0.00000   0.00000   0.00000
   D10        3.14159  -0.00000   0.00000   0.00000   0.00000   3.14159
   D11        3.14159   0.00000   0.00000   0.00000   0.00000   3.14159
   D12        0.00000  -0.00000   0.00000   0.00000   0.00000   0.00000
   D13        0.00000   0.00000   0.00000   0.00000   0.00000   0.00000
   D14        3.14159  -0.00000   0.00000   0.00000   0.00000   3.14159
   D15        3.14159   0.00000   0.00000   0.00000   0.00000   3.14159
   D16        0.00000  -0.00000   0.00000   0.00000   0.00000   0.00000
   D17        0.00000   0.00000   0.00000   0.00000   0.00000   0.00000
   D18        3.14159  -0.00000   0.00000   0.00000   0.00000   3.14159
   D19        3.14159   0.00000   0.00000   0.00000   0.00000   3.14159
   D20        0.00000  -0.00000   0.00000   0.00000   0.00000   0.00000
   D21        0.00000  -0.00000   0.00000   0.00000   0.00000   0.00000
   D22        3.14159  -0.00000   0.00000   0.00000   0.00000   3.14159
   D23        3.14159   0.00000   0.00000   0.00000   0.00000   3.14159
   D24        0.00000   0.00000   0.00000   0.00000   0.00000   0.00000
         Item               Value     Threshold  Converged?
 Maximum Force            0.121860     0.000450     NO 
 RMS     Force            0.030304     0.000300     NO 
 Maximum Displacement     0.365046     0.001800     NO 
 RMS     Displacement     0.092541     0.001200     NO 
 Predicted change in Energy=-1.316703D-01
 GradGradGradGradGradGradGradGradGradGradGradGradGradGradGradGradGradGrad

                          Input orientation:                          
 ---------------------------------------------------------------------
 Center     Atomic      Atomic             Coordinates (Angstroms)
 Number     Number       Type             X           Y           Z
 ---------------------------------------------------------------------
      1          6           0       -3.168014    0.177093    0.000000
      2          6           0       -1.973557    0.898810    0.000000
      3          6           0       -0.774741    0.223561    0.000000
      4          6           0       -0.742885   -1.135614    0.000000
      5          6           0       -1.898301   -1.852131    0.000000
      6          6           0       -3.119165   -1.217619    0.000000
      7         17           0       -4.564314   -2.151331    0.000000
      8         17           0       -4.681125    0.996132    0.000000
      9         17           0       -1.981980    2.619334    0.000000
     10          1           0        0.505718    1.002702    0.000000
     11          1           0        0.574164   -1.848528    0.000000
     12          1           0       -1.850500   -3.350241    0.000000
 ---------------------------------------------------------------------
                    Distance matrix (angstroms):
                    1          2          3          4          5
     1  C    0.000000
     2  C    1.395565   0.000000
     3  C    2.393724   1.375907   0.000000
     4  C    2.757617   2.377695   1.359549   0.000000
     5  C    2.393725   2.751970   2.360273   1.359553   0.000000
     6  C    1.395568   2.406593   2.751968   2.377695   1.375905
     7  Cl   2.714998   4.001922   4.472245   3.954112   2.682749
     8  Cl   1.720562   2.709317   3.982048   4.478178   3.982049
     9  Cl   2.714998   1.720545   2.682751   3.954111   4.472248
    10  H    3.765360   2.481451   1.498878   2.476168   3.732208
    11  H    4.255236   3.746831   2.472468   1.497619   2.472468
    12  H    3.765359   4.250832   3.732200   2.476162   1.498872
                    6          7          8          9         10
     6  C    0.000000
     7  Cl   1.720544   0.000000
     8  Cl   2.709320   3.149630   0.000000
     9  Cl   4.001924   5.424729   3.149630   0.000000
    10  H    4.250835   5.971025   5.186847   2.966840   0.000000
    11  H    3.746829   5.147392   5.975798   5.147393   2.852051
    12  H    2.481448   2.966846   5.186849   5.971022   4.949734
                   11         12
    11  H    0.000000
    12  H    2.852040   0.000000
 Stoichiometry    C6H3Cl3
 Framework group  CS[SG(C6H3Cl3)]
 Deg. of freedom    21
 Full point group                 CS      NOp   2
 Largest Abelian subgroup         CS      NOp   2
 Largest concise Abelian subgroup C1      NOp   1
                         Standard orientation:                         
 ---------------------------------------------------------------------
 Center     Atomic      Atomic             Coordinates (Angstroms)
 Number     Number       Type             X           Y           Z
 ---------------------------------------------------------------------
      1          6           0        0.295956   -0.000000    0.000000
      2          6           0       -0.410925   -1.203296   -0.000000
      3          6           0       -1.786637   -1.180135   -0.000000
      4          6           0       -2.461661   -0.000001   -0.000000
      5          6           0       -1.786637    1.180138    0.000000
      6          6           0       -0.410928    1.203297    0.000000
      7         17           0        0.415503    2.712364    0.000000
      8         17           0        2.016518   -0.000000    0.000000
      9         17           0        0.415503   -2.712365   -0.000000
     10          1           0       -2.541816   -2.474871   -0.000000
     11          1           0       -3.959280    0.000001   -0.000000
     12          1           0       -2.541821    2.474864    0.000000
 ---------------------------------------------------------------------
 Rotational constants (GHZ):           1.5007235           0.8493087           0.5423660
 Standard basis: VSTO-6G (5D, 7F)
 There are    30 symmetry adapted cartesian basis functions of A'  symmetry.
 There are     9 symmetry adapted cartesian basis functions of A"  symmetry.
 There are    30 symmetry adapted basis functions of A'  symmetry.
 There are     9 symmetry adapted basis functions of A"  symmetry.
    39 basis functions,   234 primitive gaussians,    39 cartesian basis functions
    24 alpha electrons       24 beta electrons
       nuclear repulsion energy       253.3753682716 Hartrees.
 Integral buffers will be    131072 words long.
 Regular integral format.
 Two-electron integral symmetry is turned off.
 Do NDO integrals.
 One-electron integrals computed using PRISM.
 NBasis=    39 RedAO= T EigKep=  1.00D+00  NBF=    30     9
 NBsUse=    39 1.00D-06 EigRej= -1.00D+00 NBFU=    30     9
 Initial guess from the checkpoint file:  "geometry_chks/123ClBz.chk"
 B after Tr=     0.000000    0.000000    0.000000
         Rot=    0.707107   -0.000000    0.000000    0.707106 Ang=  90.00 deg.
 Initial guess orbital symmetries:
       Occupied  (A') (A') (A') (A') (A') (A') (A') (A') (A') (A')
                 (A') (A") (A') (A') (A") (A") (A') (A') (A") (A')
                 (A') (A') (A") (A")
       Virtual   (A") (A") (A') (A') (A') (A') (A') (A') (A") (A')
                 (A') (A') (A') (A') (A')
 Keep J ints in memory in canonical form, NReq=863709.
 Overlap will be assumed to be unity.
 Requested convergence on RMS density matrix=1.00D-08 within  32 cycles.
 Requested convergence on MAX density matrix=1.00D-06.
 Requested convergence on             energy=1.00D-06.
 No special actions if energy rises.
 Fock symm off for IB=2 I1=    1 I=   31 J=    8 Cut=1.00D-07 Err=3.37D-03
 Fock matrix is not symmetric: symmetry in diagonalization turned off.
 SCF Done:  E(RAM1) =  0.186020344816     A.U. after   12 cycles
            NFock= 11  Conv=0.48D-08     -V/T= 1.0016
 QCSCF skips out because SCF is already converged.
 Calling FoFJK, ICntrl=      2127 FMM=F ISym2X=1 I1Cent= 0 IOpClX= 0 NMat=1 NMatS=1 NMatT=0.
 ***** Axes restored to original set *****
 -------------------------------------------------------------------
 Center     Atomic                   Forces (Hartrees/Bohr)
 Number     Number              X              Y              Z
 -------------------------------------------------------------------
      1        6          -0.026688222    0.014445122    0.000000000
      2        6          -0.002571977    0.031896073   -0.000000000
      3        6           0.115290109    0.070623490    0.000000000
      4        6           0.122346476   -0.066227843   -0.000000000
      5        6           0.003912893   -0.135143829    0.000000000
      6        6          -0.028113566   -0.015285015    0.000000000
      7       17           0.011402680    0.006523544   -0.000000000
      8       17           0.012961154   -0.007016000    0.000000000
      9       17           0.000772859   -0.013114576    0.000000000
     10        1          -0.100905282   -0.060510570   -0.000000000
     11        1          -0.103895702    0.056238422   -0.000000000
     12        1          -0.004511423    0.117571184   -0.000000000
 -------------------------------------------------------------------
 Cartesian Forces:  Max     0.135143829 RMS     0.052990707

 GradGradGradGradGradGradGradGradGradGradGradGradGradGradGradGradGradGrad
 Berny optimization.
 Using GEDIIS/GDIIS optimizer.
 FormGI is forming the generalized inverse of G from B-inverse, IUseBI=4.
 Internal  Forces:  Max     0.118140074 RMS     0.028616053
 Search for a local minimum.
 Step number   3 out of a maximum of   64
 All quantities printed in internal units (Hartrees-Bohrs-Radians)
 Mixed Optimization -- RFO/linear search
 Update second derivatives using D2CorX and points    2    3
 ITU=  0  1  0
 Use linear search instead of GDIIS.
 Linear search step of   1.125 exceeds DXMaxT=   0.505 scaled by   0.897
 Quartic linear search produced a step of  1.68179.
 Iteration  1 RMS(Cart)=  0.07977440 RMS(Int)=  0.08623211
 Iteration  2 RMS(Cart)=  0.04437925 RMS(Int)=  0.03909198
 Iteration  3 RMS(Cart)=  0.03680555 RMS(Int)=  0.00016004
 Iteration  4 RMS(Cart)=  0.00000038 RMS(Int)=  0.00016004
 ClnCor:  largest displacement from symmetrization is 1.23D-08 for atom     9.
 Variable       Old X    -DE/DX   Delta X   Delta X   Delta X     New X
                                 (Linear)    (Quad)   (Total)
    R1        2.63724   0.01692  -0.02194   0.00000  -0.02219   2.61504
    R2        2.63724   0.01692  -0.02194   0.00000  -0.02219   2.61505
    R3        3.25139  -0.01474  -0.09526   0.00000  -0.09526   3.15613
    R4        2.60009   0.01834  -0.06355   0.00000  -0.06354   2.53655
    R5        3.25136  -0.01312  -0.09528   0.00000  -0.09528   3.15608
    R6        2.56918   0.01942  -0.09816   0.00000  -0.09791   2.47127
    R7        2.83247  -0.11766  -0.56493   0.00000  -0.56493   2.26754
    R8        2.56918   0.01941  -0.09817   0.00000  -0.09791   2.47127
    R9        2.83009  -0.11814  -0.56760   0.00000  -0.56760   2.26249
   R10        2.60008   0.01834  -0.06353   0.00000  -0.06352   2.53656
   R11        2.83246  -0.11766  -0.56493   0.00000  -0.56493   2.26753
   R12        3.25136  -0.01312  -0.09527   0.00000  -0.09527   3.15608
    A1        2.07930   0.00076  -0.01701   0.00000  -0.01752   2.06179
    A2        2.10194  -0.00038   0.00851   0.00000   0.00876   2.11070
    A3        2.10194  -0.00038   0.00850   0.00000   0.00876   2.11070
    A4        2.08511  -0.00003  -0.01046   0.00000  -0.01070   2.07440
    A5        2.10942   0.00117   0.01686   0.00000   0.01699   2.12641
    A6        2.08866  -0.00114  -0.00641   0.00000  -0.00628   2.08238
    A7        2.10720   0.00057   0.01440   0.00000   0.01465   2.12185
    A8        2.08199  -0.00136  -0.01393   0.00000  -0.01406   2.06793
    A9        2.09400   0.00079  -0.00046   0.00000  -0.00059   2.09341
   A10        2.10246  -0.00183   0.00913   0.00000   0.00963   2.11208
   A11        2.09037   0.00091  -0.00457   0.00000  -0.00481   2.08555
   A12        2.09036   0.00091  -0.00457   0.00000  -0.00481   2.08555
   A13        2.10720   0.00057   0.01440   0.00000   0.01465   2.12185
   A14        2.09399   0.00079  -0.00046   0.00000  -0.00059   2.09340
   A15        2.08200  -0.00136  -0.01393   0.00000  -0.01406   2.06794
   A16        2.08511  -0.00003  -0.01046   0.00000  -0.01071   2.07440
   A17        2.10942   0.00117   0.01687   0.00000   0.01699   2.12640
   A18        2.08866  -0.00114  -0.00640   0.00000  -0.00628   2.08238
    D1       -0.00000  -0.00000   0.00000   0.00000   0.00000   0.00000
    D2        3.14159  -0.00000   0.00000   0.00000   0.00000   3.14159
    D3        3.14159   0.00000   0.00000   0.00000   0.00000   3.14159
    D4       -0.00000   0.00000   0.00000   0.00000   0.00000   0.00000
    D5        0.00000   0.00000   0.00000   0.00000  -0.00000   0.00000
    D6        3.14159   0.00000   0.00000   0.00000   0.00000   3.14159
    D7        3.14159  -0.00000   0.00000   0.00000   0.00000   3.14159
    D8       -0.00000   0.00000   0.00000   0.00000   0.00000   0.00000
    D9       -0.00000  -0.00000   0.00000   0.00000   0.00000   0.00000
   D10        3.14159  -0.00000   0.00000   0.00000   0.00000   3.14159
   D11        3.14159   0.00000   0.00000   0.00000   0.00000   3.14159
   D12        0.00000  -0.00000   0.00000   0.00000  -0.00000   0.00000
   D13        0.00000   0.00000   0.00000   0.00000   0.00000   0.00000
   D14        3.14159  -0.00000   0.00000   0.00000   0.00000   3.14159
   D15        3.14159   0.00000   0.00000   0.00000   0.00000   3.14159
   D16       -0.00000   0.00000   0.00000   0.00000   0.00000   0.00000
   D17       -0.00000   0.00000   0.00000   0.00000   0.00000   0.00000
   D18        3.14159  -0.00000   0.00000   0.00000   0.00000   3.14159
   D19        3.14159   0.00000   0.00000   0.00000   0.00000   3.14159
   D20        0.00000  -0.00000   0.00000   0.00000  -0.00000   0.00000
   D21       -0.00000  -0.00000   0.00000   0.00000   0.00000   0.00000
   D22        3.14159  -0.00000   0.00000   0.00000   0.00000   3.14159
   D23        3.14159   0.00000   0.00000   0.00000   0.00000   3.14159
   D24        0.00000  -0.00000   0.00000   0.00000   0.00000   0.00000
         Item               Value     Threshold  Converged?
 Maximum Force            0.118140     0.000450     NO 
 RMS     Force            0.028616     0.000300     NO 
 Maximum Displacement     0.613563     0.001800     NO 
 RMS     Displacement     0.155589     0.001200     NO 
 Predicted change in Energy=-1.747101D-01
 GradGradGradGradGradGradGradGradGradGradGradGradGradGradGradGradGradGrad

                          Input orientation:                          
 ---------------------------------------------------------------------
 Center     Atomic      Atomic             Coordinates (Angstroms)
 Number     Number       Type             X           Y           Z
 ---------------------------------------------------------------------
      1          6           0       -3.121177    0.151742   -0.000000
      2          6           0       -1.930547    0.856982   -0.000000
      3          6           0       -0.774068    0.175597   -0.000000
      4          6           0       -0.749718   -1.131916    0.000000
      5          6           0       -1.857770   -1.826469    0.000000
      6          6           0       -3.060630   -1.230758    0.000000
      7         17           0       -4.439634   -2.172921    0.000000
      8         17           0       -4.589958    0.946786   -0.000000
      9         17           0       -1.895725    2.526742   -0.000000
     10          1           0        0.254361    0.793791   -0.000000
     11          1           0        0.303187   -1.701848    0.000000
     12          1           0       -1.813021   -3.025557    0.000000
 ---------------------------------------------------------------------
                    Distance matrix (angstroms):
                    1          2          3          4          5
     1  C    0.000000
     2  C    1.383822   0.000000
     3  C    2.347230   1.342285   0.000000
     4  C    2.696589   2.313022   1.307740   0.000000
     5  C    2.347235   2.684437   2.276550   1.307740   0.000000
     6  C    1.383825   2.373972   2.684437   2.313025   1.342290
     7  Cl   2.672524   3.933933   4.353380   3.833950   2.605005
     8  Cl   1.670154   2.660927   3.893039   4.366743   3.893044
     9  Cl   2.672519   1.670123   2.604995   3.833942   4.353376
    10  H    3.436056   2.185822   1.199929   2.171755   3.365540
    11  H    3.893849   3.396642   2.164550   1.197260   2.164548
    12  H    3.436059   3.884317   3.365533   2.171748   1.199923
                    6          7          8          9         10
     6  C    0.000000
     7  Cl   1.670127   0.000000
     8  Cl   2.660929   3.123326   0.000000
     9  Cl   3.933931   5.343997   3.123324   0.000000
    10  H    3.884323   5.552925   4.846735   2.761520   0.000000
    11  H    3.396644   4.766158   5.564003   4.766150   2.496116
    12  H    2.185825   2.761537   4.846740   5.552915   4.342981
                   11         12
    11  H    0.000000
    12  H    2.496105   0.000000
 Stoichiometry    C6H3Cl3
 Framework group  CS[SG(C6H3Cl3)]
 Deg. of freedom    21
 Full point group                 CS      NOp   2
 Largest Abelian subgroup         CS      NOp   2
 Largest concise Abelian subgroup C1      NOp   1
                         Standard orientation:                         
 ---------------------------------------------------------------------
 Center     Atomic      Atomic             Coordinates (Angstroms)
 Number     Number       Type             X           Y           Z
 ---------------------------------------------------------------------
      1          6           0       -0.000000   -0.315313    0.000000
      2          6           0       -1.186987    0.396041   -0.000000
      3          6           0       -1.138281    1.737443   -0.000000
      4          6           0       -0.000009    2.381276   -0.000000
      5          6           0        1.138269    1.737454   -0.000000
      6          6           0        1.186986    0.396049   -0.000000
      7         17           0        2.672001   -0.368185    0.000000
      8         17           0        0.000005   -1.985468    0.000000
      9         17           0       -2.671996   -0.368197    0.000000
     10          1           0       -2.171503    2.347590   -0.000000
     11          1           0       -0.000013    3.578536   -0.000000
     12          1           0        2.171478    2.347614   -0.000000
 ---------------------------------------------------------------------
 Rotational constants (GHZ):           1.5985679           0.8808493           0.5679147
 Standard basis: VSTO-6G (5D, 7F)
 There are    30 symmetry adapted cartesian basis functions of A'  symmetry.
 There are     9 symmetry adapted cartesian basis functions of A"  symmetry.
 There are    30 symmetry adapted basis functions of A'  symmetry.
 There are     9 symmetry adapted basis functions of A"  symmetry.
    39 basis functions,   234 primitive gaussians,    39 cartesian basis functions
    24 alpha electrons       24 beta electrons
       nuclear repulsion energy       258.6673217698 Hartrees.
 Integral buffers will be    131072 words long.
 Regular integral format.
 Two-electron integral symmetry is turned off.
 Do NDO integrals.
 One-electron integrals computed using PRISM.
 NBasis=    39 RedAO= T EigKep=  1.00D+00  NBF=    30     9
 NBsUse=    39 1.00D-06 EigRej= -1.00D+00 NBFU=    30     9
 Initial guess from the checkpoint file:  "geometry_chks/123ClBz.chk"
 B after Tr=    -0.000000    0.000000    0.000000
         Rot=    0.707108    0.000000    0.000000    0.707106 Ang=  90.00 deg.
 Initial guess orbital symmetries:
       Occupied  (A') (A') (A') (A') (A') (A') (A') (A') (A') (A')
                 (A') (A") (A') (A') (A") (A") (A') (A') (A") (A')
                 (A') (A') (A") (A")
       Virtual   (A") (A") (A') (A') (A') (A') (A') (A') (A") (A')
                 (A') (A') (A') (A') (A')
 Keep J ints in memory in canonical form, NReq=863709.
 Overlap will be assumed to be unity.
 Requested convergence on RMS density matrix=1.00D-08 within  32 cycles.
 Requested convergence on MAX density matrix=1.00D-06.
 Requested convergence on             energy=1.00D-06.
 No special actions if energy rises.
 Fock symm off for IB=2 I1=    1 I=   31 J=    1 Cut=1.00D-07 Err=9.11D-03
 Fock matrix is not symmetric: symmetry in diagonalization turned off.
 SCF Done:  E(RAM1) =  0.542166197195E-01 A.U. after   12 cycles
            NFock= 11  Conv=0.67D-08     -V/T= 1.0005
 QCSCF skips out because SCF is already converged.
 Calling FoFJK, ICntrl=      2127 FMM=F ISym2X=1 I1Cent= 0 IOpClX= 0 NMat=1 NMatS=1 NMatT=0.
 ***** Axes restored to original set *****
 -------------------------------------------------------------------
 Center     Atomic                   Forces (Hartrees/Bohr)
 Number     Number              X              Y              Z
 -------------------------------------------------------------------
      1        6          -0.030162522    0.016322459    0.000000000
      2        6          -0.037664378    0.048192623    0.000000000
      3        6           0.120847962    0.115104514    0.000000000
      4        6           0.157024757   -0.084996778    0.000000000
      5        6          -0.030300108   -0.164115481    0.000000000
      6        6          -0.060941290    0.005183856    0.000000000
      7       17          -0.019357288   -0.010364798    0.000000000
      8       17          -0.015235196    0.008246614    0.000000000
      9       17          -0.001906645    0.021878234   -0.000000000
     10        1          -0.040302804   -0.024541183   -0.000000000
     11        1          -0.040511774    0.021929014   -0.000000000
     12        1          -0.001490715    0.047160927   -0.000000000
 -------------------------------------------------------------------
 Cartesian Forces:  Max     0.164115481 RMS     0.053770121

 GradGradGradGradGradGradGradGradGradGradGradGradGradGradGradGradGradGrad
 Berny optimization.
 Using GEDIIS/GDIIS optimizer.
 FormGI is forming the generalized inverse of G from B-inverse, IUseBI=4.
 Internal  Forces:  Max     0.129178023 RMS     0.035094276
 Search for a local minimum.
 Step number   4 out of a maximum of   64
 All quantities printed in internal units (Hartrees-Bohrs-Radians)
 Mixed Optimization -- RFO/linear search
 Update second derivatives using D2CorX and points    3    4
 ITU=  0  0  1  0
 Use linear search instead of GDIIS.
     Eigenvalues ---    0.02011   0.02011   0.02011   0.02011   0.02011
     Eigenvalues ---    0.02011   0.02011   0.02011   0.02011   0.06523
     Eigenvalues ---    0.06524   0.09217   0.15999   0.16000   0.16000
     Eigenvalues ---    0.22081   0.23413   0.24904   0.25000   0.25000
     Eigenvalues ---    0.25006   0.28146   0.29033   0.29038   0.40685
     Eigenvalues ---    0.41174   0.44654   0.44656   0.44657   0.63518
 RFO step:  Lambda=-1.31026107D-01 EMin= 2.01065805D-02
 Quartic linear search produced a step of  0.11012.
 Maximum step size (   0.505) exceeded in Quadratic search.
    -- Step size scaled by   0.902
 Iteration  1 RMS(Cart)=  0.05746949 RMS(Int)=  0.01446514
 Iteration  2 RMS(Cart)=  0.01386006 RMS(Int)=  0.00034057
 Iteration  3 RMS(Cart)=  0.00002882 RMS(Int)=  0.00033987
 Iteration  4 RMS(Cart)=  0.00000000 RMS(Int)=  0.00033987
 ClnCor:  largest displacement from symmetrization is 9.96D-11 for atom    12.
 Variable       Old X    -DE/DX   Delta X   Delta X   Delta X     New X
                                 (Linear)    (Quad)   (Total)
    R1        2.61504   0.05601  -0.00244   0.07878   0.07582   2.69086
    R2        2.61505   0.05601  -0.00244   0.07877   0.07581   2.69086
    R3        3.15613   0.01732  -0.01049   0.03847   0.02798   3.18412
    R4        2.53655   0.09365  -0.00700   0.13860   0.13161   2.66816
    R5        3.15608   0.02183  -0.01049   0.04737   0.03688   3.19296
    R6        2.47127   0.12918  -0.01078   0.19447   0.18421   2.65548
    R7        2.26754  -0.04719  -0.06221  -0.20001  -0.26222   2.00532
    R8        2.47127   0.12918  -0.01078   0.19447   0.18421   2.65548
    R9        2.26249  -0.04607  -0.06250  -0.19549  -0.25799   2.00450
   R10        2.53656   0.09364  -0.00699   0.13858   0.13160   2.66816
   R11        2.26753  -0.04718  -0.06221  -0.20000  -0.26221   2.00532
   R12        3.15608   0.02183  -0.01049   0.04736   0.03687   3.19296
    A1        2.06179   0.01790  -0.00193   0.02779   0.02479   2.08657
    A2        2.11070  -0.00895   0.00096  -0.01389  -0.01239   2.09831
    A3        2.11070  -0.00895   0.00096  -0.01390  -0.01239   2.09831
    A4        2.07440   0.00935  -0.00118   0.01538   0.01367   2.08807
    A5        2.12641  -0.00840   0.00187  -0.01629  -0.01416   2.11225
    A6        2.08238  -0.00095  -0.00069   0.00091   0.00049   2.08287
    A7        2.12185  -0.01060   0.00161  -0.01791  -0.01576   2.10609
    A8        2.06793   0.00561  -0.00155   0.01006   0.00825   2.07617
    A9        2.09341   0.00499  -0.00007   0.00784   0.00751   2.10092
   A10        2.11208  -0.01541   0.00106  -0.02274  -0.02062   2.09147
   A11        2.08555   0.00770  -0.00053   0.01137   0.01031   2.09586
   A12        2.08555   0.00770  -0.00053   0.01137   0.01031   2.09586
   A13        2.12185  -0.01060   0.00161  -0.01790  -0.01575   2.10609
   A14        2.09340   0.00499  -0.00007   0.00785   0.00751   2.10092
   A15        2.06794   0.00560  -0.00155   0.01006   0.00824   2.07618
   A16        2.07440   0.00935  -0.00118   0.01538   0.01367   2.08807
   A17        2.12640  -0.00840   0.00187  -0.01629  -0.01416   2.11225
   A18        2.08238  -0.00095  -0.00069   0.00091   0.00049   2.08287
    D1       -0.00000  -0.00000   0.00000  -0.00000   0.00000   0.00000
    D2        3.14159  -0.00000   0.00000  -0.00000   0.00000   3.14159
    D3        3.14159   0.00000   0.00000   0.00000   0.00000   3.14159
    D4        0.00000  -0.00000   0.00000   0.00000   0.00000   0.00000
    D5       -0.00000  -0.00000   0.00000  -0.00000   0.00000   0.00000
    D6        3.14159   0.00000   0.00000   0.00000   0.00000   3.14159
    D7        3.14159  -0.00000   0.00000  -0.00000   0.00000   3.14159
    D8        0.00000  -0.00000   0.00000  -0.00000   0.00000   0.00000
    D9        0.00000   0.00000   0.00000   0.00000   0.00000   0.00000
   D10        3.14159  -0.00000   0.00000  -0.00000   0.00000   3.14159
   D11        3.14159   0.00000   0.00000   0.00000   0.00000   3.14159
   D12       -0.00000   0.00000   0.00000   0.00000   0.00000   0.00000
   D13        0.00000   0.00000   0.00000   0.00000   0.00000   0.00000
   D14        3.14159  -0.00000   0.00000  -0.00000   0.00000   3.14159
   D15        3.14159   0.00000   0.00000   0.00000   0.00000   3.14159
   D16       -0.00000   0.00000   0.00000   0.00000   0.00000   0.00000
   D17       -0.00000  -0.00000   0.00000  -0.00000   0.00000   0.00000
   D18        3.14159  -0.00000   0.00000  -0.00000   0.00000   3.14159
   D19        3.14159   0.00000   0.00000   0.00000   0.00000   3.14159
   D20        0.00000  -0.00000   0.00000  -0.00000   0.00000   0.00000
   D21        0.00000   0.00000   0.00000   0.00000   0.00000   0.00000
   D22        3.14159  -0.00000   0.00000  -0.00000   0.00000   3.14159
   D23        3.14159   0.00000   0.00000   0.00000   0.00000   3.14159
   D24       -0.00000   0.00000   0.00000   0.00000   0.00000   0.00000
         Item               Value     Threshold  Converged?
 Maximum Force            0.129178     0.000450     NO 
 RMS     Force            0.035094     0.000300     NO 
 Maximum Displacement     0.202397     0.001800     NO 
 RMS     Displacement     0.059126     0.001200     NO 
 Predicted change in Energy=-8.774136D-02
 GradGradGradGradGradGradGradGradGradGradGradGradGradGradGradGradGradGrad

                          Input orientation:                          
 ---------------------------------------------------------------------
 Center     Atomic      Atomic             Coordinates (Angstroms)
 Number     Number       Type             X           Y           Z
 ---------------------------------------------------------------------
      1          6           0       -3.134066    0.158718    0.000000
      2          6           0       -1.918005    0.899534    0.000000
      3          6           0       -0.683257    0.214741    0.000000
      4          6           0       -0.642614   -1.189890    0.000000
      5          6           0       -1.840893   -1.923901   -0.000000
      6          6           0       -3.089396   -1.264524   -0.000000
      7         17           0       -4.509323   -2.180324   -0.000000
      8         17           0       -4.615872    0.960808   -0.000000
      9         17           0       -1.927637    2.589146    0.000000
     10          1           0        0.216360    0.777565    0.000000
     11          1           0        0.290227   -1.694833    0.000000
     12          1           0       -1.820223   -2.984869   -0.000000
 ---------------------------------------------------------------------
                    Distance matrix (angstroms):
                    1          2          3          4          5
     1  C    0.000000
     2  C    1.423943   0.000000
     3  C    2.451449   1.411929   0.000000
     4  C    2.833033   2.447920   1.405218   0.000000
     5  C    2.451448   2.824488   2.431853   1.405220   0.000000
     6  C    1.423943   2.460753   2.824487   2.447920   1.411927
     7  Cl   2.713383   4.024979   4.513880   3.991541   2.680723
     8  Cl   1.684962   2.698563   4.002758   4.517995   4.002756
     9  Cl   2.713384   1.689640   2.680724   3.991540   4.513880
    10  H    3.407100   2.137847   1.061170   2.146792   3.395616
    11  H    3.893769   3.406909   2.143396   1.060736   2.143396
    12  H    3.407099   3.885634   3.395614   2.146791   1.061170
                    6          7          8          9         10
     6  C    0.000000
     7  Cl   1.689640   0.000000
     8  Cl   2.698562   3.142939   0.000000
     9  Cl   4.024980   5.423370   3.142943   0.000000
    10  H    3.885634   5.575051   4.835705   2.806875   0.000000
    11  H    3.406908   4.824043   5.578731   4.824044   2.473501
    12  H    2.137847   2.806877   4.835703   5.575050   4.278268
                   11         12
    11  H    0.000000
    12  H    2.473498   0.000000
 Stoichiometry    C6H3Cl3
 Framework group  CS[SG(C6H3Cl3)]
 Deg. of freedom    21
 Full point group                 CS      NOp   2
 Largest Abelian subgroup         CS      NOp   2
 Largest concise Abelian subgroup C1      NOp   1
                         Standard orientation:                         
 ---------------------------------------------------------------------
 Center     Atomic      Atomic             Coordinates (Angstroms)
 Number     Number       Type             X           Y           Z
 ---------------------------------------------------------------------
      1          6           0        0.000000   -0.315922    0.000000
      2          6           0       -1.230377    0.400867    0.000000
      3          6           0       -1.215927    1.812722    0.000000
      4          6           0       -0.000002    2.517111    0.000000
      5          6           0        1.215926    1.812721    0.000000
      6          6           0        1.230376    0.400868    0.000000
      7         17           0        2.711685   -0.411909    0.000000
      8         17           0        0.000003   -2.000884    0.000000
      9         17           0       -2.711686   -0.411910    0.000000
     10          1           0       -2.139136    2.335950    0.000000
     11          1           0       -0.000001    3.577847    0.000000
     12          1           0        2.139132    2.335952    0.000000
 ---------------------------------------------------------------------
 Rotational constants (GHZ):           1.5083695           0.8489382           0.5432097
 Standard basis: VSTO-6G (5D, 7F)
 There are    30 symmetry adapted cartesian basis functions of A'  symmetry.
 There are     9 symmetry adapted cartesian basis functions of A"  symmetry.
 There are    30 symmetry adapted basis functions of A'  symmetry.
 There are     9 symmetry adapted basis functions of A"  symmetry.
    39 basis functions,   234 primitive gaussians,    39 cartesian basis functions
    24 alpha electrons       24 beta electrons
       nuclear repulsion energy       254.9581067907 Hartrees.
 Integral buffers will be    131072 words long.
 Regular integral format.
 Two-electron integral symmetry is turned off.
 Do NDO integrals.
 One-electron integrals computed using PRISM.
 NBasis=    39 RedAO= T EigKep=  1.00D+00  NBF=    30     9
 NBsUse=    39 1.00D-06 EigRej= -1.00D+00 NBFU=    30     9
 Initial guess from the checkpoint file:  "geometry_chks/123ClBz.chk"
 B after Tr=     0.000000   -0.000000   -0.000000
         Rot=    1.000000   -0.000000    0.000000    0.000001 Ang=   0.00 deg.
 Initial guess orbital symmetries:
       Occupied  (A') (A') (A') (A') (A') (A') (A') (A') (A') (A')
                 (A') (A") (A') (A') (A") (A') (A") (A') (A") (A')
                 (A') (A') (A") (A")
       Virtual   (A") (A") (A') (A') (A') (A") (A') (A') (A') (A')
                 (A') (A') (A') (A') (A')
 Keep J ints in memory in canonical form, NReq=863709.
 Overlap will be assumed to be unity.
 Requested convergence on RMS density matrix=1.00D-08 within  32 cycles.
 Requested convergence on MAX density matrix=1.00D-06.
 Requested convergence on             energy=1.00D-06.
 No special actions if energy rises.
 Fock symm off for IB=2 I1=    1 I=   31 J=    6 Cut=1.00D-07 Err=5.75D-03
 Fock matrix is not symmetric: symmetry in diagonalization turned off.
 SCF Done:  E(RAM1) =  0.115864630546E-01 A.U. after   13 cycles
            NFock= 12  Conv=0.32D-08     -V/T= 1.0001
 QCSCF skips out because SCF is already converged.
 Calling FoFJK, ICntrl=      2127 FMM=F ISym2X=1 I1Cent= 0 IOpClX= 0 NMat=1 NMatS=1 NMatT=0.
 ***** Axes restored to original set *****
 -------------------------------------------------------------------
 Center     Atomic                   Forces (Hartrees/Bohr)
 Number     Number              X              Y              Z
 -------------------------------------------------------------------
      1        6           0.019360212   -0.010479102    0.000000000
      2        6          -0.005881748   -0.027189605   -0.000000000
      3        6          -0.035921809   -0.018210065    0.000000000
      4        6          -0.041771691    0.022609928    0.000000000
      5        6          -0.004392989    0.040033488    0.000000000
      6        6           0.019547861    0.019791872    0.000000000
      7       17          -0.000394807    0.000016673   -0.000000000
      8       17          -0.002246706    0.001216303   -0.000000000
      9       17          -0.000229971    0.000321173   -0.000000000
     10        1           0.025299677    0.014382484   -0.000000000
     11        1           0.024840393   -0.013445924   -0.000000000
     12        1           0.001791578   -0.029047225   -0.000000000
 -------------------------------------------------------------------
 Cartesian Forces:  Max     0.041771691 RMS     0.016692429

 GradGradGradGradGradGradGradGradGradGradGradGradGradGradGradGradGradGrad
 Berny optimization.
 Using GEDIIS/GDIIS optimizer.
 FormGI is forming the generalized inverse of G from B-inverse, IUseBI=4.
 Internal  Forces:  Max     0.029076612 RMS     0.009456978
 Search for a local minimum.
 Step number   5 out of a maximum of   64
 All quantities printed in internal units (Hartrees-Bohrs-Radians)
 Mixed Optimization -- RFO/linear search
 Update second derivatives using D2CorX and points    4    5
 DE= -4.26D-02 DEPred=-8.77D-02 R= 4.86D-01
 Trust test= 4.86D-01 RLast= 5.70D-01 DXMaxT set to 5.05D-01
 ITU=  0  0  0  1  0
 Use linear search instead of GDIIS.
     Eigenvalues ---    0.02011   0.02011   0.02011   0.02011   0.02011
     Eigenvalues ---    0.02011   0.02011   0.02011   0.02011   0.06524
     Eigenvalues ---    0.06524   0.15993   0.16000   0.16000   0.19074
     Eigenvalues ---    0.22112   0.23460   0.24916   0.25000   0.25000
     Eigenvalues ---    0.25003   0.28136   0.29033   0.29042   0.40993
     Eigenvalues ---    0.41022   0.44644   0.44656   0.44657   0.72233
 RFO step:  Lambda=-4.91583551D-03 EMin= 2.01065816D-02
 Quartic linear search produced a step of -0.22989.
 Iteration  1 RMS(Cart)=  0.02864495 RMS(Int)=  0.00009012
 Iteration  2 RMS(Cart)=  0.00004299 RMS(Int)=  0.00007964
 Iteration  3 RMS(Cart)=  0.00000000 RMS(Int)=  0.00007964
 ClnCor:  largest displacement from symmetrization is 5.50D-11 for atom     9.
 Variable       Old X    -DE/DX   Delta X   Delta X   Delta X     New X
                                 (Linear)    (Quad)   (Total)
    R1        2.69086  -0.02401  -0.01743  -0.01496  -0.03226   2.65860
    R2        2.69086  -0.02401  -0.01743  -0.01496  -0.03226   2.65860
    R3        3.18412   0.00255  -0.00643   0.02168   0.01524   3.19936
    R4        2.66816  -0.01719  -0.03026   0.01792  -0.01233   2.65583
    R5        3.19296   0.00032  -0.00848   0.01887   0.01039   3.20335
    R6        2.65548  -0.01593  -0.04235   0.03932  -0.00315   2.65233
    R7        2.00532   0.02908   0.06028   0.06766   0.12794   2.13326
    R8        2.65548  -0.01593  -0.04235   0.03932  -0.00315   2.65233
    R9        2.00450   0.02825   0.05931   0.05953   0.11884   2.12334
   R10        2.66816  -0.01719  -0.03025   0.01792  -0.01233   2.65583
   R11        2.00532   0.02908   0.06028   0.06767   0.12795   2.13327
   R12        3.19296   0.00032  -0.00848   0.01887   0.01039   3.20335
    A1        2.08657  -0.00109  -0.00570   0.00344  -0.00201   2.08456
    A2        2.09831   0.00055   0.00285  -0.00172   0.00100   2.09931
    A3        2.09831   0.00055   0.00285  -0.00172   0.00101   2.09931
    A4        2.08807   0.00356  -0.00314   0.01469   0.01168   2.09975
    A5        2.11225  -0.00214   0.00325  -0.01153  -0.00834   2.10391
    A6        2.08287  -0.00142  -0.00011  -0.00316  -0.00334   2.07953
    A7        2.10609  -0.00340   0.00362  -0.01564  -0.01215   2.09395
    A8        2.07617   0.00293  -0.00190   0.01379   0.01196   2.08814
    A9        2.10092   0.00047  -0.00173   0.00185   0.00018   2.10110
   A10        2.09147   0.00077   0.00474  -0.00154   0.00295   2.09442
   A11        2.09586  -0.00039  -0.00237   0.00077  -0.00148   2.09438
   A12        2.09586  -0.00039  -0.00237   0.00077  -0.00148   2.09438
   A13        2.10609  -0.00340   0.00362  -0.01564  -0.01215   2.09395
   A14        2.10092   0.00047  -0.00173   0.00185   0.00019   2.10110
   A15        2.07618   0.00293  -0.00189   0.01379   0.01196   2.08814
   A16        2.08807   0.00356  -0.00314   0.01469   0.01168   2.09975
   A17        2.11225  -0.00214   0.00325  -0.01153  -0.00834   2.10391
   A18        2.08287  -0.00142  -0.00011  -0.00317  -0.00334   2.07953
    D1        0.00000  -0.00000   0.00000  -0.00000   0.00000   0.00000
    D2        3.14159  -0.00000   0.00000  -0.00000   0.00000   3.14159
    D3        3.14159   0.00000   0.00000   0.00000   0.00000   3.14159
    D4        0.00000   0.00000   0.00000   0.00000   0.00000   0.00000
    D5        0.00000   0.00000   0.00000   0.00000   0.00000   0.00000
    D6        3.14159   0.00000   0.00000   0.00000   0.00000   3.14159
    D7        3.14159  -0.00000   0.00000  -0.00000   0.00000   3.14159
    D8        0.00000   0.00000   0.00000   0.00000   0.00000   0.00000
    D9        0.00000  -0.00000   0.00000  -0.00000   0.00000   0.00000
   D10        3.14159  -0.00000   0.00000  -0.00000   0.00000   3.14159
   D11        3.14159   0.00000   0.00000   0.00000   0.00000   3.14159
   D12        0.00000  -0.00000   0.00000  -0.00000   0.00000   0.00000
   D13        0.00000   0.00000   0.00000   0.00000   0.00000   0.00000
   D14        3.14159  -0.00000   0.00000  -0.00000   0.00000   3.14159
   D15        3.14159   0.00000   0.00000   0.00000   0.00000   3.14159
   D16        0.00000   0.00000   0.00000   0.00000   0.00000   0.00000
   D17        0.00000  -0.00000   0.00000  -0.00000   0.00000   0.00000
   D18        3.14159  -0.00000   0.00000  -0.00000   0.00000   3.14159
   D19        3.14159   0.00000   0.00000   0.00000   0.00000   3.14159
   D20        0.00000  -0.00000   0.00000  -0.00000   0.00000   0.00000
   D21        0.00000  -0.00000   0.00000  -0.00000   0.00000   0.00000
[...]
 DE= -1.40D-05 DEPred=-1.44D-05 R= 9.72D-01
 TightC=F SS=  1.41D+00  RLast= 7.31D-03 DXNew= 4.2426D-01 2.1937D-02
 Trust test= 9.72D-01 RLast= 7.31D-03 DXMaxT set to 2.52D-01
 ITU=  1  1 -1  1  0  0  0  0  1  0
     Eigenvalues ---    0.02011   0.02011   0.02011   0.02011   0.02011
     Eigenvalues ---    0.02011   0.02011   0.02011   0.02011   0.06524
     Eigenvalues ---    0.15390   0.16000   0.16000   0.20649   0.23474
     Eigenvalues ---    0.23734   0.25000   0.25000   0.25204   0.26559
     Eigenvalues ---    0.28496   0.29033   0.34559   0.36338   0.40923
     Eigenvalues ---    0.44656   0.44657   0.45369   0.61297   0.82421
 En-DIIS/RFO-DIIS/Sim-DIIS IScMMF=       -3 using points:    10    9
 RFO step:  Lambda=-2.00363588D-07.
 Use linear search instead of GDIIS.
 RFO step:  Lambda=-1.71003941D-07 EMin= 2.01065825D-02
 Quartic linear search produced a step of -0.03128.
 Iteration  1 RMS(Cart)=  0.00012177 RMS(Int)=  0.00000000
 Iteration  2 RMS(Cart)=  0.00000000 RMS(Int)=  0.00000000
 ClnCor:  largest displacement from symmetrization is 6.50D-13 for atom     8.
 Variable       Old X    -DE/DX   Delta X   Delta X   Delta X     New X
                                 (Linear)    (Quad)   (Total)
    R1        2.65502   0.00005   0.00011  -0.00008   0.00004   2.65505
    R2        2.65502   0.00005   0.00011  -0.00008   0.00004   2.65505
    R3        3.19785   0.00015   0.00003   0.00047   0.00050   3.19835
    R4        2.64285  -0.00007   0.00002  -0.00015  -0.00013   2.64272
    R5        3.20502   0.00006   0.00002   0.00021   0.00023   3.20525
    R6        2.63184  -0.00003  -0.00005   0.00003  -0.00002   2.63182
    R7        2.08122  -0.00007  -0.00001  -0.00020  -0.00021   2.08102
    R8        2.63184  -0.00003  -0.00005   0.00003  -0.00002   2.63182
    R9        2.07988   0.00007   0.00010   0.00007   0.00017   2.08005
   R10        2.64285  -0.00007   0.00002  -0.00015  -0.00013   2.64272
   R11        2.08122  -0.00007  -0.00001  -0.00018  -0.00018   2.08104
   R12        3.20502   0.00006   0.00002   0.00021   0.00023   3.20525
    A1        2.07802  -0.00007  -0.00002  -0.00020  -0.00023   2.07780
    A2        2.10258   0.00004   0.00001   0.00010   0.00011   2.10269
    A3        2.10258   0.00004   0.00001   0.00010   0.00011   2.10269
    A4        2.10071   0.00002  -0.00003   0.00017   0.00014   2.10085
    A5        2.10808  -0.00000   0.00005  -0.00010  -0.00006   2.10802
    A6        2.07440  -0.00002  -0.00002  -0.00007  -0.00008   2.07431
    A7        2.09308   0.00001   0.00003  -0.00003  -0.00000   2.09308
    A8        2.09291  -0.00000  -0.00001   0.00005   0.00004   2.09295
    A9        2.09719  -0.00001  -0.00002  -0.00002  -0.00004   2.09715
   A10        2.10076  -0.00001   0.00002  -0.00007  -0.00005   2.10071
   A11        2.09121   0.00000  -0.00001   0.00004   0.00003   2.09124
   A12        2.09121   0.00000  -0.00001   0.00004   0.00003   2.09124
   A13        2.09308   0.00001   0.00003  -0.00003  -0.00000   2.09308
   A14        2.09719  -0.00001  -0.00002  -0.00002  -0.00004   2.09715
   A15        2.09291  -0.00000  -0.00001   0.00005   0.00004   2.09295
   A16        2.10071   0.00002  -0.00003   0.00017   0.00014   2.10085
   A17        2.10808  -0.00000   0.00005  -0.00010  -0.00006   2.10802
   A18        2.07440  -0.00002  -0.00002  -0.00007  -0.00008   2.07431
    D1        0.00000  -0.00000   0.00000  -0.00000   0.00000   0.00000
    D2        3.14159  -0.00000   0.00000  -0.00000   0.00000   3.14159
    D3        3.14159   0.00000   0.00000   0.00000   0.00000   3.14159
    D4        0.00000   0.00000   0.00000   0.00000   0.00000   0.00000
    D5        0.00000  -0.00000   0.00000   0.00000   0.00000   0.00000
    D6        3.14159   0.00000   0.00000   0.00000   0.00000   3.14159
    D7        3.14159  -0.00000   0.00000  -0.00000   0.00000   3.14159
    D8        0.00000  -0.00000   0.00000  -0.00000   0.00000   0.00000
    D9        0.00000   0.00000   0.00000   0.00000   0.00000   0.00000
   D10        3.14159  -0.00000   0.00000  -0.00000   0.00000   3.14159
   D11        3.14159   0.00000   0.00000   0.00000   0.00000   3.14159
   D12        0.00000   0.00000   0.00000   0.00000   0.00000   0.00000
   D13        0.00000  -0.00000   0.00000  -0.00000   0.00000   0.00000
   D14        3.14159  -0.00000   0.00000  -0.00000   0.00000   3.14159
   D15        3.14159   0.00000   0.00000   0.00000   0.00000   3.14159
   D16        0.00000   0.00000   0.00000   0.00000   0.00000   0.00000
   D17        0.00000  -0.00000   0.00000  -0.00000   0.00000   0.00000
   D18        3.14159  -0.00000   0.00000  -0.00000   0.00000   3.14159
   D19        3.14159   0.00000   0.00000   0.00000   0.00000   3.14159
   D20        0.00000   0.00000   0.00000   0.00000   0.00000   0.00000
   D21        0.00000   0.00000   0.00000   0.00000   0.00000   0.00000
   D22        3.14159  -0.00000   0.00000  -0.00000   0.00000   3.14159
   D23        3.14159   0.00000   0.00000   0.00000   0.00000   3.14159
   D24        0.00000  -0.00000   0.00000  -0.00000   0.00000   0.00000
         Item               Value     Threshold  Converged?
 Maximum Force            0.000146     0.000450     YES
 RMS     Force            0.000036     0.000300     YES
 Maximum Displacement     0.000564     0.001800     YES
 RMS     Displacement     0.000122     0.001200     YES
 Predicted change in Energy=-1.001814D-07
 Optimization completed.
    -- Stationary point found.
                           ----------------------------
                           !   Optimized Parameters   !
                           ! (Angstroms and Degrees)  !
 --------------------------                            --------------------------
 ! Name  Definition              Value          Derivative Info.                !
 --------------------------------------------------------------------------------
 ! R1    R(1,2)                  1.405          -DE/DX =    0.0001              !
 ! R2    R(1,6)                  1.405          -DE/DX =    0.0001              !
 ! R3    R(1,8)                  1.6922         -DE/DX =    0.0001              !
 ! R4    R(2,3)                  1.3985         -DE/DX =   -0.0001              !
 ! R5    R(2,9)                  1.696          -DE/DX =    0.0001              !
 ! R6    R(3,4)                  1.3927         -DE/DX =    0.0                 !
 ! R7    R(3,10)                 1.1013         -DE/DX =   -0.0001              !
 ! R8    R(4,5)                  1.3927         -DE/DX =    0.0                 !
 ! R9    R(4,11)                 1.1006         -DE/DX =    0.0001              !
 ! R10   R(5,6)                  1.3985         -DE/DX =   -0.0001              !
 ! R11   R(5,12)                 1.1013         -DE/DX =   -0.0001              !
 ! R12   R(6,7)                  1.696          -DE/DX =    0.0001              !
 ! A1    A(2,1,6)              119.062          -DE/DX =   -0.0001              !
 ! A2    A(2,1,8)              120.469          -DE/DX =    0.0                 !
 ! A3    A(6,1,8)              120.469          -DE/DX =    0.0                 !
 ! A4    A(1,2,3)              120.3617         -DE/DX =    0.0                 !
 ! A5    A(1,2,9)              120.784          -DE/DX =    0.0                 !
 ! A6    A(3,2,9)              118.8543         -DE/DX =    0.0                 !
 ! A7    A(2,3,4)              119.9249         -DE/DX =    0.0                 !
 ! A8    A(2,3,10)             119.9147         -DE/DX =    0.0                 !
 ! A9    A(4,3,10)             120.1604         -DE/DX =    0.0                 !
 ! A10   A(3,4,5)              120.3648         -DE/DX =    0.0                 !
 ! A11   A(3,4,11)             119.8176         -DE/DX =    0.0                 !
 ! A12   A(5,4,11)             119.8176         -DE/DX =    0.0                 !
 ! A13   A(4,5,6)              119.9249         -DE/DX =    0.0                 !
 ! A14   A(4,5,12)             120.1604         -DE/DX =    0.0                 !
 ! A15   A(6,5,12)             119.9147         -DE/DX =    0.0                 !
 ! A16   A(1,6,5)              120.3617         -DE/DX =    0.0                 !
 ! A17   A(1,6,7)              120.784          -DE/DX =    0.0                 !
 ! A18   A(5,6,7)              118.8543         -DE/DX =    0.0                 !
 ! D1    D(6,1,2,3)              0.0            -DE/DX =    0.0                 !
 ! D2    D(6,1,2,9)            180.0            -DE/DX =    0.0                 !
 ! D3    D(8,1,2,3)            180.0            -DE/DX =    0.0                 !
 ! D4    D(8,1,2,9)              0.0            -DE/DX =    0.0                 !
 ! D5    D(2,1,6,5)              0.0            -DE/DX =    0.0                 !
 ! D6    D(2,1,6,7)            180.0            -DE/DX =    0.0                 !
 ! D7    D(8,1,6,5)            180.0            -DE/DX =    0.0                 !
 ! D8    D(8,1,6,7)              0.0            -DE/DX =    0.0                 !
 ! D9    D(1,2,3,4)              0.0            -DE/DX =    0.0                 !
 ! D10   D(1,2,3,10)           180.0            -DE/DX =    0.0                 !
 ! D11   D(9,2,3,4)            180.0            -DE/DX =    0.0                 !
 ! D12   D(9,2,3,10)             0.0            -DE/DX =    0.0                 !
 ! D13   D(2,3,4,5)              0.0            -DE/DX =    0.0                 !
 ! D14   D(2,3,4,11)           180.0            -DE/DX =    0.0                 !
 ! D15   D(10,3,4,5)           180.0            -DE/DX =    0.0                 !
 ! D16   D(10,3,4,11)            0.0            -DE/DX =    0.0                 !
 ! D17   D(3,4,5,6)              0.0            -DE/DX =    0.0                 !
 ! D18   D(3,4,5,12)           180.0            -DE/DX =    0.0                 !
 ! D19   D(11,4,5,6)           180.0            -DE/DX =    0.0                 !
 ! D20   D(11,4,5,12)            0.0            -DE/DX =    0.0                 !
 ! D21   D(4,5,6,1)              0.0            -DE/DX =    0.0                 !
 ! D22   D(4,5,6,7)            180.0            -DE/DX =    0.0                 !
 ! D23   D(12,5,6,1)           180.0            -DE/DX =    0.0                 !
 ! D24   D(12,5,6,7)             0.0            -DE/DX =    0.0                 !
 --------------------------------------------------------------------------------
 GradGradGradGradGradGradGradGradGradGradGradGradGradGradGradGradGradGrad

                          Input orientation:                          
 ---------------------------------------------------------------------
 Center     Atomic      Atomic             Coordinates (Angstroms)
 Number     Number       Type             X           Y           Z
 ---------------------------------------------------------------------
      1          6           0       -3.129308    0.156142    0.000000
      2          6           0       -1.926333    0.881954    0.000000
      3          6           0       -0.697667    0.213906    0.000000
      4          6           0       -0.663854   -1.178393    0.000000
      5          6           0       -1.848072   -1.911380    0.000000
      6          6           0       -3.079231   -1.247940    0.000000
      7         17           0       -4.504428   -2.167352    0.000000
      8         17           0       -4.617504    0.961693    0.000000
      9         17           0       -1.935823    2.577953    0.000000
     10          1           0        0.240857    0.790197    0.000000
     11          1           0        0.304068   -1.702324    0.000000
     12          1           0       -1.817406   -3.012286    0.000000
 ---------------------------------------------------------------------
                    Distance matrix (angstroms):
                    1          2          3          4          5
     1  C    0.000000
     2  C    1.404974   0.000000
     3  C    2.432327   1.398538   0.000000
     4  C    2.803470   2.416378   1.392710   0.000000
     5  C    2.432327   2.794431   2.416666   1.392710   0.000000
     6  C    1.404974   2.421905   2.794431   2.416378   1.398538
     7  Cl   2.699922   3.993099   4.490191   3.965860   2.668661
     8  Cl   1.692230   2.692352   3.990528   4.495700   3.990527
     9  Cl   2.699922   1.696026   2.668661   3.965860   4.490191
    10  H    3.429291   2.169132   1.101335   2.166530   3.414989
    11  H    3.904096   3.413675   2.162270   1.100626   2.162270
    12  H    3.429289   3.895764   3.414986   2.166528   1.101333
                    6          7          8          9         10
     6  C    0.000000
     7  Cl   1.696026   0.000000
     8  Cl   2.692353   3.131088   0.000000
     9  Cl   3.993099   5.395892   3.131088   0.000000
    10  H    3.895766   5.591496   4.861387   2.816737   0.000000
    11  H    3.413675   4.830930   5.596326   4.830930   2.493323
    12  H    2.169130   2.816737   4.861385   5.591494   4.323810
                   11         12
    11  H    0.000000
    12  H    2.493321   0.000000
 Stoichiometry    C6H3Cl3
 Framework group  CS[SG(C6H3Cl3)]
 Deg. of freedom    21
 Full point group                 CS      NOp   2
 Largest Abelian subgroup         CS      NOp   2
 Largest concise Abelian subgroup C1      NOp   1
                         Standard orientation:                         
 ---------------------------------------------------------------------
 Center     Atomic      Atomic             Coordinates (Angstroms)
 Number     Number       Type             X           Y           Z
 ---------------------------------------------------------------------
      1          6           0       -0.000000   -0.307227    0.000000
      2          6           0       -1.210952    0.405196    0.000000
      3          6           0       -1.208333    1.803731    0.000000
      4          6           0       -0.000000    2.496243    0.000000
      5          6           0        1.208333    1.803731    0.000000
      6          6           0        1.210952    0.405196    0.000000
      7         17           0        2.697946   -0.410496    0.000000
      8         17           0        0.000000   -1.999457    0.000000
      9         17           0       -2.697946   -0.410496    0.000000
     10          1           0       -2.161906    2.354765    0.000000
     11          1           0        0.000000    3.596869    0.000000
     12          1           0        2.161904    2.354764    0.000000
 ---------------------------------------------------------------------
 Rotational constants (GHZ):           1.5173768           0.8584273           0.5482597

 **********************************************************************

            Population analysis using the SCF Density.

 **********************************************************************

 Orbital symmetries:
       Occupied  (A') (A') (A') (A') (A') (A') (A') (A') (A') (A')
                 (A') (A') (A") (A') (A") (A') (A') (A") (A") (A')
                 (A') (A') (A") (A")
       Virtual   (A") (A") (A') (A') (A') (A") (A') (A') (A') (A')
                 (A') (A') (A') (A') (A')
 The electronic state is 1-A'.
 Alpha  occ. eigenvalues --   -1.47940  -1.40229  -1.39069  -1.37693  -1.16469
 Alpha  occ. eigenvalues --   -1.16432  -0.88674  -0.88624  -0.69927  -0.64054
 Alpha  occ. eigenvalues --   -0.63718  -0.57419  -0.57132  -0.56824  -0.49999
 Alpha  occ. eigenvalues --   -0.49735  -0.48900  -0.47498  -0.44902  -0.44570
 Alpha  occ. eigenvalues --   -0.44536  -0.43756  -0.36134  -0.35954
 Alpha virt. eigenvalues --   -0.01337  -0.01253   0.02700   0.04225   0.04656
 Alpha virt. eigenvalues --    0.07525   0.12397   0.12568   0.13548   0.14340
 Alpha virt. eigenvalues --    0.14801   0.16406   0.16789   0.17950   0.18817
          Condensed to atoms (all electrons):
               1          2          3          4          5          6
     1  C    4.061924   0.000000   0.000000   0.000000   0.000000   0.000000
     2  C    0.000000   4.054951   0.000000   0.000000   0.000000   0.000000
     3  C    0.000000   0.000000   4.117844   0.000000   0.000000   0.000000
     4  C    0.000000   0.000000   0.000000   4.113722   0.000000   0.000000
     5  C    0.000000   0.000000   0.000000   0.000000   4.117844   0.000000
     6  C    0.000000   0.000000   0.000000   0.000000   0.000000   4.054951
     7  Cl   0.000000   0.000000   0.000000   0.000000   0.000000   0.000000
     8  Cl   0.000000   0.000000   0.000000   0.000000   0.000000   0.000000
     9  Cl   0.000000   0.000000   0.000000   0.000000   0.000000   0.000000
    10  H    0.000000   0.000000   0.000000   0.000000   0.000000   0.000000
    11  H    0.000000   0.000000   0.000000   0.000000   0.000000   0.000000
    12  H    0.000000   0.000000   0.000000   0.000000   0.000000   0.000000
               7          8          9         10         11         12
     1  C    0.000000   0.000000   0.000000   0.000000   0.000000   0.000000
     2  C    0.000000   0.000000   0.000000   0.000000   0.000000   0.000000
     3  C    0.000000   0.000000   0.000000   0.000000   0.000000   0.000000
     4  C    0.000000   0.000000   0.000000   0.000000   0.000000   0.000000
     5  C    0.000000   0.000000   0.000000   0.000000   0.000000   0.000000
     6  C    0.000000   0.000000   0.000000   0.000000   0.000000   0.000000
     7  Cl   6.984124   0.000000   0.000000   0.000000   0.000000   0.000000
     8  Cl   0.000000   6.966459   0.000000   0.000000   0.000000   0.000000
     9  Cl   0.000000   0.000000   6.984124   0.000000   0.000000   0.000000
    10  H    0.000000   0.000000   0.000000   0.845197   0.000000   0.000000
    11  H    0.000000   0.000000   0.000000   0.000000   0.853664   0.000000
    12  H    0.000000   0.000000   0.000000   0.000000   0.000000   0.845197
 Mulliken charges:
               1
     1  C   -0.061924
     2  C   -0.054951
     3  C   -0.117844
     4  C   -0.113722
     5  C   -0.117844
     6  C   -0.054951
     7  Cl   0.015876
     8  Cl   0.033541
     9  Cl   0.015876
    10  H    0.154803
    11  H    0.146336
    12  H    0.154803
 Sum of Mulliken charges =  -0.00000
 Mulliken charges with hydrogens summed into heavy atoms:
               1
     1  C   -0.061924
     2  C   -0.054951
     3  C    0.036959
     4  C    0.032614
     5  C    0.036959
     6  C   -0.054951
     7  Cl   0.015876
     8  Cl   0.033541
     9  Cl   0.015876
 Charge=             -0.0000 electrons
 Dipole moment (field-independent basis, Debye):
    X=             -0.0000    Y=              2.0595    Z=              0.0000  Tot=              2.0595
 N-N= 2.554921598629D+02 E-N=-3.620664114374D+02  KE=-1.131011189378D+02
 Symmetry A'   KE=-8.708813470645D+01
 Symmetry A"   KE=-2.601298423132D+01
 1\1\GINC-SH02-01N40\FOpt\RAM1\ZDO\C6H3Cl3\JLAPIER\09-Dec-2025\0\\# opt
  am1 SCF=XQC\\3-Chloro-Benzene (123)\\0,1\C,-3.1293076925,0.1561417838
 ,0.\C,-1.9263326809,0.8819540217,0.\C,-0.6976668841,0.2139059006,0.\C,
 -0.663854368,-1.178393384,0.\C,-1.8480718373,-1.9113804004,0.\C,-3.079
 2314273,-1.2479397912,0.\Cl,-4.504428019,-2.1673515772,0.\Cl,-4.617504
 0825,0.9616934985,0.\Cl,-1.9358226241,2.5779532161,0.\H,0.2408573306,0
 .7901972994,0.\H,0.304067842,-1.7023241317,0.\H,-1.8174055569,-3.01228
 64358,0.\\Version=ES64L-G16RevB.01\State=1-A'\HF=0.0065172\RMSD=5.527e
 -09\RMSF=5.591e-05\Dipole=0.7125731,-0.3857106,0.\PG=CS [SG(C6H3Cl3)]\
 \@


       THE DEATH-KNELL OF THE ATOM

 SO THE ATOMS IN TURN, WE NOW CLEARLY DISCERN,
 FLY TO BITS WITH THE UTMOST FACILITY;
 THEY WEND ON THEIR WAY, AND, IN SPLITTING, DISPLAY
 AN ABSOLUTE LACK OF STABILITY.

          SIR WM. RAMSAY, 1905
 Job cpu time:       0 days  0 hours  0 minutes  7.7 seconds.
 Elapsed time:       0 days  0 hours  0 minutes 17.5 seconds.
 File lengths (MBytes):  RWF=     10 Int=      0 D2E=      0 Chk=      2 Scr=      1
 Normal termination of Gaussian 16 at Tue Dec  9 09:58:54 2025.
