 Entering Gaussian System, Link 0=g16
 Initial command:
 /share/software/user/restricted/gaussian/g16.B01/l1.exe "/home/users/jlapier/Chloroaromatics/Gau-17566.inp" -scrdir="/home/users/jlapier/Chloroaromatics/"
 Entering Link 1 = /share/software/user/restricted/gaussian/g16.B01/l1.exe PID=     17567.
  
 Copyright (c) 1988-2017, Gaussian, Inc.  All Rights Reserved.
  
 This is part of the Gaussian(R) 16 program.  It is based on
 the Gaussian(R) 09 system (copyright 2009, Gaussian, Inc.),
 the Gaussian(R) 03 system (copyright 2003, Gaussian, Inc.),
 the Gaussian(R) 98 system (copyright 1998, Gaussian, Inc.),
 the Gaussian(R) 94 system (copyright 1995, Gaussian, Inc.),
 the Gaussian 92(TM) system (copyright 1992, Gaussian, Inc.),
 the Gaussian 90(TM) system (copyright 1990, Gaussian, Inc.),
 the Gaussian 88(TM) system (copyright 1988, Gaussian, Inc.),
 the Gaussian 86(TM) system (copyright 1986, Carnegie Mellon
 University), and the Gaussian 82(TM) system (copyright 1983,
 Carnegie Mellon University). Gaussian is a federally registered
 trademark of Gaussian, Inc.
  
 This software contains proprietary and confidential information,
 including trade secrets, belonging to Gaussian, Inc.
  
 This software is provided under written license and may be
 used, copied, transmitted, or stored only in accord with that
 written license.
  
 The following legend is applicable only to US Government
 contracts under FAR:
  
                    RESTRICTED RIGHTS LEGEND
  
 Use, reproduction and disclosure by the US Government is
 subject to restrictions as set forth in subparagraphs (a)
 and (c) of the Commercial Computer Software - Restricted
 Rights clause in FAR 52.227-19.
  
 Gaussian, Inc.
 340 Quinnipiac St., Bldg. 40, Wallingford CT 06492
  
  
 ---------------------------------------------------------------
 Warning -- This program may not be used in any manner that
 competes with the business of Gaussian, Inc. or will provide
 assistance to any competitor of Gaussian, Inc.  The licensee
 of this program is prohibited from giving any competitor of
 Gaussian, Inc. access to this program.  By using this program,
 the user acknowledges that Gaussian, Inc. is engaged in the
 business of creating and licensing software in the field of
 computational chemistry and represents and warrants to the
 licensee that it is not a competitor of Gaussian, Inc. and that
 it will not use this program in any manner prohibited above.
 ---------------------------------------------------------------
  

 Cite this work as:
 Gaussian 16, Revision B.01,
 M. J. Frisch, G. W. Trucks, H. B. Schlegel, G. E. Scuseria, 
 M. A. Robb, J. R. Cheeseman, G. Scalmani, V. Barone, 
 G. A. Petersson, H. Nakatsuji, X. Li, M. Caricato, A. V. Marenich, 
 J. Bloino, B. G. Janesko, R. Gomperts, B. Mennucci, H. P. Hratchian, 
 J. V. Ortiz, A. F. Izmaylov, J. L. Sonnenberg, D. Williams-Young, 
 F. Ding, F. Lipparini, F. Egidi, J. Goings, B. Peng, A. Petrone, 
 T. Henderson, D. Ranasinghe, V. G. Zakrzewski, J. Gao, N. Rega, 
 G. Zheng, W. Liang, M. Hada, M. Ehara, K. Toyota, R. Fukuda, 
 J. Hasegawa, M. Ishida, T. Nakajima, Y. Honda, O. Kitao, H. Nakai, 
 T. Vreven, K. Throssell, J. A. Montgomery, Jr., J. E. Peralta, 
 F. Ogliaro, M. J. Bearpark, J. J. Heyd, E. N. Brothers, K. N. Kudin, 
 V. N. Staroverov, T. A. Keith, R. Kobayashi, J. Normand, 
 K. Raghavachari, A. P. Rendell, J. C. Burant, S. S. Iyengar, 
 J. Tomasi, M. Cossi, J. M. Millam, M. Klene, C. Adamo, R. Cammi, 
 J. W. Ochterski, R. L. Martin, K. Morokuma, O. Farkas, 
 J. B. Foresman, and D. J. Fox, Gaussian, Inc., Wallingford CT, 2016.
 
 ******************************************
 Gaussian 16:  ES64L-G16RevB.01 20-Dec-2017
                 8-Dec-2025 
 ******************************************
 %mem=2GB
 %nprocshare=1
 Will use up to    1 processors via shared memory.
 %chk=geometry_chks/123ClBzAnionRadical.chk
 ----------------------------
 # opt am1 SCF(maxcyc=100000)
 ----------------------------
 1/18=20,19=15,26=1,38=1/1,3;
 2/9=110,12=2,17=6,18=5,40=1/2;
 3/5=2,25=1,41=700000,71=1/1,2,3;
 4/35=1/1;
 5/5=2,7=100000,35=1,38=5/2;
 6/7=2,8=2,9=2,10=2,28=1/1;
 7//1,2,3,16;
 1/18=20,19=15,26=1/3(2);
 2/9=110/2;
 99//99;
 2/9=110/2;
 3/5=2,25=1,41=700000,71=1,135=20/1,2,3;
 4/5=5,16=3,35=1/1;
 5/5=2,7=100000,35=1,38=5/2;
 7//1,2,3,16;
 1/18=20,19=15,26=1/3(-5);
 2/9=110/2;
 6/7=2,8=2,9=2,10=2,19=2,28=1/1;
 99/9=1/99;
 ------------------------------------
 3-Chloro-Benzene Anion Radical (123)
 ------------------------------------
 Symbolic Z-matrix:
 Charge = -1 Multiplicity = 2
 C                    -3.20928   0.19943   0. 
 C                    -2.0115    0.93555   0. 
 C                    -0.77511   0.2663    0. 
 C                    -0.7365   -1.13907   0. 
 C                    -1.93429  -1.87519   0. 
 C                    -3.17067  -1.20594   0. 
 Cl                   -4.67483  -2.13035   0. 
 Cl                   -4.76193   1.03987   0. 
 Cl                    0.81614  -1.97951   0. 
 H                    -1.8858   -3.64003   0. 
 H                    -2.05998   2.7004    0. 
 H                     0.72905   1.19071   0. 
 
 Add virtual bond connecting atoms H10        and C5         Dist= 3.34D+00.
 Add virtual bond connecting atoms H12        and C3         Dist= 3.34D+00.
 Add virtual bond connecting atoms H11        and C2         Dist= 3.34D+00.

 GradGradGradGradGradGradGradGradGradGradGradGradGradGradGradGradGradGrad
 Berny optimization.
 Initialization pass.
                           ----------------------------
                           !    Initial Parameters    !
                           ! (Angstroms and Degrees)  !
 --------------------------                            --------------------------
 ! Name  Definition              Value          Derivative Info.                !
 --------------------------------------------------------------------------------
 ! R1    R(1,2)                  1.4059         estimate D2E/DX2                !
 ! R2    R(1,6)                  1.4059         estimate D2E/DX2                !
 ! R3    R(1,8)                  1.7655         estimate D2E/DX2                !
 ! R4    R(2,3)                  1.4059         estimate D2E/DX2                !
 ! R5    R(2,11)                 1.7655         estimate D2E/DX2                !
 ! R6    R(3,4)                  1.4059         estimate D2E/DX2                !
 ! R7    R(3,12)                 1.7655         estimate D2E/DX2                !
 ! R8    R(4,5)                  1.4059         estimate D2E/DX2                !
 ! R9    R(4,9)                  1.7655         estimate D2E/DX2                !
 ! R10   R(5,6)                  1.4059         estimate D2E/DX2                !
 ! R11   R(5,10)                 1.7655         estimate D2E/DX2                !
 ! R12   R(6,7)                  1.7655         estimate D2E/DX2                !
 ! A1    A(2,1,6)              119.9999         estimate D2E/DX2                !
 ! A2    A(2,1,8)              119.9999         estimate D2E/DX2                !
 ! A3    A(6,1,8)              120.0001         estimate D2E/DX2                !
 ! A4    A(1,2,3)              120.0            estimate D2E/DX2                !
 ! A5    A(1,2,11)             120.0001         estimate D2E/DX2                !
 ! A6    A(3,2,11)             119.9999         estimate D2E/DX2                !
 ! A7    A(2,3,4)              120.0001         estimate D2E/DX2                !
 ! A8    A(2,3,12)             120.0            estimate D2E/DX2                !
 ! A9    A(4,3,12)             119.9999         estimate D2E/DX2                !
 ! A10   A(3,4,5)              119.9997         estimate D2E/DX2                !
 ! A11   A(3,4,9)              120.0003         estimate D2E/DX2                !
 ! A12   A(5,4,9)              120.0            estimate D2E/DX2                !
 ! A13   A(4,5,6)              120.0            estimate D2E/DX2                !
 ! A14   A(4,5,10)             119.9996         estimate D2E/DX2                !
 ! A15   A(6,5,10)             120.0004         estimate D2E/DX2                !
 ! A16   A(1,6,5)              120.0003         estimate D2E/DX2                !
 ! A17   A(1,6,7)              119.9999         estimate D2E/DX2                !
 ! A18   A(5,6,7)              119.9998         estimate D2E/DX2                !
 ! D1    D(6,1,2,3)              0.0            estimate D2E/DX2                !
 ! D2    D(6,1,2,11)           180.0            estimate D2E/DX2                !
 ! D3    D(8,1,2,3)            180.0            estimate D2E/DX2                !
 ! D4    D(8,1,2,11)             0.0            estimate D2E/DX2                !
 ! D5    D(2,1,6,5)              0.0            estimate D2E/DX2                !
 ! D6    D(2,1,6,7)            180.0            estimate D2E/DX2                !
 ! D7    D(8,1,6,5)            180.0            estimate D2E/DX2                !
 ! D8    D(8,1,6,7)              0.0            estimate D2E/DX2                !
 ! D9    D(1,2,3,4)              0.0            estimate D2E/DX2                !
 ! D10   D(1,2,3,12)           180.0            estimate D2E/DX2                !
 ! D11   D(11,2,3,4)           180.0            estimate D2E/DX2                !
 ! D12   D(11,2,3,12)            0.0            estimate D2E/DX2                !
 ! D13   D(2,3,4,5)              0.0            estimate D2E/DX2                !
 ! D14   D(2,3,4,9)            180.0            estimate D2E/DX2                !
 ! D15   D(12,3,4,5)           180.0            estimate D2E/DX2                !
 ! D16   D(12,3,4,9)             0.0            estimate D2E/DX2                !
 ! D17   D(3,4,5,6)              0.0            estimate D2E/DX2                !
 ! D18   D(3,4,5,10)           180.0            estimate D2E/DX2                !
 ! D19   D(9,4,5,6)            180.0            estimate D2E/DX2                !
 ! D20   D(9,4,5,10)             0.0            estimate D2E/DX2                !
 ! D21   D(4,5,6,1)              0.0            estimate D2E/DX2                !
 ! D22   D(4,5,6,7)            180.0            estimate D2E/DX2                !
 ! D23   D(10,5,6,1)           180.0            estimate D2E/DX2                !
 ! D24   D(10,5,6,7)             0.0            estimate D2E/DX2                !
 --------------------------------------------------------------------------------
 Trust Radius=3.00D-01 FncErr=1.00D-07 GrdErr=1.00D-07 EigMax=2.50D+02 EigMin=1.00D-04
 Number of steps in this run=     64 maximum allowed number of steps=    100.
 GradGradGradGradGradGradGradGradGradGradGradGradGradGradGradGradGradGrad

                          Input orientation:                          
 ---------------------------------------------------------------------
 Center     Atomic      Atomic             Coordinates (Angstroms)
 Number     Number       Type             X           Y           Z
 ---------------------------------------------------------------------
      1          6           0       -3.209280    0.199430    0.000000
      2          6           0       -2.011500    0.935550    0.000000
      3          6           0       -0.775110    0.266300    0.000000
      4          6           0       -0.736500   -1.139070    0.000000
      5          6           0       -1.934290   -1.875190    0.000000
      6          6           0       -3.170670   -1.205940    0.000000
      7         17           0       -4.674830   -2.130350    0.000000
      8         17           0       -4.761930    1.039870    0.000000
      9         17           0        0.816140   -1.979510    0.000000
     10          1           0       -1.885800   -3.640030    0.000000
     11          1           0       -2.059980    2.700400    0.000000
     12          1           0        0.729050    1.190710    0.000000
 ---------------------------------------------------------------------
                    Distance matrix (angstroms):
                    1          2          3          4          5
     1  C    0.000000
     2  C    1.405898   0.000000
     3  C    2.435088   1.405900   0.000000
     4  C    2.811801   2.435092   1.405900   0.000000
     5  C    2.435087   2.811800   2.435093   1.405907   0.000000
     6  C    1.405900   2.435088   2.811796   2.435088   1.405892
     7  Cl   2.752401   4.061166   4.577308   4.061167   2.752393
     8  Cl   1.765520   2.752408   4.061175   4.577321   4.061173
     9  Cl   4.577312   4.061173   2.752406   1.765511   2.752408
    10  H    4.061164   4.577306   4.061163   2.752397   1.765506
    11  H    2.752406   1.765516   2.752405   4.061173   4.577316
    12  H    4.061167   2.752403   1.765512   2.752401   4.061173
                    6          7          8          9         10
     6  C    0.000000
     7  Cl   1.765512   0.000000
     8  Cl   2.752412   3.171416   0.000000
     9  Cl   4.061165   5.493041   6.342832   0.000000
    10  H    2.752396   3.171407   5.493049   3.171404   0.000000
    11  H    4.061173   5.493049   3.171418   5.493052   6.342822
    12  H    4.577308   6.342819   5.493051   3.171416   5.493040
                   11         12
    11  H    0.000000
    12  H    3.171412   0.000000
 Stoichiometry    C6H3Cl3(1-,2)
 Framework group  CS[SG(C6H3Cl3)]
 Deg. of freedom    21
 Full point group                 CS      NOp   2
 Largest Abelian subgroup         CS      NOp   2
 Largest concise Abelian subgroup C1      NOp   1
                         Standard orientation:                         
 ---------------------------------------------------------------------
 Center     Atomic      Atomic             Coordinates (Angstroms)
 Number     Number       Type             X           Y           Z
 ---------------------------------------------------------------------
      1          6           0        0.488272   -1.123995    0.000000
      2          6           0        1.705816   -0.421047    0.000000
      3          6           0        1.705816    0.984853    0.000000
      4          6           0        0.488272    1.687806    0.000000
      5          6           0       -0.729277    0.984849   -0.000000
      6          6           0       -0.729272   -0.421043   -0.000000
      7         17           0       -2.258250   -1.303799   -0.000000
      8         17           0        0.488272   -2.889515    0.000000
      9         17           0        0.488266    3.453317    0.000000
     10          1           0       -2.258247    1.867608   -0.000000
     11          1           0        3.234799   -1.303802    0.000000
     12          1           0        3.234794    1.867609    0.000000
 ---------------------------------------------------------------------
 Rotational constants (GHZ):           1.7786955           0.5747793           0.4344034
 Standard basis: VSTO-6G (5D, 7F)
 There are    30 symmetry adapted cartesian basis functions of A'  symmetry.
 There are     9 symmetry adapted cartesian basis functions of A"  symmetry.
 There are    30 symmetry adapted basis functions of A'  symmetry.
 There are     9 symmetry adapted basis functions of A"  symmetry.
    39 basis functions,   234 primitive gaussians,    39 cartesian basis functions
    25 alpha electrons       24 beta electrons
       nuclear repulsion energy       246.3204313616 Hartrees.
 Integral buffers will be    131072 words long.
 Regular integral format.
 Two-electron integral symmetry is turned off.
 Do NDO integrals.
 One-electron integrals computed using PRISM.
 NBasis=    39 RedAO= T EigKep=  1.00D+00  NBF=    30     9
 NBsUse=    39 1.00D-06 EigRej= -1.00D+00 NBFU=    30     9
 Simple Huckel Guess.
 Initial guess orbital symmetries:
 Alpha Orbitals:
       Occupied  (A') (A') (A') (A') (A') (A') (A') (A') (A') (A")
                 (A') (A') (A') (A') (A") (A') (A") (A') (A") (A')
                 (A') (A') (A") (A") (A')
       Virtual   (A") (A') (A") (A') (A") (A') (A') (A') (A') (A')
                 (A') (A') (A') (A')
 Beta  Orbitals:
       Occupied  (A') (A') (A') (A') (A') (A') (A') (A') (A') (A")
                 (A') (A') (A') (A') (A") (A') (A") (A') (A") (A')
                 (A') (A') (A") (A")
       Virtual   (A') (A") (A') (A") (A') (A") (A') (A') (A') (A')
                 (A') (A') (A') (A') (A')
 The electronic state of the initial guess is 2-A'.
 Initial guess <Sx>= 0.0000 <Sy>= 0.0000 <Sz>= 0.5000 <S**2>= 0.7500 S= 0.5000
 Keep J ints in memory in canonical form, NReq=863709.
 Overlap will be assumed to be unity.
 Requested convergence on RMS density matrix=1.00D-08 within**** cycles.
 Requested convergence on MAX density matrix=1.00D-06.
 Requested convergence on             energy=1.00D-06.
 No special actions if energy rises.
 Fock symm off for IB=2 I1=    1 I=   31 J=   26 Cut=1.00D-07 Err=6.52D-03
 Fock matrix is not symmetric: symmetry in diagonalization turned off.
 Rare condition: small coef for last iteration:  0.000D+00
 Rare condition: small coef for last iteration:  0.000D+00
 Rare condition: small coef for last iteration:  0.000D+00
 Rare condition: small coef for last iteration:  0.000D+00
 Rare condition: small coef for last iteration:  0.000D+00
 Rare condition: small coef for last iteration:  0.000D+00
 Rare condition: small coef for last iteration:  0.000D+00
 Rare condition: small coef for last iteration:  0.000D+00
 SCF Done:  E(UAM1) =  0.336980686659     A.U. after   41 cycles
            NFock= 40  Conv=0.84D-08     -V/T= 1.0030
 <Sx>= 0.0000 <Sy>= 0.0000 <Sz>= 0.5000 <S**2>= 1.0809 S= 0.6537
 <L.S>=  0.00000000000    
 Annihilation of the first spin contaminant:
 S**2 before annihilation     1.0809,   after     0.7715

 **********************************************************************

            Population analysis using the SCF Density.

 **********************************************************************

 Orbital symmetries:
 Alpha Orbitals:
       Occupied  (A') (A') (A') (A') (A') (A') (A') (A') (A') (A')
                 (A') (A") (A') (A") (A") (A') (A') (A') (A') (A")
                 (A') (A') (A") (A") (A')
       Virtual   (A') (A') (A") (A") (A') (A') (A') (A") (A') (A')
                 (A') (A') (A') (A')
 Beta  Orbitals:
       Occupied  (A') (A') (A') (A') (A') (A') (A') (A') (A') (A')
                 (A') (A") (A') (A") (A") (A') (A') (A') (A') (A")
                 (A') (A") (A") (A')
       Virtual   (A') (A") (A") (A') (A') (A') (A') (A") (A') (A')
                 (A') (A') (A') (A') (A')
 The electronic state is 2-A'.
 Alpha  occ. eigenvalues --   -1.27157  -1.23147  -1.22275  -1.19479  -0.95998
 Alpha  occ. eigenvalues --   -0.93303  -0.67938  -0.65358  -0.48304  -0.44506
 Alpha  occ. eigenvalues --   -0.43721  -0.39333  -0.37495  -0.34466  -0.32903
 Alpha  occ. eigenvalues --   -0.31878  -0.30019  -0.29397  -0.28440  -0.27950
 Alpha  occ. eigenvalues --   -0.25758  -0.22090  -0.19365  -0.18667  -0.06554
 Alpha virt. eigenvalues --    0.13225   0.15352   0.16063   0.17038   0.17775
 Alpha virt. eigenvalues --    0.19217   0.20560   0.26590   0.30655   0.31218
 Alpha virt. eigenvalues --    0.33008   0.34440   0.35362   0.39024
  Beta  occ. eigenvalues --   -1.27260  -1.23141  -1.22146  -1.19478  -0.96191
  Beta  occ. eigenvalues --   -0.93777  -0.68138  -0.65962  -0.48396  -0.44721
  Beta  occ. eigenvalues --   -0.43880  -0.39324  -0.37640  -0.34340  -0.32923
  Beta  occ. eigenvalues --   -0.31927  -0.29909  -0.29319  -0.28654  -0.28025
  Beta  occ. eigenvalues --   -0.22748  -0.19534  -0.18982  -0.18685
  Beta virt. eigenvalues --    0.13835   0.15769   0.16655   0.17420   0.18624
  Beta virt. eigenvalues --    0.20423   0.25100   0.25815   0.25916   0.30765
  Beta virt. eigenvalues --    0.31166   0.32753   0.33647   0.35510   0.37591
          Condensed to atoms (all electrons):
               1          2          3          4          5          6
     1  C    4.028281   0.000000   0.000000   0.000000   0.000000   0.000000
     2  C    0.000000   4.173728   0.000000   0.000000   0.000000   0.000000
     3  C    0.000000   0.000000   4.171752   0.000000   0.000000   0.000000
     4  C    0.000000   0.000000   0.000000   4.038487   0.000000   0.000000
     5  C    0.000000   0.000000   0.000000   0.000000   4.142191   0.000000
     6  C    0.000000   0.000000   0.000000   0.000000   0.000000   4.083932
     7  Cl   0.000000   0.000000   0.000000   0.000000   0.000000   0.000000
     8  Cl   0.000000   0.000000   0.000000   0.000000   0.000000   0.000000
     9  Cl   0.000000   0.000000   0.000000   0.000000   0.000000   0.000000
    10  H    0.000000   0.000000   0.000000   0.000000   0.000000   0.000000
    11  H    0.000000   0.000000   0.000000   0.000000   0.000000   0.000000
    12  H    0.000000   0.000000   0.000000   0.000000   0.000000   0.000000
               7          8          9         10         11         12
     1  C    0.000000   0.000000   0.000000   0.000000   0.000000   0.000000
     2  C    0.000000   0.000000   0.000000   0.000000   0.000000   0.000000
     3  C    0.000000   0.000000   0.000000   0.000000   0.000000   0.000000
     4  C    0.000000   0.000000   0.000000   0.000000   0.000000   0.000000
     5  C    0.000000   0.000000   0.000000   0.000000   0.000000   0.000000
     6  C    0.000000   0.000000   0.000000   0.000000   0.000000   0.000000
     7  Cl   7.101922   0.000000   0.000000   0.000000   0.000000   0.000000
     8  Cl   0.000000   7.114165   0.000000   0.000000   0.000000   0.000000
     9  Cl   0.000000   0.000000   7.130531   0.000000   0.000000   0.000000
    10  H    0.000000   0.000000   0.000000   0.889030   0.000000   0.000000
    11  H    0.000000   0.000000   0.000000   0.000000   1.054934   0.000000
    12  H    0.000000   0.000000   0.000000   0.000000   0.000000   1.071047
          Atomic-Atomic Spin Densities.
               1          2          3          4          5          6
     1  C   -0.097692   0.000000   0.000000   0.000000   0.000000   0.000000
     2  C    0.000000  -0.111186   0.000000   0.000000   0.000000   0.000000
     3  C    0.000000   0.000000  -0.227931   0.000000   0.000000   0.000000
     4  C    0.000000   0.000000   0.000000   0.056423   0.000000   0.000000
     5  C    0.000000   0.000000   0.000000   0.000000  -0.133740   0.000000
     6  C    0.000000   0.000000   0.000000   0.000000   0.000000   0.091663
     7  Cl   0.000000   0.000000   0.000000   0.000000   0.000000   0.000000
     8  Cl   0.000000   0.000000   0.000000   0.000000   0.000000   0.000000
     9  Cl   0.000000   0.000000   0.000000   0.000000   0.000000   0.000000
    10  H    0.000000   0.000000   0.000000   0.000000   0.000000   0.000000
    11  H    0.000000   0.000000   0.000000   0.000000   0.000000   0.000000
    12  H    0.000000   0.000000   0.000000   0.000000   0.000000   0.000000
               7          8          9         10         11         12
     1  C    0.000000   0.000000   0.000000   0.000000   0.000000   0.000000
     2  C    0.000000   0.000000   0.000000   0.000000   0.000000   0.000000
     3  C    0.000000   0.000000   0.000000   0.000000   0.000000   0.000000
     4  C    0.000000   0.000000   0.000000   0.000000   0.000000   0.000000
     5  C    0.000000   0.000000   0.000000   0.000000   0.000000   0.000000
     6  C    0.000000   0.000000   0.000000   0.000000   0.000000   0.000000
     7  Cl  -0.010551   0.000000   0.000000   0.000000   0.000000   0.000000
     8  Cl   0.000000   0.022563   0.000000   0.000000   0.000000   0.000000
     9  Cl   0.000000   0.000000   0.023233   0.000000   0.000000   0.000000
    10  H    0.000000   0.000000   0.000000   0.036362   0.000000   0.000000
    11  H    0.000000   0.000000   0.000000   0.000000   0.659717   0.000000
    12  H    0.000000   0.000000   0.000000   0.000000   0.000000   0.691138
 Mulliken charges and spin densities:
               1          2
     1  C   -0.028281  -0.097692
     2  C   -0.173728  -0.111186
     3  C   -0.171752  -0.227931
     4  C   -0.038487   0.056423
     5  C   -0.142191  -0.133740
     6  C   -0.083932   0.091663
     7  Cl  -0.101922  -0.010551
     8  Cl  -0.114165   0.022563
     9  Cl  -0.130531   0.023233
    10  H    0.110970   0.036362
    11  H   -0.054934   0.659717
    12  H   -0.071047   0.691138
 Sum of Mulliken charges =  -1.00000   1.00000
 Mulliken charges and spin densities with hydrogens summed into heavy atoms:
               1          2
     1  C   -0.028281  -0.097692
     2  C   -0.228661   0.548531
     3  C   -0.242799   0.463207
     4  C   -0.038487   0.056423
     5  C   -0.031221  -0.097377
     6  C   -0.083932   0.091663
     7  Cl  -0.101922  -0.010551
     8  Cl  -0.114165   0.022563
     9  Cl  -0.130531   0.023233
 Charge=             -1.0000 electrons
 Dipole moment (field-independent basis, Debye):
    X=             -5.9729    Y=             -0.5287    Z=              0.0000  Tot=              5.9962
 N-N= 2.463204313616D+02 E-N=-3.515374810687D+02  KE=-1.138234295457D+02
 Symmetry A'   KE=-8.776294913573D+01
 Symmetry A"   KE=-2.606048040998D+01
 Symmetry A'   SP= 1.000000000000D+00
 Symmetry A"   SP=-4.551914400963D-15
 Calling FoFJK, ICntrl=      2127 FMM=F ISym2X=1 I1Cent= 0 IOpClX= 1 NMat=1 NMatS=1 NMatT=0.
 ***** Axes restored to original set *****
 -------------------------------------------------------------------
 Center     Atomic                   Forces (Hartrees/Bohr)
 Number     Number              X              Y              Z
 -------------------------------------------------------------------
      1        6           0.011490956    0.036405697   -0.000000000
      2        6           0.029620386   -0.009783148   -0.000000000
      3        6          -0.026436605    0.020844175   -0.000000000
      4        6           0.007520484    0.012732093   -0.000000000
      5        6          -0.002427181   -0.073805543   -0.000000000
      6        6           0.001445874   -0.027839253    0.000000000
      7       17           0.026009122    0.011561507   -0.000000000
      8       17           0.022330161   -0.011960140    0.000000000
      9       17          -0.023245423    0.009201255   -0.000000000
     10        1          -0.003777937    0.117440618    0.000000000
     11        1           0.001812095   -0.057874742    0.000000000
     12        1          -0.044341932   -0.026922517    0.000000000
 -------------------------------------------------------------------
 Cartesian Forces:  Max     0.117440618 RMS     0.029786277

 GradGradGradGradGradGradGradGradGradGradGradGradGradGradGradGradGradGrad
 Berny optimization.
 FormGI is forming the generalized inverse of G from B-inverse, IUseBI=4.
 Internal  Forces:  Max     0.117500076 RMS     0.025043181
 Search for a local minimum.
 Step number   1 out of a maximum of   64
 All quantities printed in internal units (Hartrees-Bohrs-Radians)
 Mixed Optimization -- RFO/linear search
 Second derivative matrix not updated -- first step.
 ITU=  0
     Eigenvalues ---    0.02011   0.02011   0.02011   0.02011   0.02011
     Eigenvalues ---    0.02011   0.02011   0.02011   0.02011   0.06524
     Eigenvalues ---    0.06524   0.06524   0.16000   0.16000   0.16000
     Eigenvalues ---    0.22374   0.23491   0.24609   0.25000   0.25000
     Eigenvalues ---    0.25000   0.29033   0.29033   0.29033   0.40810
     Eigenvalues ---    0.41112   0.44656   0.44657   0.44657   0.44657
 RFO step:  Lambda=-1.28724672D-01 EMin= 2.01065826D-02
 Linear search not attempted -- first point.
 Maximum step size (   0.300) exceeded in Quadratic search.
    -- Step size scaled by   0.394
 Iteration  1 RMS(Cart)=  0.04529926 RMS(Int)=  0.00530245
 Iteration  2 RMS(Cart)=  0.00506661 RMS(Int)=  0.00001586
 Iteration  3 RMS(Cart)=  0.00000020 RMS(Int)=  0.00001586
 ClnCor:  largest displacement from symmetrization is 1.39D-09 for atom    10.
 Variable       Old X    -DE/DX   Delta X   Delta X   Delta X     New X
                                 (Linear)    (Quad)   (Total)
    R1        2.65676  -0.04274   0.00000  -0.02949  -0.02948   2.62728
    R2        2.65677  -0.00747   0.00000  -0.00442  -0.00443   2.65233
    R3        3.33635  -0.02533   0.00000  -0.02385  -0.02385   3.31250
    R4        2.65677  -0.07162   0.00000  -0.05000  -0.04997   2.60680
    R5        3.33634  -0.05790   0.00000  -0.11776  -0.11776   3.21858
    R6        2.65677  -0.04166   0.00000  -0.02926  -0.02925   2.62752
    R7        3.33633  -0.05187   0.00000  -0.10550  -0.10550   3.23084
    R8        2.65678  -0.03130   0.00000  -0.02128  -0.02129   2.63549
    R9        3.33633  -0.02482   0.00000  -0.02337  -0.02337   3.31297
   R10        2.65675  -0.03823   0.00000  -0.02532  -0.02535   2.63140
   R11        3.33632  -0.11750   0.00000  -0.23896  -0.23896   3.09736
   R12        3.33633  -0.02821   0.00000  -0.02656  -0.02656   3.30978
    A1        2.09439  -0.00840   0.00000  -0.00827  -0.00828   2.08612
    A2        2.09439   0.00401   0.00000   0.00394   0.00395   2.09834
    A3        2.09440   0.00439   0.00000   0.00433   0.00433   2.09873
    A4        2.09439   0.01161   0.00000   0.01096   0.01100   2.10540
    A5        2.09440  -0.00544   0.00000  -0.00498  -0.00499   2.08940
    A6        2.09439  -0.00618   0.00000  -0.00599  -0.00601   2.08839
    A7        2.09440   0.00804   0.00000   0.00606   0.00610   2.10050
    A8        2.09440  -0.00449   0.00000  -0.00367  -0.00369   2.09070
    A9        2.09439  -0.00355   0.00000  -0.00239  -0.00241   2.09198
   A10        2.09439  -0.00648   0.00000  -0.00786  -0.00785   2.08654
   A11        2.09440   0.00820   0.00000   0.00910   0.00909   2.10349
   A12        2.09440  -0.00172   0.00000  -0.00124  -0.00124   2.09316
   A13        2.09439   0.00490   0.00000   0.00702   0.00698   2.10138
   A14        2.09439  -0.00153   0.00000  -0.00226  -0.00224   2.09215
   A15        2.09440  -0.00337   0.00000  -0.00477  -0.00475   2.08966
   A16        2.09440  -0.00967   0.00000  -0.00791  -0.00796   2.08644
   A17        2.09439   0.01112   0.00000   0.01050   0.01053   2.10492
   A18        2.09439  -0.00145   0.00000  -0.00259  -0.00257   2.09182
    D1       -0.00000   0.00000   0.00000   0.00000   0.00000   0.00000
    D2        3.14159   0.00000   0.00000   0.00000   0.00000   3.14159
    D3        3.14159  -0.00000   0.00000  -0.00000   0.00000   3.14159
    D4       -0.00000   0.00000   0.00000   0.00000   0.00000   0.00000
    D5        0.00000  -0.00000   0.00000  -0.00000  -0.00000   0.00000
    D6        3.14159  -0.00000   0.00000  -0.00000   0.00000   3.14159
    D7        3.14159   0.00000   0.00000   0.00000   0.00000   3.14159
    D8        0.00000   0.00000   0.00000   0.00000  -0.00000   0.00000
    D9        0.00000   0.00000   0.00000  -0.00000   0.00000   0.00000
   D10        3.14159   0.00000   0.00000   0.00000   0.00000   3.14159
   D11        3.14159  -0.00000   0.00000  -0.00000   0.00000   3.14159
   D12        0.00000  -0.00000   0.00000  -0.00000   0.00000   0.00000
   D13       -0.00000  -0.00000   0.00000  -0.00000   0.00000   0.00000
   D14        3.14159   0.00000   0.00000   0.00000   0.00000   3.14159
   D15        3.14159  -0.00000   0.00000  -0.00000   0.00000   3.14159
   D16        0.00000  -0.00000   0.00000  -0.00000   0.00000   0.00000
   D17       -0.00000   0.00000   0.00000   0.00000   0.00000   0.00000
   D18        3.14159   0.00000   0.00000   0.00000   0.00000   3.14159
   D19        3.14159  -0.00000   0.00000  -0.00000   0.00000   3.14159
   D20       -0.00000   0.00000   0.00000   0.00000   0.00000   0.00000
   D21        0.00000   0.00000   0.00000  -0.00000   0.00000   0.00000
   D22        3.14159   0.00000   0.00000  -0.00000   0.00000   3.14159
   D23        3.14159  -0.00000   0.00000  -0.00000   0.00000   3.14159
   D24        0.00000  -0.00000   0.00000  -0.00000  -0.00000   0.00000
         Item               Value     Threshold  Converged?
 Maximum Force            0.117500     0.000450     NO 
 RMS     Force            0.025043     0.000300     NO 
 Maximum Displacement     0.262531     0.001800     NO 
 RMS     Displacement     0.049034     0.001200     NO 
 Predicted change in Energy=-4.655531D-02
 GradGradGradGradGradGradGradGradGradGradGradGradGradGradGradGradGradGrad

                          Input orientation:                          
 ---------------------------------------------------------------------
 Center     Atomic      Atomic             Coordinates (Angstroms)
 Number     Number       Type             X           Y           Z
 ---------------------------------------------------------------------
      1          6           0       -3.196400    0.195977    0.000000
      2          6           0       -2.004468    0.911673    0.000000
      3          6           0       -0.790881    0.255845   -0.000000
      4          6           0       -0.743256   -1.133762   -0.000000
      5          6           0       -1.932224   -1.862723   -0.000000
      6          6           0       -3.160710   -1.207123    0.000000
      7         17           0       -4.645057   -2.136811    0.000000
      8         17           0       -4.732608    1.040211    0.000000
      9         17           0        0.796585   -1.971862   -0.000000
     10          1           0       -1.885283   -3.501105   -0.000000
     11          1           0       -2.042180    2.614456    0.000000
     12          1           0        0.661783    1.157394   -0.000000
 ---------------------------------------------------------------------
                    Distance matrix (angstroms):
                    1          2          3          4          5
     1  C    0.000000
     2  C    1.390296   0.000000
     3  C    2.406264   1.379457   0.000000
     4  C    2.790363   2.403011   1.390424   0.000000
     5  C    2.415862   2.775336   2.406449   1.394643   0.000000
     6  C    1.403554   2.413750   2.785025   2.418567   1.392476
     7  Cl   2.745999   4.033108   4.536461   4.028667   2.726644
     8  Cl   1.752902   2.731166   4.019010   4.543247   4.033507
     9  Cl   4.543508   4.020034   2.735458   1.753147   2.730991
    10  H    3.922683   4.414386   3.913105   2.628409   1.639054
    11  H    2.679788   1.703201   2.669980   3.966906   4.478529
    12  H    3.976166   2.677550   1.709685   2.687663   3.981203
                    6          7          8          9         10
     6  C    0.000000
     7  Cl   1.751458   0.000000
     8  Cl   2.742512   3.178228   0.000000
     9  Cl   4.030511   5.444142   6.296393   0.000000
    10  H    2.624703   3.078580   5.360113   3.087232   0.000000
    11  H    3.981906   5.417519   3.117154   5.393784   6.117573
    12  H    4.494707   6.246146   5.395663   3.132158   5.309346
                   11         12
    11  H    0.000000
    12  H    3.071554   0.000000
 Stoichiometry    C6H3Cl3(1-,2)
 Framework group  CS[SG(C6H3Cl3)]
 Deg. of freedom    21
 Full point group                 CS      NOp   2
 Largest Abelian subgroup         CS      NOp   2
 Largest concise Abelian subgroup C1      NOp   1
                         Standard orientation:                         
 ---------------------------------------------------------------------
 Center     Atomic      Atomic             Coordinates (Angstroms)
 Number     Number       Type             X           Y           Z
 ---------------------------------------------------------------------
      1          6           0        1.212825   -0.133773    0.000000
      2          6           0        1.196007    1.256421    0.000000
      3          6           0        0.000606    1.944840   -0.000000
      4          6           0       -1.207004    1.255670   -0.000000
      5          6           0       -1.203031   -0.138967   -0.000000
      6          6           0        0.000000   -0.840185    0.000000
      7         17           0       -0.011745   -2.591604    0.000000
      8         17           0        2.737978   -0.997818    0.000000
      9         17           0       -2.728845    2.126029   -0.000000
     10          1           0       -2.621997   -0.959354   -0.000000
     11          1           0        2.664934    2.118481    0.000000
     12          1           0        0.005041    3.654519   -0.000000
 ---------------------------------------------------------------------
 Rotational constants (GHZ):           1.7966170           0.5851908           0.4414142
 Standard basis: VSTO-6G (5D, 7F)
 There are    30 symmetry adapted cartesian basis functions of A'  symmetry.
 There are     9 symmetry adapted cartesian basis functions of A"  symmetry.
 There are    30 symmetry adapted basis functions of A'  symmetry.
 There are     9 symmetry adapted basis functions of A"  symmetry.
    39 basis functions,   234 primitive gaussians,    39 cartesian basis functions
    25 alpha electrons       24 beta electrons
       nuclear repulsion energy       247.8655992710 Hartrees.
 Integral buffers will be    131072 words long.
 Regular integral format.
 Two-electron integral symmetry is turned off.
 Do NDO integrals.
 One-electron integrals computed using PRISM.
 NBasis=    39 RedAO= T EigKep=  1.00D+00  NBF=    30     9
 NBsUse=    39 1.00D-06 EigRej= -1.00D+00 NBFU=    30     9
 Initial guess from the checkpoint file:  "geometry_chks/123ClBzAnionRadical.chk"
 B after Tr=     0.000000   -0.000000    0.000000
         Rot=    0.865568   -0.000000   -0.000000   -0.500791 Ang= -60.10 deg.
 Initial guess orbital symmetries:
 Alpha Orbitals:
       Occupied  (A') (A') (A') (A') (A') (A') (A') (A') (A') (A')
                 (A') (A") (A') (A") (A") (A') (A') (A') (A') (A")
                 (A') (A') (A") (A") (A')
       Virtual   (A') (A') (A") (A") (A') (A') (A') (A") (A') (A')
                 (A') (A') (A') (A')
 Beta  Orbitals:
       Occupied  (A') (A') (A') (A') (A') (A') (A') (A') (A') (A')
                 (A') (A") (A') (A") (A") (A') (A') (A') (A') (A")
                 (A') (A") (A") (A')
       Virtual   (A') (A") (A") (A') (A') (A') (A') (A") (A') (A')
                 (A') (A') (A') (A') (A')
 Initial guess <Sx>= 0.0000 <Sy>= 0.0000 <Sz>= 0.5000 <S**2>= 1.0809 S= 0.6537
 Keep J ints in memory in canonical form, NReq=863709.
 Overlap will be assumed to be unity.
 Requested convergence on RMS density matrix=1.00D-08 within**** cycles.
 Requested convergence on MAX density matrix=1.00D-06.
 Requested convergence on             energy=1.00D-06.
 No special actions if energy rises.
 Fock symm off for IB=2 I1=    1 I=   31 J=   22 Cut=1.00D-07 Err=3.32D-03
 Fock matrix is not symmetric: symmetry in diagonalization turned off.
 Rare condition: small coef for last iteration:  0.000D+00
 Rare condition: small coef for last iteration:  0.000D+00
 Rare condition: small coef for last iteration:  0.000D+00
 Rare condition: small coef for last iteration:  0.000D+00
 SCF Done:  E(UAM1) =  0.287076689642     A.U. after   34 cycles
            NFock= 33  Conv=0.71D-08     -V/T= 1.0025
 <Sx>= 0.0000 <Sy>= 0.0000 <Sz>= 0.5000 <S**2>= 0.9804 S= 0.6092
 <L.S>=  0.00000000000    
 Annihilation of the first spin contaminant:
 S**2 before annihilation     0.9804,   after     0.7551
 Calling FoFJK, ICntrl=      2127 FMM=F ISym2X=1 I1Cent= 0 IOpClX= 1 NMat=1 NMatS=1 NMatT=0.
 ***** Axes restored to original set *****
 -------------------------------------------------------------------
 Center     Atomic                   Forces (Hartrees/Bohr)
 Number     Number              X              Y              Z
 -------------------------------------------------------------------
      1        6          -0.000800181    0.029495444   -0.000000000
      2        6           0.019481174    0.021662059    0.000000000
      3        6           0.009552410    0.031955649   -0.000000000
      4        6           0.017260648    0.003805201   -0.000000000
      5        6          -0.000643979   -0.101212903   -0.000000000
      6        6          -0.008162322   -0.022304616   -0.000000000
      7       17           0.019294799    0.008716099    0.000000000
      8       17           0.016263153   -0.009514730    0.000000000
      9       17          -0.016708805    0.006004111   -0.000000000
     10        1          -0.003971983    0.122384370    0.000000000
     11        1           0.001462304   -0.058387902    0.000000000
     12        1          -0.053027219   -0.032602781    0.000000000
 -------------------------------------------------------------------
 Cartesian Forces:  Max     0.122384370 RMS     0.032210733

 GradGradGradGradGradGradGradGradGradGradGradGradGradGradGradGradGradGrad
 Berny optimization.
 Using GEDIIS/GDIIS optimizer.
 FormGI is forming the generalized inverse of G from B-inverse, IUseBI=4.
 Internal  Forces:  Max     0.122447924 RMS     0.022209722
 Search for a local minimum.
 Step number   2 out of a maximum of   64
 All quantities printed in internal units (Hartrees-Bohrs-Radians)
 Mixed Optimization -- RFO/linear search
 Update second derivatives using D2CorX and points    1    2
 DE= -4.99D-02 DEPred=-4.66D-02 R= 1.07D+00
 TightC=F SS=  1.41D+00  RLast= 3.00D-01 DXNew= 5.0454D-01 9.0000D-01
 Trust test= 1.07D+00 RLast= 3.00D-01 DXMaxT set to 5.05D-01
 ITU=  1  0
 Use linear search instead of GDIIS.
 Linear search step of   0.600 exceeds DXMaxT=   0.505 but not scaled.
 Quartic linear search produced a step of  2.00000.
 Iteration  1 RMS(Cart)=  0.07098859 RMS(Int)=  0.03816321
 Iteration  2 RMS(Cart)=  0.02692650 RMS(Int)=  0.01060535
 Iteration  3 RMS(Cart)=  0.01015339 RMS(Int)=  0.00009749
 Iteration  4 RMS(Cart)=  0.00000002 RMS(Int)=  0.00009749
 ClnCor:  largest displacement from symmetrization is 1.91D-08 for atom    10.
 Variable       Old X    -DE/DX   Delta X   Delta X   Delta X     New X
                                 (Linear)    (Quad)   (Total)
    R1        2.62728  -0.02090  -0.05897   0.00000  -0.05890   2.56838
    R2        2.65233   0.00216  -0.00887   0.00000  -0.00898   2.64335
    R3        3.31250  -0.01884  -0.04769   0.00000  -0.04769   3.26481
    R4        2.60680  -0.03950  -0.09994   0.00000  -0.09977   2.50703
    R5        3.21858  -0.05841  -0.23551   0.00000  -0.23551   2.98307
    R6        2.62752  -0.01929  -0.05849   0.00000  -0.05838   2.56914
    R7        3.23084  -0.06225  -0.21099   0.00000  -0.21099   3.01984
    R8        2.63549  -0.01217  -0.04257   0.00000  -0.04263   2.59286
    R9        3.31297  -0.01755  -0.04673   0.00000  -0.04673   3.26623
   R10        2.63140  -0.01673  -0.05070   0.00000  -0.05088   2.58052
   R11        3.09736  -0.12245  -0.47792   0.00000  -0.47792   2.61944
   R12        3.30978  -0.02098  -0.05311   0.00000  -0.05311   3.25666
    A1        2.08612  -0.00629  -0.01656   0.00000  -0.01661   2.06951
    A2        2.09834   0.00398   0.00789   0.00000   0.00792   2.10625
    A3        2.09873   0.00231   0.00867   0.00000   0.00869   2.10742
    A4        2.10540   0.00766   0.02200   0.00000   0.02224   2.12763
    A5        2.08940  -0.00356  -0.00999   0.00000  -0.01011   2.07930
    A6        2.08839  -0.00410  -0.01202   0.00000  -0.01213   2.07625
    A7        2.10050   0.00722   0.01221   0.00000   0.01249   2.11299
    A8        2.09070  -0.00403  -0.00738   0.00000  -0.00752   2.08318
    A9        2.09198  -0.00319  -0.00483   0.00000  -0.00497   2.08701
   A10        2.08654  -0.00668  -0.01571   0.00000  -0.01565   2.07088
   A11        2.10349   0.00784   0.01819   0.00000   0.01816   2.12165
   A12        2.09316  -0.00115  -0.00248   0.00000  -0.00251   2.09065
   A13        2.10138   0.00386   0.01397   0.00000   0.01373   2.11511
   A14        2.09215  -0.00121  -0.00447   0.00000  -0.00436   2.08780
   A15        2.08966  -0.00265  -0.00950   0.00000  -0.00938   2.08028
   A16        2.08644  -0.00578  -0.01591   0.00000  -0.01620   2.07024
   A17        2.10492   0.00761   0.02105   0.00000   0.02120   2.12612
   A18        2.09182  -0.00184  -0.00514   0.00000  -0.00499   2.08683
    D1        0.00000   0.00000   0.00000   0.00000  -0.00000   0.00000
    D2        3.14159   0.00000   0.00000   0.00000   0.00000   3.14159
    D3        3.14159  -0.00000   0.00000   0.00000   0.00000   3.14159
    D4        0.00000   0.00000   0.00000   0.00000  -0.00000   0.00000
    D5       -0.00000  -0.00000   0.00000   0.00000   0.00000   0.00000
    D6        3.14159  -0.00000   0.00000   0.00000   0.00000   3.14159
    D7        3.14159   0.00000   0.00000   0.00000   0.00000   3.14159
    D8       -0.00000   0.00000   0.00000   0.00000   0.00000   0.00000
    D9       -0.00000  -0.00000   0.00000   0.00000   0.00000   0.00000
   D10        3.14159   0.00000   0.00000   0.00000   0.00000   3.14159
   D11        3.14159  -0.00000   0.00000   0.00000   0.00000   3.14159
   D12        0.00000   0.00000   0.00000   0.00000   0.00000   0.00000
   D13       -0.00000  -0.00000   0.00000   0.00000   0.00000   0.00000
   D14        3.14159   0.00000   0.00000   0.00000   0.00000   3.14159
   D15        3.14159  -0.00000   0.00000   0.00000   0.00000   3.14159
   D16        0.00000  -0.00000   0.00000   0.00000   0.00000   0.00000
   D17        0.00000   0.00000   0.00000   0.00000  -0.00000   0.00000
   D18        3.14159   0.00000   0.00000   0.00000   0.00000   3.14159
   D19        3.14159  -0.00000   0.00000   0.00000   0.00000   3.14159
   D20       -0.00000   0.00000   0.00000   0.00000   0.00000   0.00000
   D21        0.00000  -0.00000   0.00000   0.00000  -0.00000   0.00000
   D22        3.14159   0.00000   0.00000   0.00000   0.00000   3.14159
   D23        3.14159  -0.00000   0.00000   0.00000   0.00000   3.14159
   D24        0.00000  -0.00000   0.00000   0.00000   0.00000   0.00000
         Item               Value     Threshold  Converged?
 Maximum Force            0.122448     0.000450     NO 
 RMS     Force            0.022210     0.000300     NO 
 Maximum Displacement     0.524570     0.001800     NO 
 RMS     Displacement     0.098024     0.001200     NO 
 Predicted change in Energy=-9.251764D-02
 GradGradGradGradGradGradGradGradGradGradGradGradGradGradGradGradGradGrad

                          Input orientation:                          
 ---------------------------------------------------------------------
 Center     Atomic      Atomic             Coordinates (Angstroms)
 Number     Number       Type             X           Y           Z
 ---------------------------------------------------------------------
      1          6           0       -3.169986    0.188967    0.000000
      2          6           0       -1.990416    0.864124    0.000000
      3          6           0       -0.822426    0.234967   -0.000000
      4          6           0       -0.757060   -1.122993   -0.000000
      5          6           0       -1.928095   -1.838039   -0.000000
      6          6           0       -3.140407   -1.209522    0.000000
      7         17           0       -4.585255   -2.148861    0.000000
      8         17           0       -4.673153    1.040622    0.000000
      9         17           0        0.757476   -1.955822   -0.000000
     10          1           0       -1.884874   -3.223514   -0.000000
     11          1           0       -2.008345    2.442594    0.000000
     12          1           0        0.527842    1.089648   -0.000000
 ---------------------------------------------------------------------
                    Distance matrix (angstroms):
                    1          2          3          4          5
     1  C    0.000000
     2  C    1.359126   0.000000
     3  C    2.348011   1.326664   0.000000
     4  C    2.746534   2.338759   1.359532   0.000000
     5  C    2.377193   2.702881   2.349438   1.372083   0.000000
     6  C    1.398801   2.371178   2.731224   2.384917   1.365553
     7  Cl   2.732842   3.976338   4.454381   3.963266   2.675277
     8  Cl   1.727665   2.688537   3.934105   4.474037   3.977692
     9  Cl   4.474939   3.937385   2.701046   1.728417   2.688152
    10  H    3.646442   4.089000   3.617995   2.384147   1.386149
    11  H    2.535398   1.578572   2.505997   3.778772   4.281385
    12  H    3.805938   2.528336   1.598031   2.558662   3.821384
                    6          7          8          9         10
     6  C    0.000000
     7  Cl   1.723352   0.000000
     8  Cl   2.722583   3.190694   0.000000
     9  Cl   3.968685   5.346217   6.202452   0.000000
    10  H    2.373295   2.906361   5.094837   2.930709   0.000000
    11  H    3.823547   5.265161   3.011101   5.195751   5.667453
    12  H    4.329230   6.052413   5.201227   3.054115   4.942122
                   11         12
    11  H    0.000000
    12  H    2.874493   0.000000
 Stoichiometry    C6H3Cl3(1-,2)
 Framework group  CS[SG(C6H3Cl3)]
 Deg. of freedom    21
 Full point group                 CS      NOp   2
 Largest Abelian subgroup         CS      NOp   2
 Largest concise Abelian subgroup C1      NOp   1
                         Standard orientation:                         
 ---------------------------------------------------------------------
 Center     Atomic      Atomic             Coordinates (Angstroms)
 Number     Number       Type             X           Y           Z
 ---------------------------------------------------------------------
      1          6           0        1.202874   -0.122436   -0.000000
      2          6           0        1.152667    1.235762   -0.000000
      3          6           0        0.001289    1.894826   -0.000000
      4          6           0       -1.186090    1.232665    0.000000
      5          6           0       -1.174259   -0.139367    0.000000
      6          6           0        0.000000   -0.836397    0.000000
      7         17           0       -0.033877   -2.559416    0.000000
      8         17           0        2.720275   -0.948463   -0.000000
      9         17           0       -2.693519    2.078292    0.000000
     10          1           0       -2.373295   -0.834870    0.000000
     11          1           0        2.502179    2.054729   -0.000000
     12          1           0        0.013279    3.492812   -0.000000
 ---------------------------------------------------------------------
 Rotational constants (GHZ):           1.8329599           0.6070067           0.4559976
 Standard basis: VSTO-6G (5D, 7F)
 There are    30 symmetry adapted cartesian basis functions of A'  symmetry.
 There are     9 symmetry adapted cartesian basis functions of A"  symmetry.
 There are    30 symmetry adapted basis functions of A'  symmetry.
 There are     9 symmetry adapted basis functions of A"  symmetry.
    39 basis functions,   234 primitive gaussians,    39 cartesian basis functions
    25 alpha electrons       24 beta electrons
       nuclear repulsion energy       251.1061449853 Hartrees.
 Integral buffers will be    131072 words long.
 Regular integral format.
 Two-electron integral symmetry is turned off.
 Do NDO integrals.
 One-electron integrals computed using PRISM.
 NBasis=    39 RedAO= T EigKep=  1.00D+00  NBF=    30     9
 NBsUse=    39 1.00D-06 EigRej= -1.00D+00 NBFU=    30     9
 Initial guess from the checkpoint file:  "geometry_chks/123ClBzAnionRadical.chk"
 B after Tr=     0.000000   -0.000000   -0.000000
         Rot=    0.999998   -0.000000    0.000000   -0.002025 Ang=  -0.23 deg.
 Initial guess orbital symmetries:
 Alpha Orbitals:
       Occupied  (A') (A') (A') (A') (A') (A') (A') (A') (A') (A')
                 (A') (A") (A') (A") (A") (A') (A') (A') (A') (A")
                 (A') (A') (A") (A") (A')
       Virtual   (A') (A") (A') (A") (A') (A') (A') (A") (A') (A')
                 (A') (A') (A') (A')
 Beta  Orbitals:
       Occupied  (A') (A') (A') (A') (A') (A') (A') (A') (A') (A')
                 (A') (A") (A') (A") (A") (A') (A') (A') (A') (A")
                 (A') (A") (A") (A')
       Virtual   (A') (A") (A") (A') (A') (A') (A') (A") (A') (A')
                 (A') (A') (A') (A') (A')
 Initial guess <Sx>= 0.0000 <Sy>= 0.0000 <Sz>= 0.5000 <S**2>= 0.9804 S= 0.6092
 Keep J ints in memory in canonical form, NReq=863709.
 Overlap will be assumed to be unity.
 Requested convergence on RMS density matrix=1.00D-08 within**** cycles.
 Requested convergence on MAX density matrix=1.00D-06.
 Requested convergence on             energy=1.00D-06.
 No special actions if energy rises.
 Fock symm off for IB=2 I1=    1 I=   31 J=   22 Cut=1.00D-07 Err=3.31D-03
 Fock matrix is not symmetric: symmetry in diagonalization turned off.
 Rare condition: small coef for last iteration:  0.000D+00
 Rare condition: small coef for last iteration:  0.000D+00
 Rare condition: small coef for last iteration:  0.000D+00
 SCF Done:  E(UAM1) =  0.201522479350     A.U. after   33 cycles
            NFock= 32  Conv=0.60D-08     -V/T= 1.0018
 <Sx>= 0.0000 <Sy>= 0.0000 <Sz>= 0.5000 <S**2>= 0.8645 S= 0.5557
 <L.S>=  0.00000000000    
 Annihilation of the first spin contaminant:
 S**2 before annihilation     0.8645,   after     0.7536
 Calling FoFJK, ICntrl=      2127 FMM=F ISym2X=1 I1Cent= 0 IOpClX= 1 NMat=1 NMatS=1 NMatT=0.
 ***** Axes restored to original set *****
 -------------------------------------------------------------------
 Center     Atomic                   Forces (Hartrees/Bohr)
 Number     Number              X              Y              Z
 -------------------------------------------------------------------
      1        6          -0.030770011    0.014964243   -0.000000000
      2        6          -0.009409397    0.086557210    0.000000000
      3        6           0.092877995    0.054148483   -0.000000000
      4        6           0.039773655   -0.016516982   -0.000000000
      5        6           0.004344027   -0.139495852   -0.000000000
      6        6          -0.033156622   -0.006752339    0.000000000
      7       17           0.004299053    0.002083500    0.000000000
      8       17           0.001967838   -0.003322696    0.000000000
      9       17          -0.001937593   -0.001126572    0.000000000
     10        1          -0.003380111    0.105176519    0.000000000
     11        1           0.000326473   -0.054450887    0.000000000
     12        1          -0.064935306   -0.041264625    0.000000000
 -------------------------------------------------------------------
 Cartesian Forces:  Max     0.139495852 RMS     0.041762595

 GradGradGradGradGradGradGradGradGradGradGradGradGradGradGradGradGradGrad
 Berny optimization.
 Using GEDIIS/GDIIS optimizer.
 FormGI is forming the generalized inverse of G from B-inverse, IUseBI=4.
 Internal  Forces:  Max     0.105230772 RMS     0.022266939
 Search for a local minimum.
 Step number   3 out of a maximum of   64
 All quantities printed in internal units (Hartrees-Bohrs-Radians)
 Mixed Optimization -- RFO/linear search
 Update second derivatives using D2CorX and points    2    3
 ITU=  0  1  0
 Use linear search instead of GDIIS.
 Linear search step of   0.601 exceeds DXMaxT=   0.505 but not scaled.
 Quartic linear search produced a step of  1.00085.
 Iteration  1 RMS(Cart)=  0.07098679 RMS(Int)=  0.03822260
 Iteration  2 RMS(Cart)=  0.02693509 RMS(Int)=  0.01066114
 Iteration  3 RMS(Cart)=  0.01020640 RMS(Int)=  0.00013545
 Iteration  4 RMS(Cart)=  0.00000006 RMS(Int)=  0.00013545
 ClnCor:  largest displacement from symmetrization is 2.16D-08 for atom    10.
 Variable       Old X    -DE/DX   Delta X   Delta X   Delta X     New X
                                 (Linear)    (Quad)   (Total)
    R1        2.56838   0.02876  -0.05895   0.00000  -0.05886   2.50952
    R2        2.64335   0.02367  -0.00899   0.00000  -0.00915   2.63420
    R3        3.26481  -0.00335  -0.04773   0.00000  -0.04773   3.21708
    R4        2.50703   0.04068  -0.09985   0.00000  -0.09960   2.40743
    R5        2.98307  -0.05445  -0.23572   0.00000  -0.23572   2.74735
    R6        2.56914   0.03333  -0.05843   0.00000  -0.05826   2.51089
    R7        3.01984  -0.07694  -0.21117   0.00000  -0.21117   2.80867
    R8        2.59286   0.03397  -0.04267   0.00000  -0.04275   2.55011
    R9        3.26623  -0.00115  -0.04677   0.00000  -0.04677   3.21946
   R10        2.58052   0.03658  -0.05092   0.00000  -0.05116   2.52936
   R11        2.61944  -0.10523  -0.47833   0.00000  -0.47833   2.14112
   R12        3.25666  -0.00474  -0.05316   0.00000  -0.05316   3.20350
    A1        2.06951  -0.00179  -0.01662   0.00000  -0.01669   2.05282
    A2        2.10625   0.00403   0.00792   0.00000   0.00796   2.11421
    A3        2.10742  -0.00224   0.00870   0.00000   0.00873   2.11616
    A4        2.12763   0.00038   0.02226   0.00000   0.02257   2.15021
    A5        2.07930  -0.00063  -0.01011   0.00000  -0.01027   2.06902
    A6        2.07625   0.00024  -0.01214   0.00000  -0.01230   2.06395
    A7        2.11299   0.00182   0.01250   0.00000   0.01290   2.12589
    A8        2.08318  -0.00070  -0.00753   0.00000  -0.00773   2.07546
    A9        2.08701  -0.00112  -0.00497   0.00000  -0.00517   2.08184
   A10        2.07088  -0.00592  -0.01567   0.00000  -0.01558   2.05530
   A11        2.12165   0.00610   0.01818   0.00000   0.01813   2.13979
   A12        2.09065  -0.00018  -0.00251   0.00000  -0.00255   2.08810
   A13        2.11511   0.00099   0.01375   0.00000   0.01343   2.12854
   A14        2.08780  -0.00036  -0.00436   0.00000  -0.00420   2.08359
   A15        2.08028  -0.00062  -0.00939   0.00000  -0.00923   2.07105
   A16        2.07024   0.00452  -0.01622   0.00000  -0.01663   2.05361
   A17        2.12612  -0.00129   0.02121   0.00000   0.02142   2.14753
   A18        2.08683  -0.00323  -0.00500   0.00000  -0.00479   2.08204
    D1        0.00000   0.00000   0.00000   0.00000   0.00000   0.00000
    D2        3.14159   0.00000   0.00000   0.00000   0.00000   3.14159
    D3        3.14159  -0.00000   0.00000   0.00000   0.00000   3.14159
    D4        0.00000   0.00000   0.00000   0.00000  -0.00000   0.00000
    D5       -0.00000  -0.00000   0.00000   0.00000   0.00000   0.00000
    D6        3.14159  -0.00000   0.00000   0.00000   0.00000   3.14159
    D7        3.14159   0.00000   0.00000   0.00000   0.00000   3.14159
    D8        0.00000   0.00000   0.00000   0.00000   0.00000   0.00000
    D9       -0.00000  -0.00000   0.00000   0.00000   0.00000   0.00000
   D10        3.14159   0.00000   0.00000   0.00000   0.00000   3.14159
   D11        3.14159  -0.00000   0.00000   0.00000   0.00000   3.14159
   D12        0.00000  -0.00000   0.00000   0.00000   0.00000   0.00000
   D13        0.00000  -0.00000   0.00000   0.00000  -0.00000   0.00000
   D14        3.14159   0.00000   0.00000   0.00000   0.00000   3.14159
   D15        3.14159  -0.00000   0.00000   0.00000   0.00000   3.14159
   D16        0.00000  -0.00000   0.00000   0.00000   0.00000   0.00000
   D17        0.00000   0.00000   0.00000   0.00000   0.00000   0.00000
   D18        3.14159   0.00000   0.00000   0.00000   0.00000   3.14159
   D19        3.14159  -0.00000   0.00000   0.00000   0.00000   3.14159
   D20        0.00000   0.00000   0.00000   0.00000  -0.00000   0.00000
   D21        0.00000  -0.00000   0.00000   0.00000   0.00000   0.00000
   D22        3.14159   0.00000   0.00000   0.00000   0.00000   3.14159
   D23        3.14159  -0.00000   0.00000   0.00000   0.00000   3.14159
   D24       -0.00000  -0.00000   0.00000   0.00000   0.00000   0.00000
         Item               Value     Threshold  Converged?
 Maximum Force            0.105231     0.000450     NO 
 RMS     Force            0.022267     0.000300     NO 
 Maximum Displacement     0.524353     0.001800     NO 
 RMS     Displacement     0.098046     0.001200     NO 
 Predicted change in Energy=-5.475251D-02
 GradGradGradGradGradGradGradGradGradGradGradGradGradGradGradGradGradGrad

                          Input orientation:                          
 ---------------------------------------------------------------------
 Center     Atomic      Atomic             Coordinates (Angstroms)
 Number     Number       Type             X           Y           Z
 ---------------------------------------------------------------------
      1          6           0       -3.142670    0.181780    0.000000
      2          6           0       -1.976372    0.816822    0.000000
      3          6           0       -0.853990    0.214143   -0.000000
      4          6           0       -0.771246   -1.111982   -0.000000
      5          6           0       -1.923932   -1.813665   -0.000000
      6          6           0       -3.119552   -1.211988    0.000000
      7         17           0       -4.525039   -2.159819    0.000000
      8         17           0       -4.612573    1.040603    0.000000
      9         17           0        0.718375   -1.938728   -0.000000
     10          1           0       -1.885393   -2.946039   -0.000000
     11          1           0       -1.976921    2.270659    0.000000
     12          1           0        0.394614    1.020384   -0.000000
 ---------------------------------------------------------------------
                    Distance matrix (angstroms):
                    1          2          3          4          5
     1  C    0.000000
     2  C    1.327980   0.000000
     3  C    2.288909   1.273956   0.000000
     4  C    2.701383   2.274338   1.328704   0.000000
     5  C    2.338188   2.631009   2.292766   1.349460   0.000000
     6  C    1.393960   2.328719   2.677055   2.350435   1.338478
     7  Cl   2.719196   3.918685   4.371761   3.897297   2.624039
     8  Cl   1.702407   2.645682   3.848374   4.403341   3.921178
     9  Cl   4.405023   3.854182   2.665930   1.703667   2.645265
    10  H    3.371053   3.763961   3.324235   2.145947   1.133030
    11  H    2.392151   1.453837   2.343125   3.591088   4.084667
    12  H    3.635332   2.379708   1.486283   2.430270   3.661623
                    6          7          8          9         10
     6  C    0.000000
     7  Cl   1.695221   0.000000
     8  Cl   2.702458   3.201619   0.000000
     9  Cl   3.906128   5.248073   6.106998   0.000000
    10  H    2.128399   2.754247   4.830200   2.791824   0.000000
    11  H    3.665302   5.110972   2.908555   4.998356   5.217501
    12  H    4.163274   5.858044   5.007228   2.976770   4.575034
                   11         12
    11  H    0.000000
    12  H    2.680927   0.000000
 Stoichiometry    C6H3Cl3(1-,2)
 Framework group  CS[SG(C6H3Cl3)]
 Deg. of freedom    21
 Full point group                 CS      NOp   2
 Largest Abelian subgroup         CS      NOp   2
 Largest concise Abelian subgroup C1      NOp   1
                         Standard orientation:                         
 ---------------------------------------------------------------------
 Center     Atomic      Atomic             Coordinates (Angstroms)
 Number     Number       Type             X           Y           Z
 ---------------------------------------------------------------------
      1          6           0        1.192203   -0.110298    0.000000
      2          6           0        1.108973    1.215071    0.000000
      3          6           0        0.001324    1.844417   -0.000000
      4          6           0       -1.165356    1.208561   -0.000000
      5          6           0       -1.145786   -0.140757   -0.000000
      6          6           0        0.000000   -0.832637    0.000000
      7         17           0       -0.054240   -2.526991    0.000000
      8         17           0        2.701680   -0.897491    0.000000
      9         17           0       -2.658172    2.029522   -0.000000
     10          1           0       -2.124915   -0.710901   -0.000000
     11          1           0        2.340015    1.988491    0.000000
     12          1           0        0.019210    3.330592   -0.000000
 ---------------------------------------------------------------------
 Rotational constants (GHZ):           1.8699775           0.6302628           0.4713856
 Standard basis: VSTO-6G (5D, 7F)
 There are    30 symmetry adapted cartesian basis functions of A'  symmetry.
 There are     9 symmetry adapted cartesian basis functions of A"  symmetry.
 There are    30 symmetry adapted basis functions of A'  symmetry.
 There are     9 symmetry adapted basis functions of A"  symmetry.
    39 basis functions,   234 primitive gaussians,    39 cartesian basis functions
    25 alpha electrons       24 beta electrons
       nuclear repulsion energy       254.5780188976 Hartrees.
 Integral buffers will be    131072 words long.
 Regular integral format.
 Two-electron integral symmetry is turned off.
 Do NDO integrals.
 One-electron integrals computed using PRISM.
 NBasis=    39 RedAO= T EigKep=  1.00D+00  NBF=    30     9
 NBsUse=    39 1.00D-06 EigRej= -1.00D+00 NBFU=    30     9
 Initial guess from the checkpoint file:  "geometry_chks/123ClBzAnionRadical.chk"
 B after Tr=    -0.000000    0.000000   -0.000000
         Rot=    0.999997   -0.000000   -0.000000   -0.002295 Ang=  -0.26 deg.
 Initial guess orbital symmetries:
 Alpha Orbitals:
       Occupied  (A') (A') (A') (A') (A') (A') (A') (A') (A') (A')
                 (A') (A") (A') (A") (A') (A") (A') (A') (A') (A")
                 (A') (A') (A") (A") (A')
       Virtual   (A") (A') (A") (A') (A') (A') (A') (A") (A') (A')
                 (A') (A') (A') (A')
 Beta  Orbitals:
       Occupied  (A') (A') (A') (A') (A') (A') (A') (A') (A') (A')
                 (A') (A") (A') (A") (A') (A") (A') (A') (A') (A")
                 (A') (A") (A") (A')
       Virtual   (A") (A") (A') (A') (A') (A') (A') (A") (A') (A')
                 (A') (A') (A') (A') (A')
 Initial guess <Sx>= 0.0000 <Sy>= 0.0000 <Sz>= 0.5000 <S**2>= 0.8645 S= 0.5557
 Keep J ints in memory in canonical form, NReq=863709.
 Overlap will be assumed to be unity.
 Requested convergence on RMS density matrix=1.00D-08 within**** cycles.
 Requested convergence on MAX density matrix=1.00D-06.
 Requested convergence on             energy=1.00D-06.
 No special actions if energy rises.
 Fock symm off for IB=2 I1=    1 I=   31 J=   22 Cut=1.00D-07 Err=3.81D-03
 Fock matrix is not symmetric: symmetry in diagonalization turned off.
 Rare condition: small coef for last iteration:  0.000D+00
 Rare condition: small coef for last iteration:  0.000D+00
 Rare condition: small coef for last iteration:  0.000D+00
 Rare condition: small coef for last iteration:  0.000D+00
 Rare condition: small coef for last iteration:  0.000D+00
 Rare condition: small coef for last iteration:  0.000D+00
 Rare condition: small coef for last iteration:  0.000D+00
 Rare condition: small coef for last iteration:  0.000D+00
 SCF Done:  E(UAM1) =  0.163226855392     A.U. after   41 cycles
            NFock= 40  Conv=0.61D-08     -V/T= 1.0014
 <Sx>= 0.0000 <Sy>= 0.0000 <Sz>= 0.5000 <S**2>= 0.8068 S= 0.5280
 <L.S>=  0.00000000000    
 Annihilation of the first spin contaminant:
 S**2 before annihilation     0.8068,   after     0.7514
 Calling FoFJK, ICntrl=      2127 FMM=F ISym2X=1 I1Cent= 0 IOpClX= 1 NMat=1 NMatS=1 NMatT=0.
 ***** Axes restored to original set *****
 -------------------------------------------------------------------
 Center     Atomic                   Forces (Hartrees/Bohr)
 Number     Number              X              Y              Z
 -------------------------------------------------------------------
      1        6          -0.064341732   -0.004039248   -0.000000000
      2        6          -0.047279134    0.172042757   -0.000000000
      3        6           0.178850329    0.069194957   -0.000000000
      4        6           0.066345686   -0.039424932    0.000000000
      5        6           0.010372040   -0.119516979   -0.000000000
      6        6          -0.065431644    0.016086232    0.000000000
      7       17          -0.012769054   -0.005542041    0.000000000
      8       17          -0.022818349    0.008824015    0.000000000
      9       17           0.014660969   -0.008683141    0.000000000
     10        1           0.000168759    0.014492354    0.000000000
     11        1          -0.002098725   -0.065066458    0.000000000
     12        1          -0.055659145   -0.038367517    0.000000000
 -------------------------------------------------------------------
 Cartesian Forces:  Max     0.178850329 RMS     0.054709934

 GradGradGradGradGradGradGradGradGradGradGradGradGradGradGradGradGradGrad
 Berny optimization.
 Using GEDIIS/GDIIS optimizer.
 FormGI is forming the generalized inverse of G from B-inverse, IUseBI=4.
 Internal  Forces:  Max     0.142159223 RMS     0.035875406
 Search for a local minimum.
 Step number   4 out of a maximum of   64
 All quantities printed in internal units (Hartrees-Bohrs-Radians)
 Mixed Optimization -- RFO/linear search
 Update second derivatives using D2CorX and points    3    4
 ITU=  0  0  1  0
 Use linear search instead of GDIIS.
     Eigenvalues ---    0.02011   0.02011   0.02011   0.02011   0.02011
     Eigenvalues ---    0.02011   0.02011   0.02011   0.02011   0.04639
     Eigenvalues ---    0.06524   0.11509   0.15999   0.16000   0.16030
     Eigenvalues ---    0.22271   0.23570   0.24469   0.24963   0.25000
     Eigenvalues ---    0.25035   0.28721   0.29033   0.29271   0.40248
     Eigenvalues ---    0.41013   0.44621   0.44656   0.44657   0.74787
 RFO step:  Lambda=-1.27024403D-01 EMin= 2.01065926D-02
 Quartic linear search produced a step of -0.01697.
 Maximum step size (   0.505) exceeded in Quadratic search.
    -- Step size scaled by   0.796
 Iteration  1 RMS(Cart)=  0.05138106 RMS(Int)=  0.01332537
 Iteration  2 RMS(Cart)=  0.01261337 RMS(Int)=  0.00009918
 Iteration  3 RMS(Cart)=  0.00000715 RMS(Int)=  0.00009909
 Iteration  4 RMS(Cart)=  0.00000000 RMS(Int)=  0.00009909
 ClnCor:  largest displacement from symmetrization is 1.37D-08 for atom     9.
 Variable       Old X    -DE/DX   Delta X   Delta X   Delta X     New X
                                 (Linear)    (Quad)   (Total)
    R1        2.50952   0.08815   0.00100   0.09018   0.09112   2.60064
    R2        2.63420   0.04733   0.00016   0.05080   0.05077   2.68498
    R3        3.21708   0.02415   0.00081   0.02606   0.02687   3.24395
    R4        2.40743   0.14216   0.00169   0.14379   0.14558   2.55301
    R5        2.74735  -0.06507   0.00400  -0.24584  -0.24184   2.50551
    R6        2.51089   0.09545   0.00099   0.10033   0.10149   2.61238
    R7        2.80867  -0.06757   0.00358  -0.29190  -0.28832   2.52035
    R8        2.55011   0.09082   0.00073   0.09512   0.09591   2.64602
    R9        3.21946   0.01703   0.00079   0.02001   0.02080   3.24026
   R10        2.52936   0.10461   0.00087   0.10678   0.10754   2.63689
   R11        2.14112  -0.01448   0.00812  -0.21051  -0.20240   1.93872
   R12        3.20350   0.01369   0.00090   0.01375   0.01465   3.21816
    A1        2.05282   0.00175   0.00028  -0.00123  -0.00119   2.05162
    A2        2.11421   0.00539  -0.00014   0.01103   0.01102   2.12523
    A3        2.11616  -0.00714  -0.00015  -0.00980  -0.00983   2.10633
    A4        2.15021  -0.00481  -0.00038  -0.00491  -0.00525   2.14496
    A5        2.06902  -0.00051   0.00017  -0.00274  -0.00258   2.06644
    A6        2.06395   0.00532   0.00021   0.00764   0.00783   2.07179
    A7        2.12589  -0.00969  -0.00022  -0.00664  -0.00658   2.11931
    A8        2.07546   0.00771   0.00013   0.00817   0.00816   2.08362
    A9        2.08184   0.00198   0.00009  -0.00153  -0.00158   2.08026
   A10        2.05530  -0.00314   0.00026  -0.00544  -0.00492   2.05038
   A11        2.13979   0.00234  -0.00031   0.00599   0.00555   2.14534
   A12        2.08810   0.00080   0.00004  -0.00055  -0.00063   2.08747
   A13        2.12854  -0.00327  -0.00023  -0.00557  -0.00584   2.12271
   A14        2.08359   0.00093   0.00007   0.00172   0.00181   2.08540
   A15        2.07105   0.00234   0.00016   0.00385   0.00403   2.07508
   A16        2.05361   0.01915   0.00028   0.02379   0.02378   2.07739
   A17        2.14753  -0.01365  -0.00036  -0.01657  -0.01679   2.13075
   A18        2.08204  -0.00550   0.00008  -0.00722  -0.00699   2.07504
    D1       -0.00000   0.00000   0.00000   0.00000   0.00000   0.00000
    D2        3.14159   0.00000   0.00000   0.00000   0.00000   3.14159
    D3        3.14159  -0.00000   0.00000  -0.00000   0.00000   3.14159
    D4        0.00000   0.00000   0.00000   0.00000  -0.00000   0.00000
    D5        0.00000  -0.00000   0.00000  -0.00000   0.00000   0.00000
    D6        3.14159  -0.00000   0.00000  -0.00000   0.00000   3.14159
    D7        3.14159   0.00000   0.00000   0.00000   0.00000   3.14159
    D8        0.00000   0.00000   0.00000   0.00000   0.00000   0.00000
    D9        0.00000   0.00000   0.00000  -0.00000   0.00000   0.00000
   D10        3.14159   0.00000   0.00000   0.00000   0.00000   3.14159
   D11        3.14159  -0.00000   0.00000  -0.00000   0.00000   3.14159
   D12       -0.00000  -0.00000   0.00000  -0.00000   0.00000   0.00000
   D13       -0.00000  -0.00000   0.00000  -0.00000   0.00000   0.00000
   D14        3.14159   0.00000   0.00000   0.00000   0.00000   3.14159
   D15        3.14159  -0.00000   0.00000  -0.00000   0.00000   3.14159
   D16        0.00000  -0.00000   0.00000  -0.00000  -0.00000   0.00000
   D17        0.00000   0.00000   0.00000   0.00000   0.00000   0.00000
   D18        3.14159   0.00000   0.00000   0.00000   0.00000   3.14159
   D19        3.14159  -0.00000   0.00000  -0.00000   0.00000   3.14159
   D20        0.00000   0.00000   0.00000   0.00000   0.00000   0.00000
   D21        0.00000   0.00000   0.00000   0.00000  -0.00000   0.00000
   D22        3.14159   0.00000   0.00000   0.00000   0.00000   3.14159
   D23        3.14159  -0.00000   0.00000  -0.00000   0.00000   3.14159
   D24       -0.00000  -0.00000   0.00000  -0.00000   0.00000   0.00000
         Item               Value     Threshold  Converged?
 Maximum Force            0.142159     0.000450     NO 
 RMS     Force            0.035875     0.000300     NO 
 Maximum Displacement     0.133909     0.001800     NO 
 RMS     Displacement     0.056059     0.001200     NO 
 Predicted change in Energy=-7.679046D-02
 GradGradGradGradGradGradGradGradGradGradGradGradGradGradGradGradGradGrad

                          Input orientation:                          
 ---------------------------------------------------------------------
 Center     Atomic      Atomic             Coordinates (Angstroms)
 Number     Number       Type             X           Y           Z
 ---------------------------------------------------------------------
      1          6           0       -3.179923    0.212745    0.000000
      2          6           0       -1.977076    0.881384    0.000000
      3          6           0       -0.784595    0.246421   -0.000000
      4          6           0       -0.702765   -1.133567   -0.000000
      5          6           0       -1.904597   -1.852038   -0.000000
      6          6           0       -3.142246   -1.207584    0.000000
      7         17           0       -4.560652   -2.150053    0.000000
      8         17           0       -4.678924    1.049285    0.000000
      9         17           0        0.789236   -1.978574   -0.000000
     10          1           0       -1.879767   -2.877664   -0.000000
     11          1           0       -1.992592    2.207154    0.000000
     12          1           0        0.339200    0.964662   -0.000000
 ---------------------------------------------------------------------
                    Distance matrix (angstroms):
                    1          2          3          4          5
     1  C    0.000000
     2  C    1.376197   0.000000
     3  C    2.395564   1.350996   0.000000
     4  C    2.819373   2.384093   1.382412   0.000000
     5  C    2.426888   2.734383   2.378641   1.400214   0.000000
     6  C    1.420828   2.391946   2.769954   2.440603   1.395384
     7  Cl   2.736646   3.983024   4.472326   3.989553   2.672722
     8  Cl   1.716626   2.707060   3.976228   4.535933   4.014296
     9  Cl   4.533884   3.978925   2.725353   1.714674   2.696803
    10  H    3.352765   3.760307   3.310484   2.104093   1.025927
    11  H    2.321082   1.325860   2.302983   3.581071   4.060145
    12  H    3.598555   2.317772   1.333711   2.342703   3.601170
                    6          7          8          9         10
     6  C    0.000000
     7  Cl   1.702976   0.000000
     8  Cl   2.730355   3.201523   0.000000
     9  Cl   4.006367   5.352636   6.250497   0.000000
    10  H    2.093566   2.777870   4.822469   2.816370   0.000000
    11  H    3.603073   5.057686   2.925242   5.025822   5.086069
    12  H    4.103549   5.806032   5.018837   2.977445   4.437036
                   11         12
    11  H    0.000000
    12  H    2.642165   0.000000
 Stoichiometry    C6H3Cl3(1-,2)
 Framework group  CS[SG(C6H3Cl3)]
 Deg. of freedom    21
 Full point group                 CS      NOp   2
 Largest Abelian subgroup         CS      NOp   2
 Largest concise Abelian subgroup C1      NOp   1
                         Standard orientation:                         
 ---------------------------------------------------------------------
 Center     Atomic      Atomic             Coordinates (Angstroms)
 Number     Number       Type             X           Y           Z
 ---------------------------------------------------------------------
      1          6           0        1.235482   -0.147950   -0.000000
      2          6           0        1.186390    1.227372   -0.000000
      3          6           0        0.026577    1.920208   -0.000000
      4          6           0       -1.197182    1.277187    0.000000
      5          6           0       -1.191278   -0.123015    0.000000
      6          6           0       -0.000000   -0.849618    0.000000
      7         17           0       -0.073962   -2.550987    0.000000
      8         17           0        2.726262   -0.999054   -0.000000
      9         17           0       -2.691594    2.117923    0.000000
     10          1           0       -2.082197   -0.631728    0.000000
     11          1           0        2.329464    1.899151   -0.000000
     12          1           0        0.060802    3.253480   -0.000000
 ---------------------------------------------------------------------
 Rotational constants (GHZ):           1.8442098           0.5991283           0.4522167
 Standard basis: VSTO-6G (5D, 7F)
 There are    30 symmetry adapted cartesian basis functions of A'  symmetry.
 There are     9 symmetry adapted cartesian basis functions of A"  symmetry.
 There are    30 symmetry adapted basis functions of A'  symmetry.
 There are     9 symmetry adapted basis functions of A"  symmetry.
    39 basis functions,   234 primitive gaussians,    39 cartesian basis functions
    25 alpha electrons       24 beta electrons
       nuclear repulsion energy       251.7240089207 Hartrees.
 Integral buffers will be    131072 words long.
 Regular integral format.
 Two-electron integral symmetry is turned off.
 Do NDO integrals.
 One-electron integrals computed using PRISM.
 NBasis=    39 RedAO= T EigKep=  1.00D+00  NBF=    30     9
 NBsUse=    39 1.00D-06 EigRej= -1.00D+00 NBFU=    30     9
 Initial guess from the checkpoint file:  "geometry_chks/123ClBzAnionRadical.chk"
 B after Tr=     0.000000    0.000000   -0.000000
         Rot=    0.999960    0.000000    0.000000    0.008989 Ang=   1.03 deg.
 Initial guess orbital symmetries:
 Alpha Orbitals:
       Occupied  (A') (A') (A') (A') (A') (A') (A') (A') (A') (A')
                 (A') (A") (A') (A') (A") (A") (A') (A') (A') (A")
                 (A') (A') (A") (A") (A')
       Virtual   (A") (A') (A") (A') (A') (A') (A") (A') (A') (A')
                 (A') (A') (A') (A')
 Beta  Orbitals:
       Occupied  (A') (A') (A') (A') (A') (A') (A') (A') (A') (A')
                 (A') (A") (A') (A') (A") (A") (A') (A') (A') (A")
                 (A') (A") (A') (A")
[...]
 Rare condition: small coef for last iteration:  0.000D+00
 Rare condition: small coef for last iteration:  0.000D+00
 Rare condition: small coef for last iteration:  0.000D+00
 Rare condition: small coef for last iteration:  0.000D+00
 Rare condition: small coef for last iteration:  0.000D+00
 Rare condition: small coef for last iteration:  0.000D+00
 Rare condition: small coef for last iteration:  0.000D+00
 Rare condition: small coef for last iteration:  0.000D+00
 Rare condition: small coef for last iteration:  0.000D+00
 Rare condition: small coef for last iteration:  0.000D+00
 Rare condition: small coef for last iteration:  0.000D+00
 Rare condition: small coef for last iteration:  0.000D+00
 Rare condition: small coef for last iteration:  0.000D+00
 Rare condition: small coef for last iteration:  0.000D+00
 Rare condition: small coef for last iteration:  0.000D+00
 Rare condition: small coef for last iteration:  0.000D+00
 Rare condition: small coef for last iteration:  0.000D+00
 Rare condition: small coef for last iteration:  0.000D+00
 Rare condition: small coef for last iteration:  0.000D+00
 Rare condition: small coef for last iteration:  0.000D+00
 Rare condition: small coef for last iteration:  0.000D+00
 Rare condition: small coef for last iteration:  0.000D+00
 Rare condition: small coef for last iteration:  0.000D+00
 Rare condition: small coef for last iteration:  0.000D+00
 Rare condition: small coef for last iteration:  0.000D+00
 Rare condition: small coef for last iteration:  0.000D+00
 Rare condition: small coef for last iteration:  0.000D+00
 Rare condition: small coef for last iteration:  0.000D+00
 Rare condition: small coef for last iteration:  0.000D+00
 Rare condition: small coef for last iteration:  0.000D+00
 Rare condition: small coef for last iteration:  0.000D+00
 Rare condition: small coef for last iteration:  0.000D+00
 Rare condition: small coef for last iteration:  0.000D+00
 Rare condition: small coef for last iteration:  0.000D+00
 Rare condition: small coef for last iteration:  0.000D+00
 Rare condition: small coef for last iteration:  0.000D+00
 Rare condition: small coef for last iteration:  0.000D+00
 Rare condition: small coef for last iteration:  0.000D+00
 Rare condition: small coef for last iteration:  0.000D+00
 Rare condition: small coef for last iteration:  0.000D+00
 Rare condition: small coef for last iteration:  0.000D+00
 Rare condition: small coef for last iteration:  0.000D+00
 Rare condition: small coef for last iteration:  0.000D+00
 Rare condition: small coef for last iteration:  0.000D+00
 Rare condition: small coef for last iteration:  0.000D+00
 Rare condition: small coef for last iteration:  0.000D+00
 Rare condition: small coef for last iteration:  0.000D+00
 Rare condition: small coef for last iteration:  0.000D+00
 Rare condition: small coef for last iteration:  0.000D+00
 Rare condition: small coef for last iteration:  0.000D+00
 Rare condition: small coef for last iteration:  0.000D+00
 Rare condition: small coef for last iteration:  0.000D+00
 Rare condition: small coef for last iteration:  0.000D+00
 Rare condition: small coef for last iteration:  0.000D+00
 Rare condition: small coef for last iteration:  0.000D+00
 Rare condition: small coef for last iteration:  0.000D+00
 Rare condition: small coef for last iteration:  0.000D+00
 Rare condition: small coef for last iteration:  0.000D+00
 Rare condition: small coef for last iteration:  0.000D+00
 Rare condition: small coef for last iteration:  0.000D+00
 Rare condition: small coef for last iteration:  0.000D+00
 Rare condition: small coef for last iteration:  0.000D+00
 Rare condition: small coef for last iteration:  0.000D+00
 Rare condition: small coef for last iteration:  0.000D+00
 Rare condition: small coef for last iteration:  0.000D+00
 Rare condition: small coef for last iteration:  0.000D+00
 Rare condition: small coef for last iteration:  0.000D+00
 Rare condition: small coef for last iteration:  0.000D+00
 Rare condition: small coef for last iteration:  0.000D+00
 Rare condition: small coef for last iteration:  0.000D+00
 Rare condition: small coef for last iteration:  0.000D+00
 Rare condition: small coef for last iteration:  0.000D+00
 Rare condition: small coef for last iteration:  0.000D+00
 Rare condition: small coef for last iteration:  0.000D+00
 Rare condition: small coef for last iteration:  0.000D+00
 Rare condition: small coef for last iteration:  0.000D+00
 Rare condition: small coef for last iteration:  0.000D+00
 Rare condition: small coef for last iteration:  0.000D+00
 Rare condition: small coef for last iteration:  0.000D+00
 Rare condition: small coef for last iteration:  0.000D+00
 Rare condition: small coef for last iteration:  0.000D+00
 Rare condition: small coef for last iteration:  0.000D+00
 Rare condition: small coef for last iteration:  0.000D+00
 Rare condition: small coef for last iteration:  0.000D+00
 Rare condition: small coef for last iteration:  0.000D+00
 Rare condition: small coef for last iteration:  0.000D+00
 Rare condition: small coef for last iteration:  0.000D+00
 Rare condition: small coef for last iteration:  0.000D+00
 Rare condition: small coef for last iteration:  0.000D+00
 Rare condition: small coef for last iteration:  0.000D+00
 Rare condition: small coef for last iteration:  0.000D+00
 Rare condition: small coef for last iteration:  0.000D+00
 Rare condition: small coef for last iteration:  0.000D+00
 Rare condition: small coef for last iteration:  0.000D+00
 Rare condition: small coef for last iteration:  0.000D+00
 Rare condition: small coef for last iteration:  0.000D+00
 Rare condition: small coef for last iteration:  0.000D+00
 Rare condition: small coef for last iteration:  0.000D+00
 Rare condition: small coef for last iteration:  0.000D+00
 Rare condition: small coef for last iteration:  0.000D+00
 Rare condition: small coef for last iteration:  0.000D+00
 Rare condition: small coef for last iteration:  0.000D+00
 Rare condition: small coef for last iteration:  0.000D+00
 Rare condition: small coef for last iteration:  0.000D+00
 Rare condition: small coef for last iteration:  0.000D+00
 Rare condition: small coef for last iteration:  0.000D+00
 Rare condition: small coef for last iteration:  0.000D+00
 Rare condition: small coef for last iteration:  0.000D+00
 Rare condition: small coef for last iteration:  0.000D+00
 Rare condition: small coef for last iteration:  0.000D+00
 Rare condition: small coef for last iteration:  0.000D+00
 Rare condition: small coef for last iteration:  0.000D+00
 Rare condition: small coef for last iteration:  0.000D+00
 Rare condition: small coef for last iteration:  0.000D+00
 Rare condition: small coef for last iteration:  0.000D+00
 Rare condition: small coef for last iteration:  0.000D+00
 Rare condition: small coef for last iteration:  0.000D+00
 Rare condition: small coef for last iteration:  0.000D+00
 Rare condition: small coef for last iteration:  0.000D+00
 Rare condition: small coef for last iteration:  0.000D+00
 Rare condition: small coef for last iteration:  0.000D+00
 Rare condition: small coef for last iteration:  0.000D+00
 Rare condition: small coef for last iteration:  0.000D+00
 Rare condition: small coef for last iteration:  0.000D+00
 Rare condition: small coef for last iteration:  0.000D+00
 Rare condition: small coef for last iteration:  0.000D+00
 Rare condition: small coef for last iteration:  0.000D+00
 Rare condition: small coef for last iteration:  0.000D+00
 Rare condition: small coef for last iteration:  0.000D+00
 Rare condition: small coef for last iteration:  0.000D+00
 Rare condition: small coef for last iteration:  0.000D+00
 Rare condition: small coef for last iteration:  0.000D+00
 Rare condition: small coef for last iteration:  0.000D+00
 Rare condition: small coef for last iteration:  0.000D+00
 Rare condition: small coef for last iteration:  0.000D+00
 Rare condition: small coef for last iteration:  0.000D+00
 Rare condition: small coef for last iteration:  0.000D+00
 Rare condition: small coef for last iteration:  0.000D+00
 Rare condition: small coef for last iteration:  0.000D+00
 Rare condition: small coef for last iteration:  0.000D+00
 Rare condition: small coef for last iteration:  0.000D+00
 Rare condition: small coef for last iteration:  0.000D+00
 Rare condition: small coef for last iteration:  0.000D+00
 Rare condition: small coef for last iteration:  0.000D+00
 Rare condition: small coef for last iteration:  0.000D+00
 Rare condition: small coef for last iteration:  0.000D+00
 Rare condition: small coef for last iteration:  0.000D+00
 Rare condition: small coef for last iteration:  0.000D+00
 Rare condition: small coef for last iteration:  0.000D+00
 Rare condition: small coef for last iteration:  0.000D+00
 Rare condition: small coef for last iteration:  0.000D+00
 Rare condition: small coef for last iteration:  0.000D+00
 Rare condition: small coef for last iteration:  0.000D+00
 Rare condition: small coef for last iteration:  0.000D+00
 Rare condition: small coef for last iteration:  0.000D+00
 Rare condition: small coef for last iteration:  0.000D+00
 Rare condition: small coef for last iteration:  0.000D+00
 Rare condition: small coef for last iteration:  0.000D+00
 Rare condition: small coef for last iteration:  0.000D+00
 Rare condition: small coef for last iteration:  0.000D+00
 Rare condition: small coef for last iteration:  0.000D+00
 Rare condition: small coef for last iteration:  0.000D+00
 Rare condition: small coef for last iteration:  0.000D+00
 Rare condition: small coef for last iteration:  0.000D+00
 Rare condition: small coef for last iteration:  0.000D+00
 Rare condition: small coef for last iteration:  0.000D+00
 Rare condition: small coef for last iteration:  0.000D+00
 Rare condition: small coef for last iteration:  0.000D+00
 Rare condition: small coef for last iteration:  0.000D+00
 Rare condition: small coef for last iteration:  0.000D+00
 Rare condition: small coef for last iteration:  0.000D+00
 Rare condition: small coef for last iteration:  0.000D+00
 Rare condition: small coef for last iteration:  0.000D+00
 Rare condition: small coef for last iteration:  0.000D+00
 Rare condition: small coef for last iteration:  0.000D+00
 Rare condition: small coef for last iteration:  0.000D+00
 Rare condition: small coef for last iteration:  0.000D+00
 Rare condition: small coef for last iteration:  0.000D+00
 Rare condition: small coef for last iteration:  0.000D+00
 Rare condition: small coef for last iteration:  0.000D+00
 Rare condition: small coef for last iteration:  0.000D+00
 Rare condition: small coef for last iteration:  0.000D+00
 Rare condition: small coef for last iteration:  0.000D+00
 Rare condition: small coef for last iteration:  0.000D+00
 Rare condition: small coef for last iteration:  0.000D+00
 Rare condition: small coef for last iteration:  0.000D+00
 Rare condition: small coef for last iteration:  0.000D+00
 Rare condition: small coef for last iteration:  0.000D+00
 Rare condition: small coef for last iteration:  0.000D+00
 Rare condition: small coef for last iteration:  0.000D+00
 Rare condition: small coef for last iteration:  0.000D+00
 Rare condition: small coef for last iteration:  0.000D+00
 Rare condition: small coef for last iteration:  0.000D+00
 Rare condition: small coef for last iteration:  0.000D+00
 Rare condition: small coef for last iteration:  0.000D+00
 Rare condition: small coef for last iteration:  0.000D+00
 Rare condition: small coef for last iteration:  0.000D+00
 Rare condition: small coef for last iteration:  0.000D+00
 Rare condition: small coef for last iteration:  0.000D+00
 Rare condition: small coef for last iteration:  0.000D+00
 Rare condition: small coef for last iteration:  0.000D+00
 Rare condition: small coef for last iteration:  0.000D+00
 Rare condition: small coef for last iteration:  0.000D+00
 Rare condition: small coef for last iteration:  0.000D+00
 Rare condition: small coef for last iteration:  0.000D+00
 Rare condition: small coef for last iteration:  0.000D+00
 Rare condition: small coef for last iteration:  0.000D+00
 Rare condition: small coef for last iteration:  0.000D+00
 Rare condition: small coef for last iteration:  0.000D+00
 Rare condition: small coef for last iteration:  0.000D+00
 Rare condition: small coef for last iteration:  0.000D+00
 Rare condition: small coef for last iteration:  0.000D+00
 Rare condition: small coef for last iteration:  0.000D+00
 Rare condition: small coef for last iteration:  0.000D+00
 Rare condition: small coef for last iteration:  0.000D+00
 Rare condition: small coef for last iteration:  0.000D+00
 Rare condition: small coef for last iteration:  0.000D+00
 Rare condition: small coef for last iteration:  0.000D+00
 Rare condition: small coef for last iteration:  0.000D+00
 Rare condition: small coef for last iteration:  0.000D+00
 Rare condition: small coef for last iteration:  0.000D+00
 Rare condition: small coef for last iteration:  0.000D+00
 Rare condition: small coef for last iteration:  0.000D+00
 Rare condition: small coef for last iteration:  0.000D+00
 Rare condition: small coef for last iteration:  0.000D+00
 Rare condition: small coef for last iteration:  0.000D+00
 Rare condition: small coef for last iteration:  0.000D+00
 Rare condition: small coef for last iteration:  0.000D+00
 Rare condition: small coef for last iteration:  0.000D+00
 Rare condition: small coef for last iteration:  0.000D+00
 Rare condition: small coef for last iteration:  0.000D+00
 Rare condition: small coef for last iteration:  0.000D+00
 Rare condition: small coef for last iteration:  0.000D+00
 Rare condition: small coef for last iteration:  0.000D+00
 Rare condition: small coef for last iteration:  0.000D+00
 Rare condition: small coef for last iteration:  0.000D+00
 Rare condition: small coef for last iteration:  0.000D+00
 Rare condition: small coef for last iteration:  0.000D+00
 Rare condition: small coef for last iteration:  0.000D+00
 Rare condition: small coef for last iteration:  0.000D+00
 Rare condition: small coef for last iteration:  0.000D+00
 Rare condition: small coef for last iteration:  0.000D+00
 Rare condition: small coef for last iteration:  0.000D+00
 Rare condition: small coef for last iteration:  0.000D+00
 Rare condition: small coef for last iteration:  0.000D+00
 Rare condition: small coef for last iteration:  0.000D+00
 Rare condition: small coef for last iteration:  0.000D+00
 Rare condition: small coef for last iteration:  0.000D+00
 Rare condition: small coef for last iteration:  0.000D+00
 Rare condition: small coef for last iteration:  0.000D+00
 Rare condition: small coef for last iteration:  0.000D+00
 Rare condition: small coef for last iteration:  0.000D+00
 Rare condition: small coef for last iteration:  0.000D+00
 Rare condition: small coef for last iteration:  0.000D+00
 Rare condition: small coef for last iteration:  0.000D+00
 Rare condition: small coef for last iteration:  0.000D+00
 Rare condition: small coef for last iteration:  0.000D+00
 Rare condition: small coef for last iteration:  0.000D+00
 Rare condition: small coef for last iteration:  0.000D+00
 Rare condition: small coef for last iteration:  0.000D+00
 Rare condition: small coef for last iteration:  0.000D+00
 Rare condition: small coef for last iteration:  0.000D+00
 Rare condition: small coef for last iteration:  0.000D+00
 Rare condition: small coef for last iteration:  0.000D+00
 Rare condition: small coef for last iteration:  0.000D+00
 Rare condition: small coef for last iteration:  0.000D+00
 Rare condition: small coef for last iteration:  0.000D+00
 Rare condition: small coef for last iteration:  0.000D+00
 Rare condition: small coef for last iteration:  0.000D+00
 Rare condition: small coef for last iteration:  0.000D+00
 Rare condition: small coef for last iteration:  0.000D+00
 Rare condition: small coef for last iteration:  0.000D+00
 Rare condition: small coef for last iteration:  0.000D+00
 Rare condition: small coef for last iteration:  0.000D+00
 Rare condition: small coef for last iteration:  0.000D+00
 Rare condition: small coef for last iteration:  0.000D+00
 Rare condition: small coef for last iteration:  0.000D+00
 Rare condition: small coef for last iteration:  0.000D+00
 Rare condition: small coef for last iteration:  0.000D+00
 Rare condition: small coef for last iteration:  0.000D+00
 Rare condition: small coef for last iteration:  0.000D+00
 Rare condition: small coef for last iteration:  0.000D+00
 Rare condition: small coef for last iteration:  0.000D+00
 Rare condition: small coef for last iteration:  0.000D+00
 Rare condition: small coef for last iteration:  0.000D+00
 Rare condition: small coef for last iteration:  0.000D+00
 Rare condition: small coef for last iteration:  0.000D+00
 Rare condition: small coef for last iteration:  0.000D+00
 Rare condition: small coef for last iteration:  0.000D+00
 Rare condition: small coef for last iteration:  0.000D+00
 Rare condition: small coef for last iteration:  0.000D+00
 Rare condition: small coef for last iteration:  0.000D+00
 Rare condition: small coef for last iteration:  0.000D+00
 Rare condition: small coef for last iteration:  0.000D+00
 Rare condition: small coef for last iteration:  0.000D+00
 Rare condition: small coef for last iteration:  0.000D+00
 Rare condition: small coef for last iteration:  0.000D+00
 Rare condition: small coef for last iteration:  0.000D+00
 Rare condition: small coef for last iteration:  0.000D+00
 Rare condition: small coef for last iteration:  0.000D+00
 Rare condition: small coef for last iteration:  0.000D+00
 Rare condition: small coef for last iteration:  0.000D+00
 Rare condition: small coef for last iteration:  0.000D+00
 Rare condition: small coef for last iteration:  0.000D+00
 Rare condition: small coef for last iteration:  0.000D+00
 Rare condition: small coef for last iteration:  0.000D+00
 Rare condition: small coef for last iteration:  0.000D+00
 Rare condition: small coef for last iteration:  0.000D+00
 Rare condition: small coef for last iteration:  0.000D+00
 Rare condition: small coef for last iteration:  0.000D+00
 Rare condition: small coef for last iteration:  0.000D+00
 Rare condition: small coef for last iteration:  0.000D+00
 Rare condition: small coef for last iteration:  0.000D+00
 Rare condition: small coef for last iteration:  0.000D+00
 Rare condition: small coef for last iteration:  0.000D+00
 Rare condition: small coef for last iteration:  0.000D+00
 Rare condition: small coef for last iteration:  0.000D+00
 Rare condition: small coef for last iteration:  0.000D+00
 Rare condition: small coef for last iteration:  0.000D+00
 Rare condition: small coef for last iteration:  0.000D+00
 Rare condition: small coef for last iteration:  0.000D+00
 Rare condition: small coef for last iteration:  0.000D+00
 Rare condition: small coef for last iteration:  0.000D+00
 Rare condition: small coef for last iteration:  0.000D+00
 Rare condition: small coef for last iteration:  0.000D+00
 Rare condition: small coef for last iteration:  0.000D+00
 Rare condition: small coef for last iteration:  0.000D+00
 Rare condition: small coef for last iteration:  0.000D+00
 Rare condition: small coef for last iteration:  0.000D+00
 Rare condition: small coef for last iteration:  0.000D+00
 Rare condition: small coef for last iteration:  0.000D+00
 Rare condition: small coef for last iteration:  0.000D+00
 Rare condition: small coef for last iteration:  0.000D+00
 Rare condition: small coef for last iteration:  0.000D+00
 Rare condition: small coef for last iteration:  0.000D+00
 Rare condition: small coef for last iteration:  0.000D+00
 Rare condition: small coef for last iteration:  0.000D+00
 Rare condition: small coef for last iteration:  0.000D+00
