 Entering Gaussian System, Link 0=g16
 Initial command:
 /share/software/user/restricted/gaussian/g16.B01/l1.exe "/home/users/jlapier/Chloroaromatics/Gau-30038.inp" -scrdir="/home/users/jlapier/Chloroaromatics/"
 Entering Link 1 = /share/software/user/restricted/gaussian/g16.B01/l1.exe PID=     30039.
  
 Copyright (c) 1988-2017, Gaussian, Inc.  All Rights Reserved.
  
 This is part of the Gaussian(R) 16 program.  It is based on
 the Gaussian(R) 09 system (copyright 2009, Gaussian, Inc.),
 the Gaussian(R) 03 system (copyright 2003, Gaussian, Inc.),
 the Gaussian(R) 98 system (copyright 1998, Gaussian, Inc.),
 the Gaussian(R) 94 system (copyright 1995, Gaussian, Inc.),
 the Gaussian 92(TM) system (copyright 1992, Gaussian, Inc.),
 the Gaussian 90(TM) system (copyright 1990, Gaussian, Inc.),
 the Gaussian 88(TM) system (copyright 1988, Gaussian, Inc.),
 the Gaussian 86(TM) system (copyright 1986, Carnegie Mellon
 University), and the Gaussian 82(TM) system (copyright 1983,
 Carnegie Mellon University). Gaussian is a federally registered
 trademark of Gaussian, Inc.
  
 This software contains proprietary and confidential information,
 including trade secrets, belonging to Gaussian, Inc.
  
 This software is provided under written license and may be
 used, copied, transmitted, or stored only in accord with that
 written license.
  
 The following legend is applicable only to US Government
 contracts under FAR:
  
                    RESTRICTED RIGHTS LEGEND
  
 Use, reproduction and disclosure by the US Government is
 subject to restrictions as set forth in subparagraphs (a)
 and (c) of the Commercial Computer Software - Restricted
 Rights clause in FAR 52.227-19.
  
 Gaussian, Inc.
 340 Quinnipiac St., Bldg. 40, Wallingford CT 06492
  
  
 ---------------------------------------------------------------
 Warning -- This program may not be used in any manner that
 competes with the business of Gaussian, Inc. or will provide
 assistance to any competitor of Gaussian, Inc.  The licensee
 of this program is prohibited from giving any competitor of
 Gaussian, Inc. access to this program.  By using this program,
 the user acknowledges that Gaussian, Inc. is engaged in the
 business of creating and licensing software in the field of
 computational chemistry and represents and warrants to the
 licensee that it is not a competitor of Gaussian, Inc. and that
 it will not use this program in any manner prohibited above.
 ---------------------------------------------------------------
  

 Cite this work as:
 Gaussian 16, Revision B.01,
 M. J. Frisch, G. W. Trucks, H. B. Schlegel, G. E. Scuseria, 
 M. A. Robb, J. R. Cheeseman, G. Scalmani, V. Barone, 
 G. A. Petersson, H. Nakatsuji, X. Li, M. Caricato, A. V. Marenich, 
 J. Bloino, B. G. Janesko, R. Gomperts, B. Mennucci, H. P. Hratchian, 
 J. V. Ortiz, A. F. Izmaylov, J. L. Sonnenberg, D. Williams-Young, 
 F. Ding, F. Lipparini, F. Egidi, J. Goings, B. Peng, A. Petrone, 
 T. Henderson, D. Ranasinghe, V. G. Zakrzewski, J. Gao, N. Rega, 
 G. Zheng, W. Liang, M. Hada, M. Ehara, K. Toyota, R. Fukuda, 
 J. Hasegawa, M. Ishida, T. Nakajima, Y. Honda, O. Kitao, H. Nakai, 
 T. Vreven, K. Throssell, J. A. Montgomery, Jr., J. E. Peralta, 
 F. Ogliaro, M. J. Bearpark, J. J. Heyd, E. N. Brothers, K. N. Kudin, 
 V. N. Staroverov, T. A. Keith, R. Kobayashi, J. Normand, 
 K. Raghavachari, A. P. Rendell, J. C. Burant, S. S. Iyengar, 
 J. Tomasi, M. Cossi, J. M. Millam, M. Klene, C. Adamo, R. Cammi, 
 J. W. Ochterski, R. L. Martin, K. Morokuma, O. Farkas, 
 J. B. Foresman, and D. J. Fox, Gaussian, Inc., Wallingford CT, 2016.
 
 ******************************************
 Gaussian 16:  ES64L-G16RevB.01 20-Dec-2017
                10-Dec-2025 
 ******************************************
 %mem=2GB
 %nprocshare=1
 Will use up to    1 processors via shared memory.
 %chk=geometry_chks/124-1_4-ClBzNeutralRadical.chk
 -----------------
 # opt am1 SCF=XQC
 -----------------
 1/18=20,19=15,26=1,38=1/1,3;
 2/9=110,12=2,17=6,18=5,40=1/2;
 3/5=2,25=1,41=700000,71=1/1,2,3;
 4/35=1/1;
 5/5=2,8=3,13=1,35=1,38=5/2,8;
 6/7=2,8=2,9=2,10=2,28=1/1;
 7//1,2,3,16;
 1/18=20,19=15,26=1/3(2);
 2/9=110/2;
 99//99;
 2/9=110/2;
 3/5=2,25=1,41=700000,71=1,135=20/1,2,3;
 4/5=5,16=3,35=1/1;
 5/5=2,8=3,13=1,35=1,38=5/2,8;
 7//1,2,3,16;
 1/18=20,19=15,26=1/3(-5);
 2/9=110/2;
 6/7=2,8=2,9=2,10=2,19=2,28=1/1;
 99/9=1/99;
 -------------------------------
 Neutral Radical (removed 2) 1_4
 -------------------------------
 Symbolic Z-matrix:
 Charge =  0 Multiplicity = 2
 C                    -3.20928   0.19943   0. 
 C                    -2.0115    0.93555   0. 
 C                    -0.77511   0.2663    0. 
 C                    -0.7365   -1.13907   0. 
 C                    -1.93429  -1.87519   0. 
 C                    -3.17067  -1.20594   0. 
 Cl                   -4.67483  -2.13035   0. 
 H                    -2.05998   2.7004    0. 
 Cl                    0.72905   1.19071   0. 
 H                     0.81614  -1.97951   0. 
 H                    -1.8858   -3.64003   0. 
 
 Add virtual bond connecting atoms H11        and C5         Dist= 3.34D+00.
 Add virtual bond connecting atoms H10        and C4         Dist= 3.34D+00.
 Add virtual bond connecting atoms H8         and C2         Dist= 3.34D+00.

 GradGradGradGradGradGradGradGradGradGradGradGradGradGradGradGradGradGrad
 Berny optimization.
 Initialization pass.
                           ----------------------------
                           !    Initial Parameters    !
                           ! (Angstroms and Degrees)  !
 --------------------------                            --------------------------
 ! Name  Definition              Value          Derivative Info.                !
 --------------------------------------------------------------------------------
 ! R1    R(1,2)                  1.4059         estimate D2E/DX2                !
 ! R2    R(1,6)                  1.4059         estimate D2E/DX2                !
 ! R3    R(2,3)                  1.4059         estimate D2E/DX2                !
 ! R4    R(2,8)                  1.7655         estimate D2E/DX2                !
 ! R5    R(3,4)                  1.4059         estimate D2E/DX2                !
 ! R6    R(3,9)                  1.7655         estimate D2E/DX2                !
 ! R7    R(4,5)                  1.4059         estimate D2E/DX2                !
 ! R8    R(4,10)                 1.7655         estimate D2E/DX2                !
 ! R9    R(5,6)                  1.4059         estimate D2E/DX2                !
 ! R10   R(5,11)                 1.7655         estimate D2E/DX2                !
 ! R11   R(6,7)                  1.7655         estimate D2E/DX2                !
 ! A1    A(2,1,6)              119.9999         estimate D2E/DX2                !
 ! A2    A(1,2,3)              120.0            estimate D2E/DX2                !
 ! A3    A(1,2,8)              120.0001         estimate D2E/DX2                !
 ! A4    A(3,2,8)              119.9999         estimate D2E/DX2                !
 ! A5    A(2,3,4)              120.0001         estimate D2E/DX2                !
 ! A6    A(2,3,9)              120.0            estimate D2E/DX2                !
 ! A7    A(4,3,9)              119.9999         estimate D2E/DX2                !
 ! A8    A(3,4,5)              119.9997         estimate D2E/DX2                !
 ! A9    A(3,4,10)             120.0003         estimate D2E/DX2                !
 ! A10   A(5,4,10)             120.0            estimate D2E/DX2                !
 ! A11   A(4,5,6)              120.0            estimate D2E/DX2                !
 ! A12   A(4,5,11)             119.9996         estimate D2E/DX2                !
 ! A13   A(6,5,11)             120.0004         estimate D2E/DX2                !
 ! A14   A(1,6,5)              120.0003         estimate D2E/DX2                !
 ! A15   A(1,6,7)              119.9999         estimate D2E/DX2                !
 ! A16   A(5,6,7)              119.9998         estimate D2E/DX2                !
 ! D1    D(6,1,2,3)              0.0            estimate D2E/DX2                !
 ! D2    D(6,1,2,8)            180.0            estimate D2E/DX2                !
 ! D3    D(2,1,6,5)              0.0            estimate D2E/DX2                !
 ! D4    D(2,1,6,7)            180.0            estimate D2E/DX2                !
 ! D5    D(1,2,3,4)              0.0            estimate D2E/DX2                !
 ! D6    D(1,2,3,9)            180.0            estimate D2E/DX2                !
 ! D7    D(8,2,3,4)            180.0            estimate D2E/DX2                !
 ! D8    D(8,2,3,9)              0.0            estimate D2E/DX2                !
 ! D9    D(2,3,4,5)              0.0            estimate D2E/DX2                !
 ! D10   D(2,3,4,10)           180.0            estimate D2E/DX2                !
 ! D11   D(9,3,4,5)            180.0            estimate D2E/DX2                !
 ! D12   D(9,3,4,10)             0.0            estimate D2E/DX2                !
 ! D13   D(3,4,5,6)              0.0            estimate D2E/DX2                !
 ! D14   D(3,4,5,11)           180.0            estimate D2E/DX2                !
 ! D15   D(10,4,5,6)           180.0            estimate D2E/DX2                !
 ! D16   D(10,4,5,11)            0.0            estimate D2E/DX2                !
 ! D17   D(4,5,6,1)              0.0            estimate D2E/DX2                !
 ! D18   D(4,5,6,7)            180.0            estimate D2E/DX2                !
 ! D19   D(11,5,6,1)           180.0            estimate D2E/DX2                !
 ! D20   D(11,5,6,7)             0.0            estimate D2E/DX2                !
 --------------------------------------------------------------------------------
 Trust Radius=3.00D-01 FncErr=1.00D-07 GrdErr=1.00D-07 EigMax=2.50D+02 EigMin=1.00D-04
 Number of steps in this run=     57 maximum allowed number of steps=    100.
 GradGradGradGradGradGradGradGradGradGradGradGradGradGradGradGradGradGrad

                          Input orientation:                          
 ---------------------------------------------------------------------
 Center     Atomic      Atomic             Coordinates (Angstroms)
 Number     Number       Type             X           Y           Z
 ---------------------------------------------------------------------
      1          6           0       -3.209280    0.199430    0.000000
      2          6           0       -2.011500    0.935550    0.000000
      3          6           0       -0.775110    0.266300    0.000000
      4          6           0       -0.736500   -1.139070    0.000000
      5          6           0       -1.934290   -1.875190    0.000000
      6          6           0       -3.170670   -1.205940    0.000000
      7         17           0       -4.674830   -2.130350    0.000000
      8          1           0       -2.059980    2.700400    0.000000
      9         17           0        0.729050    1.190710    0.000000
     10          1           0        0.816140   -1.979510    0.000000
     11          1           0       -1.885800   -3.640030    0.000000
 ---------------------------------------------------------------------
                    Distance matrix (angstroms):
                    1          2          3          4          5
     1  C    0.000000
     2  C    1.405898   0.000000
     3  C    2.435088   1.405900   0.000000
     4  C    2.811801   2.435092   1.405900   0.000000
     5  C    2.435087   2.811800   2.435093   1.405907   0.000000
     6  C    1.405900   2.435088   2.811796   2.435088   1.405892
     7  Cl   2.752401   4.061166   4.577308   4.061167   2.752393
     8  H    2.752406   1.765516   2.752405   4.061173   4.577316
     9  Cl   4.061167   2.752403   1.765512   2.752401   4.061173
    10  H    4.577312   4.061173   2.752406   1.765511   2.752408
    11  H    4.061164   4.577306   4.061163   2.752397   1.765506
                    6          7          8          9         10
     6  C    0.000000
     7  Cl   1.765512   0.000000
     8  H    4.061173   5.493049   0.000000
     9  Cl   4.577308   6.342819   3.171412   0.000000
    10  H    4.061165   5.493041   5.493052   3.171416   0.000000
    11  H    2.752396   3.171407   6.342822   5.493040   3.171404
                   11
    11  H    0.000000
 Stoichiometry    C6H3Cl2(2)
 Framework group  CS[SG(C6H3Cl2)]
 Deg. of freedom    19
 Full point group                 CS      NOp   2
 Largest Abelian subgroup         CS      NOp   2
 Largest concise Abelian subgroup C1      NOp   1
                         Standard orientation:                         
 ---------------------------------------------------------------------
 Center     Atomic      Atomic             Coordinates (Angstroms)
 Number     Number       Type             X           Y           Z
 ---------------------------------------------------------------------
      1          6           0       -0.000000   -1.449344    0.000000
      2          6           0       -1.217544   -0.746396    0.000000
      3          6           0       -1.217544    0.659505    0.000000
      4          6           0       -0.000000    1.362457    0.000000
      5          6           0        1.217549    0.659500    0.000000
      6          6           0        1.217544   -0.746391    0.000000
      7         17           0        2.746522   -1.629147    0.000000
      8          1           0       -2.746527   -1.629151    0.000000
      9         17           0       -2.746522    1.542261    0.000000
     10          1           0        0.000005    3.127969    0.000000
     11          1           0        2.746518    1.542260    0.000000
 ---------------------------------------------------------------------
 Rotational constants (GHZ):           5.3831333           0.6461066           0.5768684
 Standard basis: VSTO-6G (5D, 7F)
 There are    27 symmetry adapted cartesian basis functions of A'  symmetry.
 There are     8 symmetry adapted cartesian basis functions of A"  symmetry.
 There are    27 symmetry adapted basis functions of A'  symmetry.
 There are     8 symmetry adapted basis functions of A"  symmetry.
    35 basis functions,   210 primitive gaussians,    35 cartesian basis functions
    21 alpha electrons       20 beta electrons
       nuclear repulsion energy       190.1619243761 Hartrees.
 Integral buffers will be    131072 words long.
 Regular integral format.
 Two-electron integral symmetry is turned off.
 Do NDO integrals.
 One-electron integrals computed using PRISM.
 NBasis=    35 RedAO= T EigKep=  1.00D+00  NBF=    27     8
 NBsUse=    35 1.00D-06 EigRej= -1.00D+00 NBFU=    27     8
 Simple Huckel Guess.
 Initial guess orbital symmetries:
 Alpha Orbitals:
       Occupied  (A') (A') (A') (A') (A') (A') (A') (A') (A") (A')
                 (A') (A') (A') (A") (A') (A") (A") (A') (A') (A")
                 (A')
       Virtual   (A') (A") (A") (A') (A') (A") (A') (A') (A') (A')
                 (A') (A') (A') (A')
 Beta  Orbitals:
       Occupied  (A') (A') (A') (A') (A') (A') (A') (A') (A") (A')
                 (A') (A') (A') (A") (A') (A") (A") (A') (A') (A")
       Virtual   (A') (A') (A") (A") (A') (A') (A") (A') (A') (A')
                 (A') (A') (A') (A') (A')
 The electronic state of the initial guess is 2-A'.
 Initial guess <Sx>= 0.0000 <Sy>= 0.0000 <Sz>= 0.5000 <S**2>= 0.7500 S= 0.5000
 Keep J ints in memory in canonical form, NReq=862793.
 Overlap will be assumed to be unity.
 Requested convergence on RMS density matrix=1.00D-08 within  32 cycles.
 Requested convergence on MAX density matrix=1.00D-06.
 Requested convergence on             energy=1.00D-06.
 No special actions if energy rises.
 Fock symm off for IB=2 I1=    1 I=   28 J=   27 Cut=1.00D-07 Err=4.70D-03
 Fock matrix is not symmetric: symmetry in diagonalization turned off.
 Rare condition: small coef for last iteration:  0.000D+00
 Rare condition: small coef for last iteration:  0.000D+00
 Rare condition: small coef for last iteration:  0.000D+00
 Rare condition: small coef for last iteration:  0.000D+00
 Rare condition: small coef for last iteration:  0.000D+00
 Rare condition: small coef for last iteration:  0.000D+00
 >>>>>>>>>> Convergence criterion not met.
 SCF Done:  E(UAM1) =  0.477474271397     A.U. after   33 cycles
            NFock= 32  Conv=0.21D-05     -V/T= 1.0053
 <Sx>= 0.0000 <Sy>= 0.0000 <Sz>= 0.5000 <S**2>= 1.1615 S= 0.6881
 <L.S>=  0.00000000000    
 Annihilation of the first spin contaminant:
 S**2 before annihilation     1.1615,   after     0.9134
 Keep J ints in memory in canonical form, NReq=863193.
 LinEq1:  Iter=  0 NonCon=     1 RMS=1.23D-07 Max=1.41D-06 NDo=     1
 AX will form     1 AO Fock derivatives at one time.
 LinEq1:  Iter=  1 NonCon=     1 RMS=1.98D-08 Max=1.38D-07 NDo=     1
 LinEq1:  Iter=  2 NonCon=     1 RMS=6.10D-09 Max=5.66D-08 NDo=     1
 LinEq1:  Iter=  3 NonCon=     1 RMS=2.15D-09 Max=2.55D-08 NDo=     1
 LinEq1:  Iter=  4 NonCon=     1 RMS=5.69D-10 Max=8.06D-09 NDo=     1
 LinEq1:  Iter=  5 NonCon=     1 RMS=1.62D-10 Max=1.13D-09 NDo=     1
 LinEq1:  Iter=  6 NonCon=     1 RMS=4.80D-11 Max=3.01D-10 NDo=     1
 LinEq1:  Iter=  7 NonCon=     1 RMS=1.41D-11 Max=1.13D-10 NDo=     1
 LinEq1:  Iter=  8 NonCon=     0 RMS=2.81D-12 Max=1.62D-11 NDo=     1
 Linear equations converged to 1.302D-11 1.302D-10 after     8 iterations.
 Incorrect curvature in search direction -- initial direction reversed.
     Minimum is close to point 10 DX=  0.00D+00 DF=  0.00D+00 DXR=  0.00D+00 DFR=  0.00D+00 which will be used.
 LinEq1:  Iter=  0 NonCon=     1 RMS=3.67D-05 Max=4.72D-04 NDo=     1
 LinEq1:  Iter=  1 NonCon=     1 RMS=9.15D-06 Max=6.19D-05 NDo=     1
 LinEq1:  Iter=  2 NonCon=     1 RMS=3.07D-06 Max=2.24D-05 NDo=     1
 LinEq1:  Iter=  3 NonCon=     1 RMS=1.04D-06 Max=1.17D-05 NDo=     1
 LinEq1:  Iter=  4 NonCon=     1 RMS=3.05D-07 Max=3.15D-06 NDo=     1
 LinEq1:  Iter=  5 NonCon=     1 RMS=5.92D-08 Max=3.70D-07 NDo=     1
 LinEq1:  Iter=  6 NonCon=     1 RMS=1.74D-08 Max=1.05D-07 NDo=     1
 LinEq1:  Iter=  7 NonCon=     1 RMS=5.02D-09 Max=4.20D-08 NDo=     1
 LinEq1:  Iter=  8 NonCon=     0 RMS=1.32D-09 Max=1.27D-08 NDo=     1
 Linear equations converged to 2.437D-09 2.437D-08 after     8 iterations.
 Incorrect curvature in search direction -- initial direction reversed.
 LinEq1:  Iter=  0 NonCon=     1 RMS=1.49D-04 Max=2.02D-03 NDo=     1
 LinEq1:  Iter=  1 NonCon=     1 RMS=4.07D-05 Max=3.42D-04 NDo=     1
 LinEq1:  Iter=  2 NonCon=     1 RMS=1.24D-05 Max=9.67D-05 NDo=     1
 LinEq1:  Iter=  3 NonCon=     1 RMS=4.15D-06 Max=5.34D-05 NDo=     1
 LinEq1:  Iter=  4 NonCon=     1 RMS=1.34D-06 Max=1.33D-05 NDo=     1
 LinEq1:  Iter=  5 NonCon=     1 RMS=2.10D-07 Max=1.19D-06 NDo=     1
 LinEq1:  Iter=  6 NonCon=     1 RMS=6.06D-08 Max=3.73D-07 NDo=     1
 LinEq1:  Iter=  7 NonCon=     1 RMS=1.46D-08 Max=8.42D-08 NDo=     1
 LinEq1:  Iter=  8 NonCon=     1 RMS=2.53D-09 Max=1.79D-08 NDo=     1
 LinEq1:  Iter=  9 NonCon=     0 RMS=6.79D-10 Max=5.39D-09 NDo=     1
 Linear equations converged to 2.437D-09 2.437D-08 after     9 iterations.
 Incorrect curvature in search direction -- initial direction reversed.
     Accept linear search using points  1 and  2.
 LinEq1:  Iter=  0 NonCon=     1 RMS=2.54D-04 Max=3.66D-03 NDo=     1
 LinEq1:  Iter=  1 NonCon=     1 RMS=6.72D-05 Max=6.38D-04 NDo=     1
 LinEq1:  Iter=  2 NonCon=     1 RMS=1.88D-05 Max=1.54D-04 NDo=     1
 LinEq1:  Iter=  3 NonCon=     1 RMS=5.69D-06 Max=6.01D-05 NDo=     1
 LinEq1:  Iter=  4 NonCon=     1 RMS=1.88D-06 Max=1.73D-05 NDo=     1
 LinEq1:  Iter=  5 NonCon=     1 RMS=2.97D-07 Max=1.82D-06 NDo=     1
 LinEq1:  Iter=  6 NonCon=     1 RMS=9.51D-08 Max=6.33D-07 NDo=     1
 LinEq1:  Iter=  7 NonCon=     1 RMS=2.40D-08 Max=1.24D-07 NDo=     1
 LinEq1:  Iter=  8 NonCon=     1 RMS=4.63D-09 Max=3.93D-08 NDo=     1
 LinEq1:  Iter=  9 NonCon=     0 RMS=1.08D-09 Max=9.17D-09 NDo=     1
 Linear equations converged to 2.437D-09 2.437D-08 after     9 iterations.
     Accept linear search using points  1 and  2.
 LinEq1:  Iter=  0 NonCon=     1 RMS=6.39D-05 Max=8.98D-04 NDo=     1
 LinEq1:  Iter=  1 NonCon=     1 RMS=1.78D-05 Max=2.11D-04 NDo=     1
 LinEq1:  Iter=  2 NonCon=     1 RMS=5.34D-06 Max=4.55D-05 NDo=     1
 LinEq1:  Iter=  3 NonCon=     1 RMS=1.58D-06 Max=1.48D-05 NDo=     1
 LinEq1:  Iter=  4 NonCon=     1 RMS=4.89D-07 Max=3.53D-06 NDo=     1
 LinEq1:  Iter=  5 NonCon=     1 RMS=5.73D-08 Max=3.70D-07 NDo=     1
 LinEq1:  Iter=  6 NonCon=     1 RMS=2.03D-08 Max=1.15D-07 NDo=     1
 LinEq1:  Iter=  7 NonCon=     1 RMS=5.86D-09 Max=3.71D-08 NDo=     1
 LinEq1:  Iter=  8 NonCon=     0 RMS=1.06D-09 Max=5.42D-09 NDo=     1
 Linear equations converged to 2.437D-09 2.437D-08 after     8 iterations.
     Minimum is close to point  2 DX=  4.85D-02 DF= -1.10D-08 DXR=  4.62D-02 DFR=  2.14D-03 which will be used.
 LinEq1:  Iter=  0 NonCon=     1 RMS=5.31D-06 Max=2.31D-05 NDo=     1
 LinEq1:  Iter=  1 NonCon=     1 RMS=1.55D-06 Max=1.36D-05 NDo=     1
 LinEq1:  Iter=  2 NonCon=     1 RMS=4.81D-07 Max=4.15D-06 NDo=     1
 LinEq1:  Iter=  3 NonCon=     1 RMS=1.55D-07 Max=1.22D-06 NDo=     1
 LinEq1:  Iter=  4 NonCon=     1 RMS=3.13D-08 Max=3.39D-07 NDo=     1
 LinEq1:  Iter=  5 NonCon=     1 RMS=7.32D-09 Max=4.95D-08 NDo=     1
 LinEq1:  Iter=  6 NonCon=     1 RMS=1.94D-09 Max=1.56D-08 NDo=     1
 LinEq1:  Iter=  7 NonCon=     0 RMS=5.59D-10 Max=3.96D-09 NDo=     1
 Linear equations converged to 1.189D-09 1.189D-08 after     7 iterations.
     Accept linear search using points  1 and  2.
     Minimum is close to point  2 DX= -1.75D-03 DF= -1.20D-13 DXR=  1.75D-03 DFR=  3.05D-06 which will be used.
 LinEq1:  Iter=  0 NonCon=     1 RMS=9.20D-07 Max=6.59D-06 NDo=     1
 LinEq1:  Iter=  1 NonCon=     1 RMS=3.92D-07 Max=4.13D-06 NDo=     1
 LinEq1:  Iter=  2 NonCon=     1 RMS=9.64D-08 Max=6.40D-07 NDo=     1
 LinEq1:  Iter=  3 NonCon=     1 RMS=2.26D-08 Max=1.93D-07 NDo=     1
 LinEq1:  Iter=  4 NonCon=     1 RMS=4.97D-09 Max=3.42D-08 NDo=     1
 LinEq1:  Iter=  5 NonCon=     1 RMS=1.46D-09 Max=1.06D-08 NDo=     1
 LinEq1:  Iter=  6 NonCon=     1 RMS=4.63D-10 Max=3.32D-09 NDo=     1
 LinEq1:  Iter=  7 NonCon=     1 RMS=1.35D-10 Max=9.51D-10 NDo=     1
 LinEq1:  Iter=  8 NonCon=     0 RMS=2.43D-11 Max=1.62D-10 NDo=     1
 Linear equations converged to 1.283D-10 1.283D-09 after     8 iterations.
 LinEq1:  Iter=  0 NonCon=     1 RMS=1.21D-07 Max=8.04D-07 NDo=     1
 LinEq1:  Iter=  1 NonCon=     1 RMS=3.93D-08 Max=4.26D-07 NDo=     1
 LinEq1:  Iter=  2 NonCon=     1 RMS=1.21D-08 Max=9.93D-08 NDo=     1
 LinEq1:  Iter=  3 NonCon=     1 RMS=3.19D-09 Max=3.03D-08 NDo=     1
 LinEq1:  Iter=  4 NonCon=     1 RMS=8.67D-10 Max=7.42D-09 NDo=     1
 LinEq1:  Iter=  5 NonCon=     1 RMS=2.16D-10 Max=1.85D-09 NDo=     1
 LinEq1:  Iter=  6 NonCon=     1 RMS=6.30D-11 Max=3.60D-10 NDo=     1
 LinEq1:  Iter=  7 NonCon=     0 RMS=1.57D-11 Max=9.98D-11 NDo=     1
 Linear equations converged to 1.975D-11 1.975D-10 after     7 iterations.
 LinEq1:  Iter=  0 NonCon=     1 RMS=2.42D-08 Max=1.53D-07 NDo=     1
 LinEq1:  Iter=  1 NonCon=     1 RMS=8.90D-09 Max=7.74D-08 NDo=     1
 LinEq1:  Iter=  2 NonCon=     1 RMS=2.67D-09 Max=1.83D-08 NDo=     1
 LinEq1:  Iter=  3 NonCon=     1 RMS=7.43D-10 Max=6.40D-09 NDo=     1
 LinEq1:  Iter=  4 NonCon=     1 RMS=1.82D-10 Max=1.23D-09 NDo=     1
 LinEq1:  Iter=  5 NonCon=     1 RMS=4.67D-11 Max=3.30D-10 NDo=     1
 LinEq1:  Iter=  6 NonCon=     1 RMS=1.18D-11 Max=1.05D-10 NDo=     1
 LinEq1:  Iter=  7 NonCon=     0 RMS=3.82D-12 Max=2.95D-11 NDo=     1
 Linear equations converged to 4.358D-12 4.358D-11 after     7 iterations.
 SCF Done:  E(UAM1) =  0.477381899972     a.u. after   10 cycles
            Convg  =    0.1082D-06                   101 Fock formations.
              S**2 =  1.4369                  -V/T =  1.0053
 <Sx>= 0.0000 <Sy>= 0.0000 <Sz>= 0.5000 <S**2>= 1.4369 S= 0.7988
 <L.S>=  0.00000000000    
 Annihilation of the first spin contaminant:
 S**2 before annihilation     1.4369,   after     1.3496

 **********************************************************************

            Population analysis using the SCF Density.

 **********************************************************************

 Orbital symmetries:
 Alpha Orbitals:
       Occupied  (A') (A') (A') (A') (A') (A') (A') (A') (A') (A')
                 (A") (A") (A') (A') (A') (A") (A') (A') (A") (A')
                 (A")
       Virtual   (A") (A') (A') (A") (A') (A') (A') (A") (A') (A')
                 (A') (A') (A') (A')
 Beta  Orbitals:
       Occupied  (A') (A') (A') (A') (A') (A') (A') (A') (A') (A')
                 (A") (A") (A') (A') (A') (A") (A') (A') (A") (A")
       Virtual   (A') (A') (A") (A') (A") (A') (A') (A') (A") (A')
                 (A') (A') (A') (A') (A')
 The electronic state is 2-A'.
 Alpha  occ. eigenvalues --   -1.42461  -1.37646  -1.35388  -1.12345  -1.10278
 Alpha  occ. eigenvalues --   -0.83825  -0.81058  -0.60425  -0.60074  -0.59476
 Alpha  occ. eigenvalues --   -0.53441  -0.48587  -0.45830  -0.45137  -0.44839
 Alpha  occ. eigenvalues --   -0.43620  -0.43061  -0.42939  -0.37552  -0.37317
 Alpha  occ. eigenvalues --   -0.35359
 Alpha virt. eigenvalues --   -0.00581  -0.00021   0.00942   0.01114   0.02755
 Alpha virt. eigenvalues --    0.03137   0.05028   0.08734   0.14131   0.14618
 Alpha virt. eigenvalues --    0.16351   0.16938   0.17745   0.19181
  Beta  occ. eigenvalues --   -1.41731  -1.37554  -1.35080  -1.11714  -1.08109
  Beta  occ. eigenvalues --   -0.83117  -0.79047  -0.59502  -0.59124  -0.58482
  Beta  occ. eigenvalues --   -0.53098  -0.48596  -0.45296  -0.44585  -0.43711
  Beta  occ. eigenvalues --   -0.43326  -0.42982  -0.39724  -0.36543  -0.34946
  Beta virt. eigenvalues --   -0.03273  -0.01102  -0.00192   0.01696   0.02247
  Beta virt. eigenvalues --    0.03141   0.03905   0.05527   0.09546   0.14778
  Beta virt. eigenvalues --    0.15158   0.17279   0.17989   0.18584   0.20356
          Condensed to atoms (all electrons):
               1          2          3          4          5          6
     1  C    3.995407   0.000000   0.000000   0.000000   0.000000   0.000000
     2  C    0.000000   4.162736   0.000000   0.000000   0.000000   0.000000
     3  C    0.000000   0.000000   4.033402   0.000000   0.000000   0.000000
     4  C    0.000000   0.000000   0.000000   4.141704   0.000000   0.000000
     5  C    0.000000   0.000000   0.000000   0.000000   4.114958   0.000000
     6  C    0.000000   0.000000   0.000000   0.000000   0.000000   4.058522
     7  Cl   0.000000   0.000000   0.000000   0.000000   0.000000   0.000000
     8  H    0.000000   0.000000   0.000000   0.000000   0.000000   0.000000
     9  Cl   0.000000   0.000000   0.000000   0.000000   0.000000   0.000000
    10  H    0.000000   0.000000   0.000000   0.000000   0.000000   0.000000
    11  H    0.000000   0.000000   0.000000   0.000000   0.000000   0.000000
               7          8          9         10         11
     1  C    0.000000   0.000000   0.000000   0.000000   0.000000
     2  C    0.000000   0.000000   0.000000   0.000000   0.000000
     3  C    0.000000   0.000000   0.000000   0.000000   0.000000
     4  C    0.000000   0.000000   0.000000   0.000000   0.000000
     5  C    0.000000   0.000000   0.000000   0.000000   0.000000
     6  C    0.000000   0.000000   0.000000   0.000000   0.000000
     7  Cl   7.024714   0.000000   0.000000   0.000000   0.000000
     8  H    0.000000   0.785465   0.000000   0.000000   0.000000
     9  Cl   0.000000   0.000000   7.035662   0.000000   0.000000
    10  H    0.000000   0.000000   0.000000   0.815922   0.000000
    11  H    0.000000   0.000000   0.000000   0.000000   0.831507
          Atomic-Atomic Spin Densities.
               1          2          3          4          5          6
     1  C    0.680454   0.000000   0.000000   0.000000   0.000000   0.000000
     2  C    0.000000   0.569147   0.000000   0.000000   0.000000   0.000000
     3  C    0.000000   0.000000  -0.330626   0.000000   0.000000   0.000000
     4  C    0.000000   0.000000   0.000000   0.707307   0.000000   0.000000
     5  C    0.000000   0.000000   0.000000   0.000000  -0.756515   0.000000
     6  C    0.000000   0.000000   0.000000   0.000000   0.000000   0.307773
     7  Cl   0.000000   0.000000   0.000000   0.000000   0.000000   0.000000
     8  H    0.000000   0.000000   0.000000   0.000000   0.000000   0.000000
     9  Cl   0.000000   0.000000   0.000000   0.000000   0.000000   0.000000
    10  H    0.000000   0.000000   0.000000   0.000000   0.000000   0.000000
    11  H    0.000000   0.000000   0.000000   0.000000   0.000000   0.000000
               7          8          9         10         11
     1  C    0.000000   0.000000   0.000000   0.000000   0.000000
     2  C    0.000000   0.000000   0.000000   0.000000   0.000000
     3  C    0.000000   0.000000   0.000000   0.000000   0.000000
     4  C    0.000000   0.000000   0.000000   0.000000   0.000000
     5  C    0.000000   0.000000   0.000000   0.000000   0.000000
     6  C    0.000000   0.000000   0.000000   0.000000   0.000000
     7  Cl   0.003626   0.000000   0.000000   0.000000   0.000000
     8  H    0.000000  -0.279971   0.000000   0.000000   0.000000
     9  Cl   0.000000   0.000000   0.011925   0.000000   0.000000
    10  H    0.000000   0.000000   0.000000  -0.373293   0.000000
    11  H    0.000000   0.000000   0.000000   0.000000   0.460173
 Mulliken charges and spin densities:
               1          2
     1  C    0.004593   0.680454
     2  C   -0.162736   0.569147
     3  C   -0.033402  -0.330626
     4  C   -0.141704   0.707307
     5  C   -0.114958  -0.756515
     6  C   -0.058522   0.307773
     7  Cl  -0.024714   0.003626
     8  H    0.214535  -0.279971
     9  Cl  -0.035662   0.011925
    10  H    0.184078  -0.373293
    11  H    0.168493   0.460173
 Sum of Mulliken charges =  -0.00000   1.00000
 Mulliken charges and spin densities with hydrogens summed into heavy atoms:
               1          2
     1  C    0.004593   0.680454
     2  C    0.051798   0.289176
     3  C   -0.033402  -0.330626
     4  C    0.042374   0.334014
     5  C    0.053535  -0.296342
     6  C   -0.058522   0.307773
     7  Cl  -0.024714   0.003626
     9  Cl  -0.035662   0.011925
 Charge=              0.0000 electrons
 Dipole moment (field-independent basis, Debye):
    X=             -0.3242    Y=              1.5872    Z=              0.0000  Tot=              1.6200
 N-N= 1.901619243761D+02 E-N=-2.606676897253D+02  KE=-9.003216136355D+01
 Symmetry A'   KE=-6.960829455616D+01
 Symmetry A"   KE=-2.042386680739D+01
 Symmetry A'   SP= 1.000000000000D+00
 Symmetry A"   SP= 0.000000000000D+00
 Calling FoFJK, ICntrl=      2127 FMM=F ISym2X=1 I1Cent= 0 IOpClX= 1 NMat=1 NMatS=1 NMatT=0.
 ***** Axes restored to original set *****
 -------------------------------------------------------------------
 Center     Atomic                   Forces (Hartrees/Bohr)
 Number     Number              X              Y              Z
 -------------------------------------------------------------------
      1        6           0.071357773   -0.018638050   -0.000000000
      2        6          -0.030654485    0.075047681    0.000000000
      3        6           0.017082138    0.008240157    0.000000000
      4        6           0.043457752   -0.047278923    0.000000000
      5        6           0.023866413   -0.048754287    0.000000000
      6        6          -0.033180656   -0.006200594    0.000000000
      7       17           0.032516195    0.019486681    0.000000000
      8        1           0.003095138   -0.109823404   -0.000000000
      9       17          -0.032396763   -0.019346791    0.000000000
     10        1          -0.091711821    0.050273898   -0.000000000
     11        1          -0.003431684    0.096993632   -0.000000000
 -------------------------------------------------------------------
 Cartesian Forces:  Max     0.109823404 RMS     0.041146607

 GradGradGradGradGradGradGradGradGradGradGradGradGradGradGradGradGradGrad
 Berny optimization.
 FormGI is forming the generalized inverse of G from B-inverse, IUseBI=4.
 Internal  Forces:  Max     0.109866982 RMS     0.031049582
 Search for a local minimum.
 Step number   1 out of a maximum of   57
 All quantities printed in internal units (Hartrees-Bohrs-Radians)
 Mixed Optimization -- RFO/linear search
 Second derivative matrix not updated -- first step.
 ITU=  0
     Eigenvalues ---    0.02011   0.02011   0.02011   0.02011   0.02011
     Eigenvalues ---    0.02011   0.02011   0.02011   0.06524   0.06524
     Eigenvalues ---    0.06524   0.16000   0.16000   0.16000   0.22319
     Eigenvalues ---    0.23429   0.24560   0.25000   0.25000   0.29033
     Eigenvalues ---    0.29033   0.40927   0.41421   0.44656   0.44657
     Eigenvalues ---    0.44657   0.44657
 RFO step:  Lambda=-1.64653851D-01 EMin= 2.01065791D-02
 Linear search not attempted -- first point.
 Maximum step size (   0.300) exceeded in Quadratic search.
    -- Step size scaled by   0.370
 Iteration  1 RMS(Cart)=  0.04903975 RMS(Int)=  0.00006596
 Iteration  2 RMS(Cart)=  0.00010904 RMS(Int)=  0.00001189
 Iteration  3 RMS(Cart)=  0.00000001 RMS(Int)=  0.00001189
 ClnCor:  largest displacement from symmetrization is 5.65D-09 for atom     7.
 Variable       Old X    -DE/DX   Delta X   Delta X   Delta X     New X
                                 (Linear)    (Quad)   (Total)
    R1        2.65676  -0.05448   0.00000  -0.03303  -0.03302   2.62374
    R2        2.65677  -0.03853   0.00000  -0.02345  -0.02343   2.63334
    R3        2.65677  -0.02886   0.00000  -0.01739  -0.01740   2.63937
    R4        3.33634  -0.10987   0.00000  -0.17676  -0.17676   3.15959
    R5        2.65677  -0.02675   0.00000  -0.01605  -0.01607   2.64070
    R6        3.33633  -0.03773   0.00000  -0.03067  -0.03067   3.30566
    R7        2.65678  -0.04561   0.00000  -0.02754  -0.02755   2.62923
    R8        3.33633  -0.10459   0.00000  -0.16826  -0.16826   3.16807
    R9        2.65675  -0.02817   0.00000  -0.01712  -0.01711   2.63964
   R10        3.33632  -0.09705   0.00000  -0.15614  -0.15614   3.18019
   R11        3.33633  -0.03791   0.00000  -0.03081  -0.03081   3.30552
    A1        2.09439   0.02123   0.00000   0.01843   0.01847   2.11287
    A2        2.09439  -0.00479   0.00000  -0.00463  -0.00462   2.08977
    A3        2.09440   0.00253   0.00000   0.00246   0.00246   2.09686
    A4        2.09439   0.00226   0.00000   0.00217   0.00216   2.09656
    A5        2.09440  -0.00859   0.00000  -0.00738  -0.00740   2.08699
    A6        2.09440   0.00349   0.00000   0.00298   0.00299   2.09738
    A7        2.09439   0.00510   0.00000   0.00440   0.00442   2.09881
    A8        2.09439   0.00520   0.00000   0.00529   0.00526   2.09965
    A9        2.09440  -0.00353   0.00000  -0.00370  -0.00368   2.09072
   A10        2.09440  -0.00168   0.00000  -0.00159  -0.00158   2.09282
   A11        2.09439   0.00468   0.00000   0.00445   0.00444   2.09883
   A12        2.09439  -0.00106   0.00000  -0.00077  -0.00076   2.09363
   A13        2.09440  -0.00362   0.00000  -0.00368  -0.00368   2.09073
   A14        2.09440  -0.01773   0.00000  -0.01616  -0.01614   2.07826
   A15        2.09439   0.00957   0.00000   0.00871   0.00870   2.10309
   A16        2.09439   0.00816   0.00000   0.00745   0.00744   2.10183
    D1        0.00000  -0.00000   0.00000  -0.00000   0.00000   0.00000
    D2        3.14159  -0.00000   0.00000  -0.00000   0.00000   3.14159
    D3        0.00000  -0.00000   0.00000  -0.00000   0.00000   0.00000
    D4        3.14159  -0.00000   0.00000  -0.00000   0.00000   3.14159
    D5        0.00000   0.00000   0.00000   0.00000   0.00000   0.00000
    D6        3.14159   0.00000   0.00000   0.00000   0.00000   3.14159
    D7        3.14159   0.00000   0.00000   0.00000   0.00000   3.14159
    D8        0.00000   0.00000   0.00000   0.00000   0.00000   0.00000
    D9        0.00000  -0.00000   0.00000  -0.00000   0.00000   0.00000
   D10        3.14159  -0.00000   0.00000  -0.00000   0.00000   3.14159
   D11        3.14159  -0.00000   0.00000  -0.00000   0.00000   3.14159
   D12        0.00000  -0.00000   0.00000  -0.00000   0.00000   0.00000
   D13        0.00000  -0.00000   0.00000  -0.00000   0.00000   0.00000
   D14        3.14159  -0.00000   0.00000  -0.00000   0.00000   3.14159
   D15        3.14159   0.00000   0.00000   0.00000   0.00000   3.14159
   D16        0.00000   0.00000   0.00000   0.00000   0.00000   0.00000
   D17        0.00000   0.00000   0.00000   0.00000   0.00000   0.00000
   D18        3.14159   0.00000   0.00000   0.00000   0.00000   3.14159
   D19        3.14159   0.00000   0.00000   0.00000   0.00000   3.14159
   D20        0.00000   0.00000   0.00000   0.00000   0.00000   0.00000
         Item               Value     Threshold  Converged?
 Maximum Force            0.109867     0.000450     NO 
 RMS     Force            0.031050     0.000300     NO 
 Maximum Displacement     0.203110     0.001800     NO 
 RMS     Displacement     0.049057     0.001200     NO 
 Predicted change in Energy=-5.704564D-02
 GradGradGradGradGradGradGradGradGradGradGradGradGradGradGradGradGradGrad

                          Input orientation:                          
 ---------------------------------------------------------------------
 Center     Atomic      Atomic             Coordinates (Angstroms)
 Number     Number       Type             X           Y           Z
 ---------------------------------------------------------------------
      1          6           0       -3.179989    0.186514    0.000000
      2          6           0       -2.002243    0.921797    0.000000
      3          6           0       -0.772347    0.259899    0.000000
      4          6           0       -0.740939   -1.137144    0.000000
      5          6           0       -1.926110   -1.865954    0.000000
      6          6           0       -3.157643   -1.206808    0.000000
      7         17           0       -4.650407   -2.118608    0.000000
      8          1           0       -2.055809    2.592919    0.000000
      9         17           0        0.718509    1.174959    0.000000
     10          1           0        0.732356   -1.937121    0.000000
     11          1           0       -1.878149   -3.548153    0.000000
 ---------------------------------------------------------------------
                    Distance matrix (angstroms):
                    1          2          3          4          5
     1  C    0.000000
     2  C    1.388426   0.000000
     3  C    2.408760   1.396694   0.000000
     4  C    2.775074   2.414566   1.397397   0.000000
     5  C    2.405169   2.788790   2.418765   1.391328   0.000000
     6  C    1.393501   2.421963   2.800155   2.417708   1.396835
     7  Cl   2.734175   4.031976   4.549357   4.030783   2.735988
     8  H    2.656043   1.671981   2.662754   3.955030   4.460759
     9  Cl   4.021854   2.732505   1.749281   2.734193   4.030032
    10  H    4.451547   3.956191   2.662899   1.676473   2.659418
    11  H    3.955063   4.471671   3.965357   2.665747   1.682882
                    6          7          8          9         10
     6  C    0.000000
     7  Cl   1.749206   0.000000
     8  H    3.956256   5.378701   0.000000
     9  Cl   4.549436   6.298638   3.115679   0.000000
    10  H    3.957961   5.385821   5.319317   3.112111   0.000000
    11  H    2.668146   3.119137   6.143641   5.389844   3.067598
                   11
    11  H    0.000000
 Stoichiometry    C6H3Cl2(2)
 Framework group  CS[SG(C6H3Cl2)]
 Deg. of freedom    19
 Full point group                 CS      NOp   2
 Largest Abelian subgroup         CS      NOp   2
 Largest concise Abelian subgroup C1      NOp   1
                         Standard orientation:                         
 ---------------------------------------------------------------------
 Center     Atomic      Atomic             Coordinates (Angstroms)
 Number     Number       Type             X           Y           Z
 ---------------------------------------------------------------------
      1          6           0        0.000318   -1.424771    0.000000
      2          6           0       -1.207773   -0.740489    0.000000
      3          6           0       -1.212820    0.656195    0.000000
      4          6           0        0.000000    1.350303   -0.000000
      5          6           0        1.205945    0.656407   -0.000000
      6          6           0        1.214191   -0.740404   -0.000000
      7         17           0        2.727705   -1.617329   -0.000000
      8          1           0       -2.650898   -1.584829    0.000000
      9         17           0       -2.728289    1.529888    0.000000
     10          1           0        0.000184    3.026775   -0.000000
     11          1           0        2.661478    1.501104   -0.000000
 ---------------------------------------------------------------------
 Rotational constants (GHZ):           5.5513237           0.6555013           0.5862739
 Standard basis: VSTO-6G (5D, 7F)
 There are    27 symmetry adapted cartesian basis functions of A'  symmetry.
 There are     8 symmetry adapted cartesian basis functions of A"  symmetry.
 There are    27 symmetry adapted basis functions of A'  symmetry.
 There are     8 symmetry adapted basis functions of A"  symmetry.
    35 basis functions,   210 primitive gaussians,    35 cartesian basis functions
    21 alpha electrons       20 beta electrons
       nuclear repulsion energy       191.4010666461 Hartrees.
 Integral buffers will be    131072 words long.
 Regular integral format.
 Two-electron integral symmetry is turned off.
 Do NDO integrals.
 One-electron integrals computed using PRISM.
 NBasis=    35 RedAO= T EigKep=  1.00D+00  NBF=    27     8
 NBsUse=    35 1.00D-06 EigRej= -1.00D+00 NBFU=    27     8
 Initial guess from the checkpoint file:  "geometry_chks/124-1_4-ClBzNeutralRadical.chk"
 B after Tr=    -0.000000    0.000000    0.000000
         Rot=    1.000000    0.000000   -0.000000   -0.000276 Ang=  -0.03 deg.
 Initial guess orbital symmetries:
 Alpha Orbitals:
       Occupied  (A') (A') (A') (A') (A') (A') (A') (A') (A') (A')
                 (A") (A") (A') (A') (A') (A") (A') (A') (A") (A')
                 (A")
       Virtual   (A") (A') (A') (A") (A') (A') (A') (A") (A') (A')
                 (A') (A') (A') (A')
 Beta  Orbitals:
       Occupied  (A') (A') (A') (A') (A') (A') (A') (A') (A') (A')
                 (A") (A") (A') (A') (A') (A") (A') (A') (A") (A")
       Virtual   (A') (A') (A") (A') (A") (A') (A') (A') (A") (A')
                 (A') (A') (A') (A') (A')
 Initial guess <Sx>= 0.0000 <Sy>= 0.0000 <Sz>= 0.5000 <S**2>= 1.4369 S= 0.7988
 Keep J ints in memory in canonical form, NReq=862793.
 Overlap will be assumed to be unity.
 Requested convergence on RMS density matrix=1.00D-08 within  32 cycles.
 Requested convergence on MAX density matrix=1.00D-06.
 Requested convergence on             energy=1.00D-06.
 No special actions if energy rises.
 Fock symm off for IB=2 I1=    1 I=   28 J=   13 Cut=1.00D-07 Err=2.48D-03
 Fock matrix is not symmetric: symmetry in diagonalization turned off.
 Rare condition: small coef for last iteration:  0.000D+00
 Rare condition: small coef for last iteration:  0.000D+00
 Rare condition: small coef for last iteration:  0.000D+00
 Rare condition: small coef for last iteration:  0.000D+00
 Rare condition: small coef for last iteration:  0.000D+00
 Rare condition: small coef for last iteration:  0.000D+00
 Rare condition: small coef for last iteration:  0.000D+00
 Rare condition: small coef for last iteration:  0.000D+00
 Rare condition: small coef for last iteration:  0.000D+00
 Rare condition: small coef for last iteration:  0.000D+00
 Rare condition: small coef for last iteration:  0.000D+00
 Rare condition: small coef for last iteration:  0.000D+00
 Rare condition: small coef for last iteration:  0.000D+00
 Rare condition: small coef for last iteration:  0.000D+00
 Rare condition: small coef for last iteration:  0.000D+00
 >>>>>>>>>> Convergence criterion not met.
 SCF Done:  E(UAM1) =  0.411831942186     A.U. after   33 cycles
            NFock= 32  Conv=0.32D-05     -V/T= 1.0046
 <Sx>= 0.0000 <Sy>= 0.0000 <Sz>= 0.5000 <S**2>= 0.8640 S= 0.5555
 <L.S>=  0.00000000000    
 Annihilation of the first spin contaminant:
 S**2 before annihilation     0.8640,   after     0.7610
 Keep J ints in memory in canonical form, NReq=863193.
 LinEq1:  Iter=  0 NonCon=     1 RMS=4.65D-04 Max=4.45D-03 NDo=     1
 AX will form     1 AO Fock derivatives at one time.
 LinEq1:  Iter=  1 NonCon=     1 RMS=4.78D-05 Max=2.81D-04 NDo=     1
 LinEq1:  Iter=  2 NonCon=     1 RMS=1.36D-05 Max=9.10D-05 NDo=     1
 LinEq1:  Iter=  3 NonCon=     1 RMS=4.13D-06 Max=2.68D-05 NDo=     1
 LinEq1:  Iter=  4 NonCon=     1 RMS=1.00D-06 Max=9.08D-06 NDo=     1
 LinEq1:  Iter=  5 NonCon=     1 RMS=3.13D-07 Max=2.80D-06 NDo=     1
 LinEq1:  Iter=  6 NonCon=     1 RMS=5.33D-08 Max=3.53D-07 NDo=     1
 LinEq1:  Iter=  7 NonCon=     1 RMS=1.02D-08 Max=6.42D-08 NDo=     1
 LinEq1:  Iter=  8 NonCon=     1 RMS=2.46D-09 Max=2.57D-08 NDo=     1
 LinEq1:  Iter=  9 NonCon=     0 RMS=7.11D-10 Max=5.22D-09 NDo=     1
 Linear equations converged to 2.437D-09 2.437D-08 after     9 iterations.
 Incorrect curvature in search direction -- initial direction reversed.
 LinEq1:  Iter=  0 NonCon=     1 RMS=6.51D-04 Max=6.83D-03 NDo=     1
 LinEq1:  Iter=  1 NonCon=     1 RMS=1.05D-04 Max=6.75D-04 NDo=     1
 LinEq1:  Iter=  2 NonCon=     1 RMS=2.50D-05 Max=1.66D-04 NDo=     1
 LinEq1:  Iter=  3 NonCon=     1 RMS=6.41D-06 Max=4.09D-05 NDo=     1
 LinEq1:  Iter=  4 NonCon=     1 RMS=1.83D-06 Max=1.19D-05 NDo=     1
 LinEq1:  Iter=  5 NonCon=     1 RMS=5.30D-07 Max=4.33D-06 NDo=     1
 LinEq1:  Iter=  6 NonCon=     1 RMS=9.81D-08 Max=9.38D-07 NDo=     1
 LinEq1:  Iter=  7 NonCon=     1 RMS=2.11D-08 Max=1.40D-07 NDo=     1
 LinEq1:  Iter=  8 NonCon=     1 RMS=6.01D-09 Max=6.01D-08 NDo=     1
 LinEq1:  Iter=  9 NonCon=     0 RMS=1.64D-09 Max=1.38D-08 NDo=     1
 Linear equations converged to 2.437D-09 2.437D-08 after     9 iterations.
 LinEq1:  Iter=  0 NonCon=     1 RMS=2.03D-04 Max=1.49D-03 NDo=     1
 LinEq1:  Iter=  1 NonCon=     1 RMS=5.01D-05 Max=3.07D-04 NDo=     1
 LinEq1:  Iter=  2 NonCon=     1 RMS=1.22D-05 Max=8.08D-05 NDo=     1
 LinEq1:  Iter=  3 NonCon=     1 RMS=3.04D-06 Max=1.61D-05 NDo=     1
 LinEq1:  Iter=  4 NonCon=     1 RMS=6.16D-07 Max=3.69D-06 NDo=     1
 LinEq1:  Iter=  5 NonCon=     1 RMS=1.62D-07 Max=1.26D-06 NDo=     1
 LinEq1:  Iter=  6 NonCon=     1 RMS=3.86D-08 Max=3.44D-07 NDo=     1
 LinEq1:  Iter=  7 NonCon=     1 RMS=7.30D-09 Max=6.14D-08 NDo=     1
 LinEq1:  Iter=  8 NonCon=     0 RMS=1.75D-09 Max=1.55D-08 NDo=     1
 Linear equations converged to 2.437D-09 2.437D-08 after     8 iterations.
     Accept linear search using points  1 and  2.
     Minimum is close to point  2 DX= -5.13D-02 DF= -2.31D-07 DXR=  5.41D-02 DFR=  3.04D-03 which will be used.
 LinEq1:  Iter=  0 NonCon=     1 RMS=1.02D-05 Max=7.98D-05 NDo=     1
 LinEq1:  Iter=  1 NonCon=     1 RMS=2.65D-06 Max=1.83D-05 NDo=     1
 LinEq1:  Iter=  2 NonCon=     1 RMS=5.92D-07 Max=4.98D-06 NDo=     1
 LinEq1:  Iter=  3 NonCon=     1 RMS=1.23D-07 Max=8.63D-07 NDo=     1
 LinEq1:  Iter=  4 NonCon=     1 RMS=3.20D-08 Max=1.99D-07 NDo=     1
 LinEq1:  Iter=  5 NonCon=     1 RMS=7.35D-09 Max=4.93D-08 NDo=     1
 LinEq1:  Iter=  6 NonCon=     1 RMS=1.53D-09 Max=8.89D-09 NDo=     1
 LinEq1:  Iter=  7 NonCon=     0 RMS=3.78D-10 Max=2.27D-09 NDo=     1
 Linear equations converged to 1.189D-09 1.189D-08 after     7 iterations.
     Minimum is close to point  2 DX=  5.82D-03 DF= -1.04D-11 DXR=  5.79D-03 DFR=  3.35D-05 which will be used.
 LinEq1:  Iter=  0 NonCon=     1 RMS=3.49D-07 Max=2.14D-06 NDo=     1
 LinEq1:  Iter=  1 NonCon=     1 RMS=1.31D-07 Max=8.41D-07 NDo=     1
 LinEq1:  Iter=  2 NonCon=     1 RMS=2.88D-08 Max=1.62D-07 NDo=     1
 LinEq1:  Iter=  3 NonCon=     1 RMS=5.92D-09 Max=4.41D-08 NDo=     1
 LinEq1:  Iter=  4 NonCon=     1 RMS=1.47D-09 Max=1.06D-08 NDo=     1
 LinEq1:  Iter=  5 NonCon=     1 RMS=3.89D-10 Max=4.70D-09 NDo=     1
 LinEq1:  Iter=  6 NonCon=     1 RMS=9.59D-11 Max=6.82D-10 NDo=     1
 LinEq1:  Iter=  7 NonCon=     0 RMS=2.20D-11 Max=1.78D-10 NDo=     1
 Linear equations converged to 5.573D-11 5.573D-10 after     7 iterations.
 SCF Done:  E(UAM1) =  0.403402227116     a.u. after    6 cycles
            Convg  =    0.1657D-06                    51 Fock formations.
              S**2 =  1.4768                  -V/T =  1.0045
 <Sx>= 0.0000 <Sy>= 0.0000 <Sz>= 0.5000 <S**2>= 1.4768 S= 0.8141
 <L.S>=  0.00000000000    
 Annihilation of the first spin contaminant:
 S**2 before annihilation     1.4768,   after     1.3815
 Calling FoFJK, ICntrl=      2127 FMM=F ISym2X=1 I1Cent= 0 IOpClX= 1 NMat=1 NMatS=1 NMatT=0.
 ***** Axes restored to original set *****
 -------------------------------------------------------------------
 Center     Atomic                   Forces (Hartrees/Bohr)
 Number     Number              X              Y              Z
 -------------------------------------------------------------------
      1        6           0.047311093   -0.003709216    0.000000000
      2        6          -0.027938688    0.100390110    0.000000000
      3        6           0.025711788    0.015105185    0.000000000
      4        6           0.076392320   -0.059237579    0.000000000
      5        6           0.019834763   -0.095785743    0.000000000
      6        6          -0.039525818   -0.015366507    0.000000000
      7       17           0.026393589    0.015567193    0.000000000
      8        1           0.003599881   -0.115853898   -0.000000000
      9       17          -0.025745804   -0.015457557    0.000000000
     10        1          -0.101651276    0.055906875   -0.000000000
     11        1          -0.004381848    0.118441136   -0.000000000
 -------------------------------------------------------------------
 Cartesian Forces:  Max     0.118441136 RMS     0.048459173

 GradGradGradGradGradGradGradGradGradGradGradGradGradGradGradGradGradGrad
 Berny optimization.
 Using GEDIIS/GDIIS optimizer.
 FormGI is forming the generalized inverse of G from B-inverse, IUseBI=4.
 Internal  Forces:  Max     0.118517906 RMS     0.031071901
 Search for a local minimum.
 Step number   2 out of a maximum of   57
 All quantities printed in internal units (Hartrees-Bohrs-Radians)
 Mixed Optimization -- RFO/linear search
 Update second derivatives using D2CorX and points    1    2
 DE= -7.40D-02 DEPred=-5.70D-02 R= 1.30D+00
 TightC=F SS=  1.41D+00  RLast= 3.00D-01 DXNew= 5.0454D-01 9.0000D-01
 Trust test= 1.30D+00 RLast= 3.00D-01 DXMaxT set to 5.05D-01
 ITU=  1  0
 Use linear search instead of GDIIS.
     Eigenvalues ---   -1.07778   0.00746   0.02011   0.02011   0.02011
     Eigenvalues ---    0.02011   0.02011   0.02011   0.02011   0.02011
     Eigenvalues ---    0.06524   0.07961   0.15998   0.16000   0.16002
     Eigenvalues ---    0.22313   0.23434   0.24858   0.25000   0.25005
     Eigenvalues ---    0.29032   0.29671   0.40858   0.41326   0.44457
     Eigenvalues ---    0.44656   0.44657
 RFO step:  Lambda=-1.07933510D+00 EMin=-1.07778456D+00
 I=     1 Eig=   -1.08D+00 Dot1=  2.41D-02
 I=     1 Stepn=  6.00D-01 RXN=   6.00D-01 EDone=F
 Mixed    1 eigenvectors in step.  Raw Step.Grad=  2.41D-02.
 RFO eigenvector is Hessian eigenvector with negative curvature.
 Taking step of  6.00D-01 in eigenvector direction(s).  Step.Grad=  4.15D-02.
 Skip linear search -- no minimum in search direction.
 Maximum step size (   0.505) exceeded in Quadratic search.
    -- Step size not scaled.
 Iteration  1 RMS(Cart)=  0.08918382 RMS(Int)=  0.01023807
 Iteration  2 RMS(Cart)=  0.00909927 RMS(Int)=  0.00013461
 Iteration  3 RMS(Cart)=  0.00001899 RMS(Int)=  0.00013387
 Iteration  4 RMS(Cart)=  0.00000000 RMS(Int)=  0.00013387
 ClnCor:  largest displacement from symmetrization is 5.93D-09 for atom     5.
 Variable       Old X    -DE/DX   Delta X   Delta X   Delta X     New X
                                 (Linear)    (Quad)   (Total)
    R1        2.62374  -0.03189   0.00000   0.21560   0.21566   2.83940
    R2        2.63334  -0.01346   0.00000   0.23437   0.23456   2.86790
    R3        2.63937  -0.00928   0.00000   0.18276   0.18263   2.82199
    R4        3.15959  -0.11591   0.00000  -0.05913  -0.05913   3.10046
    R5        2.64070  -0.00648   0.00000   0.18890   0.18870   2.82940
    R6        3.30566  -0.03003   0.00000   0.08584   0.08584   3.39150
    R7        2.62923  -0.02036   0.00000   0.23837   0.23831   2.86754
    R8        3.16807  -0.11601   0.00000  -0.12433  -0.12433   3.04374
    R9        2.63964  -0.00836   0.00000   0.18514   0.18528   2.82491
   R10        3.18019  -0.11852   0.00000  -0.24575  -0.24575   2.93444
   R11        3.30552  -0.03064   0.00000   0.08151   0.08151   3.38703
    A1        2.11287   0.01782   0.00000  -0.04096  -0.04057   2.07229
    A2        2.08977  -0.00348   0.00000   0.01421   0.01411   2.10388
    A3        2.09686   0.00156   0.00000  -0.01057  -0.01051   2.08634
    A4        2.09656   0.00192   0.00000  -0.00365  -0.00359   2.09297
    A5        2.08699  -0.00705   0.00000   0.01786   0.01748   2.10447
    A6        2.09738   0.00304   0.00000  -0.00550  -0.00531   2.09208
    A7        2.09881   0.00401   0.00000  -0.01236  -0.01217   2.08664
    A8        2.09965   0.00454   0.00000  -0.00717  -0.00748   2.09217
    A9        2.09072  -0.00326   0.00000   0.00304   0.00319   2.09391
   A10        2.09282  -0.00128   0.00000   0.00414   0.00429   2.09711
   A11        2.09883   0.00286   0.00000  -0.01933  -0.01926   2.07957
   A12        2.09363   0.00017   0.00000   0.01295   0.01291   2.10654
   A13        2.09073  -0.00303   0.00000   0.00638   0.00635   2.09708
   A14        2.07826  -0.01469   0.00000   0.03538   0.03573   2.11399
   A15        2.10309   0.00813   0.00000  -0.01707  -0.01724   2.08586
   A16        2.10183   0.00656   0.00000  -0.01832  -0.01849   2.08334
    D1        0.00000  -0.00000   0.00000   0.00000   0.00000   0.00000
    D2        3.14159  -0.00000   0.00000   0.00000   0.00000   3.14159
    D3       -0.00000  -0.00000   0.00000   0.00000   0.00000   0.00000
    D4        3.14159   0.00000   0.00000   0.00000   0.00000   3.14159
    D5       -0.00000   0.00000   0.00000  -0.00000   0.00000   0.00000
    D6        3.14159   0.00000   0.00000  -0.00000   0.00000   3.14159
    D7        3.14159   0.00000   0.00000  -0.00000   0.00000   3.14159
    D8        0.00000   0.00000   0.00000  -0.00000  -0.00000   0.00000
    D9        0.00000  -0.00000   0.00000   0.00000  -0.00000   0.00000
   D10        3.14159  -0.00000   0.00000   0.00000   0.00000   3.14159
   D11        3.14159  -0.00000   0.00000   0.00000   0.00000   3.14159
   D12       -0.00000  -0.00000   0.00000  -0.00000   0.00000   0.00000
   D13       -0.00000  -0.00000   0.00000  -0.00000   0.00000   0.00000
   D14        3.14159  -0.00000   0.00000  -0.00000   0.00000   3.14159
   D15        3.14159   0.00000   0.00000   0.00000   0.00000   3.14159
   D16        0.00000   0.00000   0.00000  -0.00000  -0.00000   0.00000
   D17        0.00000   0.00000   0.00000  -0.00000   0.00000   0.00000
   D18        3.14159  -0.00000   0.00000  -0.00000   0.00000   3.14159
   D19        3.14159   0.00000   0.00000  -0.00000   0.00000   3.14159
   D20        0.00000   0.00000   0.00000  -0.00000  -0.00000   0.00000
         Item               Value     Threshold  Converged?
 Maximum Force            0.118518     0.000450     NO 
 RMS     Force            0.031072     0.000300     NO 
 Maximum Displacement     0.239517     0.001800     NO 
 RMS     Displacement     0.095771     0.001200     NO 
 Predicted change in Energy=-2.180856D-01
 GradGradGradGradGradGradGradGradGradGradGradGradGradGradGradGradGradGrad

                          Input orientation:                          
 ---------------------------------------------------------------------
 Center     Atomic      Atomic             Coordinates (Angstroms)
 Number     Number       Type             X           Y           Z
 ---------------------------------------------------------------------
      1          6           0       -3.296787    0.247784    0.000000
      2          6           0       -2.007387    1.019208   -0.000000
      3          6           0       -0.695834    0.305151   -0.000000
      4          6           0       -0.643276   -1.191180    0.000000
      5          6           0       -1.931755   -1.992701    0.000000
      6          6           0       -3.239649   -1.268768    0.000000
      7         17           0       -4.765113   -2.209750    0.000000
      8          1           0       -2.046117    2.659442   -0.000000
      9         17           0        0.833300    1.244681   -0.000000
     10          1           0        0.779394   -1.946362   -0.000000
     11          1           0       -1.899545   -3.545205    0.000000
 ---------------------------------------------------------------------
                    Distance matrix (angstroms):
                    1          2          3          4          5
     1  C    0.000000
     2  C    1.502546   0.000000
     3  C    2.601585   1.493335   0.000000
     4  C    3.018565   2.597425   1.497253   0.000000
     5  C    2.623563   3.012859   2.609142   1.517437   0.000000
     6  C    1.517627   2.598712   2.991356   2.597532   1.494880
     7  Cl   2.862771   4.246319   4.783697   4.245825   2.841659
     8  H    2.716665   1.640691   2.714028   4.098201   4.653548
     9  Cl   4.248696   2.849622   1.794706   2.848455   4.257485
    10  H    4.629203   4.069491   2.691766   1.610680   2.711545
    11  H    4.042158   4.565686   4.034124   2.668266   1.552838
                    6          7          8          9         10
     6  C    0.000000
     7  Cl   1.792342   0.000000
     8  H    4.105526   5.576914   0.000000
     9  Cl   4.786057   6.578398   3.208206   0.000000
    10  H    4.075762   5.550760   5.403419   3.191498   0.000000
    11  H    2.641599   3.161474   6.206377   5.514657   3.119778
                   11
    11  H    0.000000
 Stoichiometry    C6H3Cl2(2)
 Framework group  CS[SG(C6H3Cl2)]
 Deg. of freedom    19
 Full point group                 CS      NOp   2
 Largest Abelian subgroup         CS      NOp   2
 Largest concise Abelian subgroup C1      NOp   1
                         Standard orientation:                         
 ---------------------------------------------------------------------
 Center     Atomic      Atomic             Coordinates (Angstroms)
 Number     Number       Type             X           Y           Z
 ---------------------------------------------------------------------
      1          6           0       -0.012581   -1.558002    0.000000
      2          6           0       -1.302172   -0.786898    0.000000
      3          6           0       -1.293469    0.706412    0.000000
      4          6           0        0.000000    1.460537    0.000000
      5          6           0        1.315673    0.704481    0.000000
      6          6           0        1.296538   -0.790277    0.000000
      7         17           0        2.847184   -1.689157    0.000000
      8          1           0       -2.728967   -1.596911    0.000000
      9         17           0       -2.844572    1.609212    0.000000
     10          1           0       -0.007627    3.071199    0.000000
     11          1           0        2.668258    1.467250    0.000000
 ---------------------------------------------------------------------
 Rotational constants (GHZ):           4.8848626           0.5979908           0.5327706
 Standard basis: VSTO-6G (5D, 7F)
 There are    27 symmetry adapted cartesian basis functions of A'  symmetry.
 There are     8 symmetry adapted cartesian basis functions of A"  symmetry.
 There are    27 symmetry adapted basis functions of A'  symmetry.
 There are     8 symmetry adapted basis functions of A"  symmetry.
    35 basis functions,   210 primitive gaussians,    35 cartesian basis functions
    21 alpha electrons       20 beta electrons
       nuclear repulsion energy       185.7287482559 Hartrees.
 Integral buffers will be    131072 words long.
 Regular integral format.
 Two-electron integral symmetry is turned off.
 Do NDO integrals.
 One-electron integrals computed using PRISM.
 NBasis=    35 RedAO= T EigKep=  1.00D+00  NBF=    27     8
 NBsUse=    35 1.00D-06 EigRej= -1.00D+00 NBFU=    27     8
 Initial guess from the checkpoint file:  "geometry_chks/124-1_4-ClBzNeutralRadical.chk"
 B after Tr=     0.000000   -0.000000   -0.000000
         Rot=    0.999999   -0.000000    0.000000    0.001307 Ang=   0.15 deg.
 Initial guess orbital symmetries:
 Alpha Orbitals:
       Occupied  (A') (A') (A') (A') (A') (A') (A') (A') (A') (A')
                 (A") (A") (A') (A') (A') (A") (A') (A') (A") (A')
                 (A")
       Virtual   (A') (A") (A') (A") (A') (A') (A') (A") (A') (A')
                 (A') (A') (A') (A')
 Beta  Orbitals:
       Occupied  (A') (A') (A') (A') (A') (A') (A') (A') (A') (A')
                 (A") (A") (A') (A') (A') (A") (A') (A') (A") (A")
       Virtual   (A') (A") (A') (A') (A") (A') (A') (A') (A") (A')
                 (A') (A') (A') (A') (A')
 Initial guess <Sx>= 0.0000 <Sy>= 0.0000 <Sz>= 0.5000 <S**2>= 1.4768 S= 0.8141
 Keep J ints in memory in canonical form, NReq=862793.
 Overlap will be assumed to be unity.
 Requested convergence on RMS density matrix=1.00D-08 within  32 cycles.
 Requested convergence on MAX density matrix=1.00D-06.
 Requested convergence on             energy=1.00D-06.
 No special actions if energy rises.
 Fock symm off for IB=2 I1=    1 I=   28 J=    6 Cut=1.00D-07 Err=2.80D-03
 Fock matrix is not symmetric: symmetry in diagonalization turned off.
 SCF Done:  E(UAM1) =  0.453193077659     A.U. after   23 cycles
            NFock= 22  Conv=0.36D-08     -V/T= 1.0050
 <Sx>= 0.0000 <Sy>= 0.0000 <Sz>= 0.5000 <S**2>= 2.0448 S= 1.0149
 <L.S>=  0.00000000000    
 Annihilation of the first spin contaminant:
 S**2 before annihilation     2.0448,   after     2.7827
 QCSCF skips out because SCF is already converged.
 Calling FoFJK, ICntrl=      2127 FMM=F ISym2X=1 I1Cent= 0 IOpClX= 1 NMat=1 NMatS=1 NMatT=0.
 ***** Axes restored to original set *****
 -------------------------------------------------------------------
 Center     Atomic                   Forces (Hartrees/Bohr)
 Number     Number              X              Y              Z
 -------------------------------------------------------------------
      1        6           0.135253575   -0.064959496    0.000000000
      2        6          -0.022738176    0.014577999    0.000000000
      3        6          -0.041237901   -0.029540119    0.000000000
      4        6          -0.005623287   -0.014771104    0.000000000
      5        6           0.016532669    0.001973757    0.000000000
      6        6           0.026276568    0.031475080   -0.000000000
      7       17           0.050043321    0.030805555    0.000000000
      8        1           0.003029107   -0.120261277   -0.000000000
      9       17          -0.050988505   -0.030530010    0.000000000
     10        1          -0.107414547    0.057336091   -0.000000000
     11        1          -0.003132823    0.123893525   -0.000000000
 -------------------------------------------------------------------
 Cartesian Forces:  Max     0.135253575 RMS     0.049133729

 GradGradGradGradGradGradGradGradGradGradGradGradGradGradGradGradGradGrad
 Berny optimization.
 Using GEDIIS/GDIIS optimizer.
 FormGI is forming the generalized inverse of G from B-inverse, IUseBI=4.
 Internal  Forces:  Max     0.130890321 RMS     0.053861975
 Search for a local minimum.
 Step number   3 out of a maximum of   57
 All quantities printed in internal units (Hartrees-Bohrs-Radians)
 Mixed Optimization -- RFO/linear search
 Update second derivatives using D2CorX and points    1    3    2
 ITU=  0  1  0
 Use linear search instead of GDIIS.
     Eigenvalues ---    0.00628   0.02011   0.02011   0.02011   0.02011
     Eigenvalues ---    0.02011   0.02011   0.02011   0.02011   0.06524
     Eigenvalues ---    0.07205   0.15998   0.16000   0.16000   0.22317
     Eigenvalues ---    0.22914   0.23488   0.24999   0.25000   0.28655
     Eigenvalues ---    0.29034   0.41237   0.41385   0.43140   0.44583
     Eigenvalues ---    0.44656   0.55741
 RFO step:  Lambda=-2.04871181D-01 EMin= 6.28383498D-03
 Quartic linear search produced a step of -0.86364.
 Maximum step size (   0.505) exceeded in Quadratic search.
    -- Step size scaled by   0.525
 Iteration  1 RMS(Cart)=  0.12081836 RMS(Int)=  0.00947997
 Iteration  2 RMS(Cart)=  0.01218483 RMS(Int)=  0.00015563
 Iteration  3 RMS(Cart)=  0.00001125 RMS(Int)=  0.00015541
 Iteration  4 RMS(Cart)=  0.00000000 RMS(Int)=  0.00015541
 ClnCor:  largest displacement from symmetrization is 1.38D-08 for atom     7.
 Variable       Old X    -DE/DX   Delta X   Delta X   Delta X     New X
                                 (Linear)    (Quad)   (Total)
    R1        2.83940  -0.13089  -0.18625  -0.04270  -0.22875   2.61066
    R2        2.86790  -0.12274  -0.20258  -0.01364  -0.21600   2.65190
    R3        2.82199  -0.10975  -0.15772  -0.00691  -0.16464   2.65735
    R4        3.10046  -0.12030   0.05107  -0.29549  -0.24442   2.85603
    R5        2.82940  -0.10868  -0.16297  -0.00221  -0.16539   2.66400
    R6        3.39150  -0.05943  -0.07414  -0.05849  -0.13263   3.25887
    R7        2.86754  -0.12543  -0.20582  -0.02402  -0.23004   2.63750
    R8        3.04374  -0.12176   0.10738  -0.28423  -0.17685   2.86689
    R9        2.82491  -0.11063  -0.16001  -0.00559  -0.16559   2.65932
   R10        2.93444  -0.12393   0.21224  -0.27005  -0.05781   2.87662
   R11        3.38703  -0.05876  -0.07040  -0.05958  -0.12998   3.25706
    A1        2.07229   0.01835   0.03504   0.03735   0.07297   2.14527
    A2        2.10388  -0.00956  -0.01218  -0.00799  -0.02001   2.08387
    A3        2.08634   0.00507   0.00908   0.00389   0.01289   2.09923
    A4        2.09297   0.00449   0.00310   0.00410   0.00712   2.10009
    A5        2.10447  -0.00151  -0.01509  -0.01552  -0.03089   2.07358
    A6        2.09208  -0.00040   0.00458   0.00662   0.01134   2.10342
    A7        2.08664   0.00191   0.01051   0.00890   0.01954   2.10618
    A8        2.09217   0.00222   0.00646   0.01167   0.01767   2.10985
    A9        2.09391  -0.00154  -0.00276  -0.00818  -0.01071   2.08320
   A10        2.09711  -0.00068  -0.00370  -0.00349  -0.00697   2.09014
   A11        2.07957   0.00182   0.01664   0.00806   0.02446   2.10403
   A12        2.10654  -0.00009  -0.01115  -0.00054  -0.01158   2.09496
   A13        2.09708  -0.00174  -0.00548  -0.00752  -0.01288   2.08419
   A14        2.11399  -0.01133  -0.03086  -0.03357  -0.06422   2.04977
   A15        2.08586   0.00575   0.01489   0.01842   0.03320   2.11906
   A16        2.08334   0.00557   0.01597   0.01515   0.03102   2.11436
    D1        0.00000  -0.00000   0.00000  -0.00000   0.00000   0.00000
    D2        3.14159  -0.00000   0.00000  -0.00000   0.00000   3.14159
    D3        0.00000   0.00000   0.00000  -0.00000   0.00000   0.00000
    D4        3.14159   0.00000   0.00000  -0.00000   0.00000   3.14159
    D5        0.00000   0.00000   0.00000   0.00000   0.00000   0.00000
    D6        3.14159  -0.00000   0.00000   0.00000   0.00000   3.14159
    D7        3.14159   0.00000   0.00000   0.00000   0.00000   3.14159
    D8        0.00000   0.00000   0.00000   0.00000   0.00000   0.00000
    D9        0.00000   0.00000   0.00000  -0.00000   0.00000   0.00000
   D10        3.14159  -0.00000   0.00000  -0.00000   0.00000   3.14159
   D11        3.14159   0.00000   0.00000  -0.00000   0.00000   3.14159
   D12        0.00000   0.00000   0.00000  -0.00000   0.00000   0.00000
   D13        0.00000  -0.00000   0.00000  -0.00000   0.00000   0.00000
   D14        3.14159  -0.00000   0.00000  -0.00000   0.00000   3.14159
   D15        3.14159   0.00000   0.00000   0.00000   0.00000   3.14159
   D16        0.00000   0.00000   0.00000   0.00000   0.00000   0.00000
   D17        0.00000   0.00000   0.00000   0.00000   0.00000   0.00000
   D18        3.14159  -0.00000   0.00000   0.00000   0.00000   3.14159
   D19        3.14159   0.00000   0.00000   0.00000   0.00000   3.14159
   D20        0.00000   0.00000   0.00000   0.00000   0.00000   0.00000
         Item               Value     Threshold  Converged?
 Maximum Force            0.130890     0.000450     NO 
 RMS     Force            0.053862     0.000300     NO 
 Maximum Displacement     0.427678     0.001800     NO 
 RMS     Displacement     0.130083     0.001200     NO 
 Predicted change in Energy=-1.005249D-01
 GradGradGradGradGradGradGradGradGradGradGradGradGradGradGradGradGradGrad

                          Input orientation:                          
 ---------------------------------------------------------------------
 Center     Atomic      Atomic             Coordinates (Angstroms)
 Number     Number       Type             X           Y           Z
 ---------------------------------------------------------------------
      1          6           0       -3.152230    0.178347    0.000000
      2          6           0       -1.988625    0.923038    0.000000
      3          6           0       -0.746836    0.263200    0.000000
      4          6           0       -0.726583   -1.146384    0.000000
      5          6           0       -1.913957   -1.879963    0.000000
      6          6           0       -3.159481   -1.224958    0.000000
      7         17           0       -4.635046   -2.115672    0.000000
      8          1           0       -2.050378    2.433124    0.000000
      9         17           0        0.723582    1.164225    0.000000
     10          1           0        0.606217   -1.871102    0.000000
     11          1           0       -1.869433   -3.401555    0.000000
 ---------------------------------------------------------------------
                    Distance matrix (angstroms):
                    1          2          3          4          5
     1  C    0.000000
     2  C    1.381499   0.000000
     3  C    2.406890   1.406211   0.000000
     4  C    2.763816   2.423894   1.409730   0.000000
     5  C    2.402074   2.803996   2.440353   1.395707   0.000000
     6  C    1.403324   2.446383   2.834691   2.434167   1.407253
     7  Cl   2.731532   4.029554   4.558203   4.026861   2.731279
     8  H    2.509601   1.511348   2.531362   3.816453   4.315244
     9  Cl   3.999234   2.722910   1.724522   2.727984   4.027865
    10  H    4.280907   3.813191   2.527053   1.517092   2.520190
    11  H    3.802798   4.326236   3.832839   2.528221   1.522244
                    6          7          8          9         10
     6  C    0.000000
     7  Cl   1.723561   0.000000
     8  H    3.822522   5.231831   0.000000
     9  Cl   4.559208   6.282724   3.050403   0.000000
    10  H    3.820730   5.246966   5.058048   3.037595   0.000000
    11  H    2.530178   3.049937   5.837484   5.250722   2.910520
                   11
    11  H    0.000000
 Stoichiometry    C6H3Cl2(2)
 Framework group  CS[SG(C6H3Cl2)]
 Deg. of freedom    19
 Full point group                 CS      NOp   2
 Largest Abelian subgroup         CS      NOp   2
 Largest concise Abelian subgroup C1      NOp   1
                         Standard orientation:                         
 ---------------------------------------------------------------------
 Center     Atomic      Atomic             Coordinates (Angstroms)
 Number     Number       Type             X           Y           Z
 ---------------------------------------------------------------------
      1          6           0       -0.002559   -1.408219    0.000000
      2          6           0       -1.213247   -0.742807    0.000000
      3          6           0       -1.228048    0.663326    0.000000
      4          6           0        0.000000    1.355596    0.000000
      5          6           0        1.212305    0.663994   -0.000000
      6          6           0        1.233136   -0.743105   -0.000000
      7         17           0        2.721318   -1.612574   -0.000000
      8          1           0       -2.509686   -1.519607    0.000000
      9         17           0       -2.722821    1.523341    0.000000
     10          1           0       -0.001379    2.872687    0.000000
     11          1           0        2.527091    1.431172   -0.000000
 ---------------------------------------------------------------------
 Rotational constants (GHZ):           5.6671998           0.6581593           0.5896773
 Standard basis: VSTO-6G (5D, 7F)
 There are    27 symmetry adapted cartesian basis functions of A'  symmetry.
 There are     8 symmetry adapted cartesian basis functions of A"  symmetry.
 There are    27 symmetry adapted basis functions of A'  symmetry.
 There are     8 symmetry adapted basis functions of A"  symmetry.
    35 basis functions,   210 primitive gaussians,    35 cartesian basis functions
    21 alpha electrons       20 beta electrons
       nuclear repulsion energy       192.1872011991 Hartrees.
 Integral buffers will be    131072 words long.
 Regular integral format.
 Two-electron integral symmetry is turned off.
 Do NDO integrals.
 One-electron integrals computed using PRISM.
 NBasis=    35 RedAO= T EigKep=  1.00D+00  NBF=    27     8
 NBsUse=    35 1.00D-06 EigRej= -1.00D+00 NBFU=    27     8
 Lowest energy guess from the checkpoint file:  "geometry_chks/124-1_4-ClBzNeutralRadical.chk"
 B after Tr=     0.000000   -0.000000   -0.000000
         Rot=    1.000000    0.000000   -0.000000   -0.000401 Ang=  -0.05 deg.
 B after Tr=    -0.000000    0.000000   -0.000000
         Rot=    0.999999    0.000000   -0.000000   -0.001701 Ang=  -0.19 deg.
 Initial guess orbital symmetries:
 Alpha Orbitals:
       Occupied  (A") (A") (A") (A') (A') (A') (A') (A') (A') (A')
                 (A') (A') (A') (A') (A") (A") (A") (A") (A") (A")
                 (A")
       Virtual   (A") (A") (A") (A') (A') (A') (A') (A') (A') (A')
                 (A') (A') (A') (A')
 Beta  Orbitals:
       Occupied  (A") (A") (A") (A') (A') (A') (A') (A') (A') (A')
                 (A') (A') (A') (A') (A') (A") (A") (A") (A") (A")
       Virtual   (A") (A") (A") (A') (A') (A') (A') (A') (A') (A')
                 (A') (A') (A') (A') (A')
 Initial guess <Sx>= 0.0000 <Sy>= 0.0000 <Sz>= 0.5000 <S**2>= 1.5450 S= 0.8398
 Keep J ints in memory in canonical form, NReq=862793.
 Overlap will be assumed to be unity.
 Requested convergence on RMS density matrix=1.00D-08 within  32 cycles.
 Requested convergence on MAX density matrix=1.00D-06.
 Requested convergence on             energy=1.00D-06.
 No special actions if energy rises.
 An orbital has undefined symmetry, so N**3 symmetry is turned off.
 SCF Done:  E(UAM1) =  0.291443626235     A.U. after   18 cycles
            NFock= 17  Conv=0.79D-08     -V/T= 1.0032
 <Sx>= 0.0000 <Sy>= 0.0000 <Sz>= 0.5000 <S**2>= 1.3105 S= 0.7492
 <L.S>=  0.00000000000    
 Annihilation of the first spin contaminant:
 S**2 before annihilation     1.3105,   after     1.0390
 QCSCF skips out because SCF is already converged.
 Calling FoFJK, ICntrl=      2127 FMM=F ISym2X=1 I1Cent= 0 IOpClX= 1 NMat=1 NMatS=1 NMatT=0.
 ***** Axes restored to original set *****
 -------------------------------------------------------------------
 Center     Atomic                   Forces (Hartrees/Bohr)
 Number     Number              X              Y              Z
 -------------------------------------------------------------------
      1        6           0.037190126   -0.017250492    0.000000000
      2        6          -0.017279105    0.105051599    0.000000000
      3        6           0.006924463   -0.000663538   -0.000000000
      4        6           0.080378203   -0.052288943    0.000000000
      5        6           0.013390507   -0.094448337    0.000000000
      6        6          -0.017554155    0.000223225   -0.000000000
      7       17           0.018565587    0.010978509   -0.000000000
      8        1           0.004723769   -0.118826989   -0.000000000
      9       17          -0.017293759   -0.010535802   -0.000000000
     10        1          -0.104995336    0.057425544   -0.000000000
     11        1          -0.004050300    0.120335224   -0.000000000
 -------------------------------------------------------------------
 Cartesian Forces:  Max     0.120335224 RMS     0.047832536

 GradGradGradGradGradGradGradGradGradGradGradGradGradGradGradGradGradGrad
 Berny optimization.
 Using GEDIIS/GDIIS optimizer.
 FormGI is forming the generalized inverse of G from B-inverse, IUseBI=4.
 Internal  Forces:  Max     0.120402207 RMS     0.031604826
 Search for a local minimum.
 Step number   4 out of a maximum of   57
 All quantities printed in internal units (Hartrees-Bohrs-Radians)
 Mixed Optimization -- RFO/linear search
 Update second derivatives using D2CorX and points    2    4
 DE= -1.12D-01 DEPred=-1.01D-01 R= 1.11D+00
 TightC=F SS=  1.41D+00  RLast= 5.33D-01 DXNew= 8.4853D-01 1.5994D+00
 Trust test= 1.11D+00 RLast= 5.33D-01 DXMaxT set to 8.49D-01
 ITU=  1  0  1  0
 Use linear search instead of GDIIS.
     Eigenvalues ---   -1.39498   0.00032   0.02011   0.02011   0.02011
     Eigenvalues ---    0.02011   0.02011   0.02011   0.02011   0.02011
     Eigenvalues ---    0.06521   0.06940   0.16000   0.16000   0.16064
     Eigenvalues ---    0.22311   0.23456   0.24711   0.25000   0.25038
     Eigenvalues ---    0.29029   0.36117   0.40763   0.41826   0.42891
     Eigenvalues ---    0.44645   0.48425
 RFO step:  Lambda=-1.39620672D+00 EMin=-1.39498061D+00
 I=     1 Eig=   -1.39D+00 Dot1=  2.45D-02
 I=     1 Stepn=  6.00D-01 RXN=   6.00D-01 EDone=F
 Mixed    1 eigenvectors in step.  Raw Step.Grad=  2.45D-02.
 RFO eigenvector is Hessian eigenvector with negative curvature.
 Taking step of  6.00D-01 in eigenvector direction(s).  Step.Grad=  3.94D-02.
 Skip linear search -- no minimum in search direction.
 Iteration  1 RMS(Cart)=  0.07091238 RMS(Int)=  0.01224721
 Iteration  2 RMS(Cart)=  0.01300110 RMS(Int)=  0.00066236
 Iteration  3 RMS(Cart)=  0.00003467 RMS(Int)=  0.00066181
 Iteration  4 RMS(Cart)=  0.00000002 RMS(Int)=  0.00066181
 ClnCor:  largest displacement from symmetrization is 9.88D-10 for atom     8.
 Variable       Old X    -DE/DX   Delta X   Delta X   Delta X     New X
                                 (Linear)    (Quad)   (Total)
    R1        2.61066  -0.02667   0.00000   0.12731   0.12672   2.73737
    R2        2.65190  -0.02476   0.00000  -0.24186  -0.24124   2.41065
    R3        2.65735  -0.01552   0.00000  -0.12627  -0.12742   2.52993
    R4        2.85603  -0.11892   0.00000  -0.07990  -0.07990   2.77613
    R5        2.66400  -0.01747   0.00000  -0.23227  -0.23284   2.43116
    R6        3.25887  -0.02025   0.00000   0.24151   0.24151   3.50038
    R7        2.63750  -0.02407   0.00000  -0.07355  -0.07294   2.56456
    R8        2.86689  -0.11967   0.00000  -0.09293  -0.09293   2.77396
    R9        2.65932  -0.01640   0.00000  -0.16891  -0.16776   2.49156
   R10        2.87662  -0.12040   0.00000  -0.03457  -0.03457   2.84205
   R11        3.25706  -0.02157   0.00000   0.22448   0.22448   3.48154
    A1        2.14527   0.01328   0.00000  -0.11185  -0.11179   2.03348
    A2        2.08387  -0.00536   0.00000  -0.04402  -0.04577   2.03810
    A3        2.09923   0.00249   0.00000   0.02177   0.02264   2.12187
    A4        2.10009   0.00287   0.00000   0.02225   0.02313   2.12322
    A5        2.07358  -0.00340   0.00000   0.09157   0.08997   2.16355
    A6        2.10342   0.00162   0.00000  -0.03588  -0.03508   2.06834
[...]
 Variable       Old X    -DE/DX   Delta X   Delta X   Delta X     New X
                                 (Linear)    (Quad)   (Total)
    R1        2.58593  -0.00003  -0.00007  -0.00003  -0.00010   2.58583
    R2        2.60087   0.00002  -0.00002   0.00006   0.00004   2.60090
    R3        2.67179   0.00005   0.00000   0.00014   0.00014   2.67194
    R4        2.07368  -0.00002  -0.00012   0.00004  -0.00008   2.07361
    R5        2.66114  -0.00000  -0.00003   0.00001  -0.00002   2.66112
    R6        3.19728  -0.00001  -0.00000  -0.00005  -0.00006   3.19722
    R7        2.64506   0.00004  -0.00001   0.00009   0.00008   2.64514
    R8        2.08091  -0.00000  -0.00006   0.00005  -0.00002   2.08089
    R9        2.67135   0.00003  -0.00002   0.00009   0.00007   2.67142
   R10        2.07764   0.00000  -0.00005   0.00004  -0.00001   2.07763
   R11        3.17940   0.00001  -0.00002   0.00003   0.00002   3.17942
    A1        2.25139   0.00001   0.00000   0.00004   0.00004   2.25144
    A2        2.00034   0.00001  -0.00002   0.00002   0.00000   2.00035
    A3        2.14343   0.00002   0.00012   0.00010   0.00022   2.14365
    A4        2.13941  -0.00003  -0.00010  -0.00012  -0.00022   2.13919
    A5        2.09834  -0.00000   0.00002  -0.00003  -0.00001   2.09833
    A6        2.09030  -0.00002  -0.00003  -0.00004  -0.00007   2.09023
    A7        2.09455   0.00002   0.00001   0.00007   0.00008   2.09462
    A8        2.11691  -0.00001  -0.00000  -0.00001  -0.00002   2.11689
    A9        2.08652   0.00001  -0.00001   0.00005   0.00004   2.08657
   A10        2.07975  -0.00000   0.00001  -0.00004  -0.00003   2.07973
   A11        2.08910   0.00000  -0.00003   0.00004   0.00001   2.08911
   A12        2.09769  -0.00000   0.00004  -0.00006  -0.00002   2.09767
   A13        2.09640   0.00000  -0.00001   0.00001   0.00001   2.09641
   A14        2.01028  -0.00000   0.00003  -0.00006  -0.00003   2.01025
   A15        2.14310  -0.00000   0.00001  -0.00001  -0.00000   2.14310
   A16        2.12981   0.00001  -0.00003   0.00007   0.00003   2.12984
    D1        0.00000  -0.00000   0.00000  -0.00000   0.00000   0.00000
    D2        3.14159  -0.00000   0.00000  -0.00000   0.00000   3.14159
    D3        0.00000  -0.00000   0.00000  -0.00000   0.00000   0.00000
    D4        3.14159   0.00000   0.00000   0.00000   0.00000   3.14159
    D5        0.00000   0.00000   0.00000   0.00000   0.00000   0.00000
    D6        3.14159  -0.00000   0.00000  -0.00000   0.00000   3.14159
    D7        3.14159   0.00000   0.00000   0.00000   0.00000   3.14159
    D8        0.00000   0.00000   0.00000   0.00000   0.00000   0.00000
    D9        0.00000  -0.00000   0.00000  -0.00000   0.00000   0.00000
   D10        3.14159  -0.00000   0.00000  -0.00000   0.00000   3.14159
   D11        3.14159   0.00000   0.00000   0.00000   0.00000   3.14159
   D12        0.00000  -0.00000   0.00000   0.00000   0.00000   0.00000
   D13        0.00000  -0.00000   0.00000  -0.00000   0.00000   0.00000
   D14        3.14159  -0.00000   0.00000  -0.00000   0.00000   3.14159
   D15        3.14159   0.00000   0.00000   0.00000   0.00000   3.14159
   D16        0.00000   0.00000   0.00000   0.00000   0.00000   0.00000
   D17        0.00000   0.00000   0.00000   0.00000   0.00000   0.00000
   D18        3.14159  -0.00000   0.00000  -0.00000   0.00000   3.14159
   D19        3.14159   0.00000   0.00000   0.00000   0.00000   3.14159
   D20        0.00000   0.00000   0.00000   0.00000   0.00000   0.00000
         Item               Value     Threshold  Converged?
 Maximum Force            0.000052     0.000450     YES
 RMS     Force            0.000014     0.000300     YES
 Maximum Displacement     0.000294     0.001800     YES
 RMS     Displacement     0.000067     0.001200     YES
 Predicted change in Energy=-1.624770D-08
 Optimization completed.
    -- Stationary point found.
                           ----------------------------
                           !   Optimized Parameters   !
                           ! (Angstroms and Degrees)  !
 --------------------------                            --------------------------
 ! Name  Definition              Value          Derivative Info.                !
 --------------------------------------------------------------------------------
 ! R1    R(1,2)                  1.3684         -DE/DX =    0.0                 !
 ! R2    R(1,6)                  1.3763         -DE/DX =    0.0                 !
 ! R3    R(2,3)                  1.4139         -DE/DX =    0.0001              !
 ! R4    R(2,8)                  1.0973         -DE/DX =    0.0                 !
 ! R5    R(3,4)                  1.4082         -DE/DX =    0.0                 !
 ! R6    R(3,9)                  1.6919         -DE/DX =    0.0                 !
 ! R7    R(4,5)                  1.3997         -DE/DX =    0.0                 !
 ! R8    R(4,10)                 1.1012         -DE/DX =    0.0                 !
 ! R9    R(5,6)                  1.4136         -DE/DX =    0.0                 !
 ! R10   R(5,11)                 1.0994         -DE/DX =    0.0                 !
 ! R11   R(6,7)                  1.6825         -DE/DX =    0.0                 !
 ! A1    A(2,1,6)              128.9954         -DE/DX =    0.0                 !
 ! A2    A(1,2,3)              114.6112         -DE/DX =    0.0                 !
 ! A3    A(1,2,8)              122.8096         -DE/DX =    0.0                 !
 ! A4    A(3,2,8)              122.5792         -DE/DX =    0.0                 !
 ! A5    A(2,3,4)              120.2262         -DE/DX =    0.0                 !
 ! A6    A(2,3,9)              119.7652         -DE/DX =    0.0                 !
 ! A7    A(4,3,9)              120.0086         -DE/DX =    0.0                 !
 ! A8    A(3,4,5)              121.2899         -DE/DX =    0.0                 !
 ! A9    A(3,4,10)             119.549          -DE/DX =    0.0                 !
 ! A10   A(5,4,10)             119.1611         -DE/DX =    0.0                 !
 ! A11   A(4,5,6)              119.6967         -DE/DX =    0.0                 !
 ! A12   A(4,5,11)             120.1885         -DE/DX =    0.0                 !
 ! A13   A(6,5,11)             120.1148         -DE/DX =    0.0                 !
 ! A14   A(1,6,5)              115.1806         -DE/DX =    0.0                 !
 ! A15   A(1,6,7)              122.7905         -DE/DX =    0.0                 !
 ! A16   A(5,6,7)              122.029          -DE/DX =    0.0                 !
 ! D1    D(6,1,2,3)              0.0            -DE/DX =    0.0                 !
 ! D2    D(6,1,2,8)            180.0            -DE/DX =    0.0                 !
 ! D3    D(2,1,6,5)              0.0            -DE/DX =    0.0                 !
 ! D4    D(2,1,6,7)            180.0            -DE/DX =    0.0                 !
 ! D5    D(1,2,3,4)              0.0            -DE/DX =    0.0                 !
 ! D6    D(1,2,3,9)            180.0            -DE/DX =    0.0                 !
 ! D7    D(8,2,3,4)            180.0            -DE/DX =    0.0                 !
 ! D8    D(8,2,3,9)              0.0            -DE/DX =    0.0                 !
 ! D9    D(2,3,4,5)              0.0            -DE/DX =    0.0                 !
 ! D10   D(2,3,4,10)           180.0            -DE/DX =    0.0                 !
 ! D11   D(9,3,4,5)            180.0            -DE/DX =    0.0                 !
 ! D12   D(9,3,4,10)             0.0            -DE/DX =    0.0                 !
 ! D13   D(3,4,5,6)              0.0            -DE/DX =    0.0                 !
 ! D14   D(3,4,5,11)           180.0            -DE/DX =    0.0                 !
 ! D15   D(10,4,5,6)           180.0            -DE/DX =    0.0                 !
 ! D16   D(10,4,5,11)            0.0            -DE/DX =    0.0                 !
 ! D17   D(4,5,6,1)              0.0            -DE/DX =    0.0                 !
 ! D18   D(4,5,6,7)            180.0            -DE/DX =    0.0                 !
 ! D19   D(11,5,6,1)           180.0            -DE/DX =    0.0                 !
 ! D20   D(11,5,6,7)             0.0            -DE/DX =    0.0                 !
 --------------------------------------------------------------------------------
 GradGradGradGradGradGradGradGradGradGradGradGradGradGradGradGradGradGrad

                          Input orientation:                          
 ---------------------------------------------------------------------
 Center     Atomic      Atomic             Coordinates (Angstroms)
 Number     Number       Type             X           Y           Z
 ---------------------------------------------------------------------
      1          6           0       -3.063394    0.123471    0.000000
      2          6           0       -1.959763    0.932516    0.000000
      3          6           0       -0.724913    0.243950    0.000000
      4          6           0       -0.698330   -1.164015    0.000000
      5          6           0       -1.880513   -1.913429    0.000000
      6          6           0       -3.129455   -1.251262    0.000000
      7         17           0       -4.585938   -2.093495    0.000000
      8          1           0       -2.025505    2.027892    0.000000
      9         17           0        0.723976    1.117640    0.000000
     10          1           0        0.269697   -1.688896    0.000000
     11          1           0       -1.838633   -3.012072    0.000000
 ---------------------------------------------------------------------
                    Distance matrix (angstroms):
                    1          2          3          4          5
     1  C    0.000000
     2  C    1.368414   0.000000
     3  C    2.341583   1.413852   0.000000
     4  C    2.692796   2.446765   1.408216   0.000000
     5  C    2.355455   2.847049   2.447385   1.399706   0.000000
     6  C    1.376319   2.477311   2.831516   2.432690   1.413620
     7  Cl   2.689438   4.006687   4.513442   3.997178   2.711411
     8  H    2.168878   1.097347   2.207711   3.456829   3.943987
     9  Cl   3.915680   2.690116   1.691926   2.688663   3.996342
    10  H    3.793965   3.441263   2.173740   1.101170   2.161901
    11  H    3.366254   3.946447   3.441228   2.171544   1.099440
                    6          7          8          9         10
     6  C    0.000000
     7  Cl   1.682468   0.000000
     8  H    3.459994   4.851974   0.000000
     9  Cl   4.523343   6.205367   2.896240   0.000000
    10  H    3.427208   4.872462   4.368348   2.843065   0.000000
    11  H    2.183271   2.896803   5.043427   4.860194   2.489146
                   11
    11  H    0.000000
 Stoichiometry    C6H3Cl2(2)
 Framework group  CS[SG(C6H3Cl2)]
 Deg. of freedom    19
 Full point group                 CS      NOp   2
 Largest Abelian subgroup         CS      NOp   2
 Largest concise Abelian subgroup C1      NOp   1
                         Standard orientation:                         
 ---------------------------------------------------------------------
 Center     Atomic      Atomic             Coordinates (Angstroms)
 Number     Number       Type             X           Y           Z
 ---------------------------------------------------------------------
      1          6           0        0.000000   -1.334614    0.000000
      2          6           0       -1.237341   -0.750197    0.000000
      3          6           0       -1.220785    0.663558    0.000000
      4          6           0        0.004195    1.358179    0.000000
      5          6           0        1.226567    0.676282    0.000000
      6          6           0        1.239936   -0.737275    0.000000
      7         17           0        2.674674   -1.616039    0.000000
      8          1           0       -2.168874   -1.330211    0.000000
      9         17           0       -2.679555    1.520650    0.000000
     10          1           0        0.004074    2.459349    0.000000
     11          1           0        2.172348    1.236878    0.000000
 ---------------------------------------------------------------------
 Rotational constants (GHZ):           6.0380473           0.6748102           0.6069749

 **********************************************************************

            Population analysis using the SCF Density.

 **********************************************************************

 Orbital symmetries:
 Alpha Orbitals:
       Occupied  (A') (A') (A') (A') (A') (A') (A') (A') (A') (A')
                 (A') (A") (A') (A") (A') (A') (A') (A") (A') (A")
                 (A")
       Virtual   (A") (A") (A') (A') (A") (A') (A') (A') (A') (A')
                 (A') (A') (A') (A')
 Beta  Orbitals:
       Occupied  (A') (A') (A') (A') (A') (A') (A') (A') (A') (A')
                 (A') (A") (A') (A") (A') (A') (A") (A') (A") (A")
       Virtual   (A') (A") (A") (A') (A') (A") (A') (A') (A') (A')
                 (A') (A') (A') (A') (A')
 The electronic state is 2-A'.
 Alpha  occ. eigenvalues --   -1.47239  -1.40590  -1.37862  -1.17572  -1.14699
 Alpha  occ. eigenvalues --   -0.88582  -0.86265  -0.68051  -0.63401  -0.62128
 Alpha  occ. eigenvalues --   -0.56752  -0.55593  -0.52061  -0.50680  -0.49664
 Alpha  occ. eigenvalues --   -0.45821  -0.44537  -0.44535  -0.39704  -0.39376
 Alpha  occ. eigenvalues --   -0.36180
 Alpha virt. eigenvalues --   -0.00681   0.00345   0.03266   0.04792   0.07828
 Alpha virt. eigenvalues --    0.11984   0.12702   0.13437   0.14124   0.15768
 Alpha virt. eigenvalues --    0.16725   0.17209   0.17683   0.18657
  Beta  occ. eigenvalues --   -1.46554  -1.40534  -1.37624  -1.17152  -1.13594
  Beta  occ. eigenvalues --   -0.88172  -0.84026  -0.67883  -0.62151  -0.61463
  Beta  occ. eigenvalues --   -0.56361  -0.55291  -0.51339  -0.50624  -0.49308
  Beta  occ. eigenvalues --   -0.44900  -0.44324  -0.44266  -0.38814  -0.36122
  Beta virt. eigenvalues --   -0.00771  -0.00663   0.01707   0.03566   0.05277
  Beta virt. eigenvalues --    0.08588   0.12191   0.13089   0.13908   0.14415
  Beta virt. eigenvalues --    0.16089   0.16872   0.17346   0.18738   0.19642
          Condensed to atoms (all electrons):
               1          2          3          4          5          6
     1  C    4.048799   0.000000   0.000000   0.000000   0.000000   0.000000
     2  C    0.000000   4.106633   0.000000   0.000000   0.000000   0.000000
     3  C    0.000000   0.000000   4.063581   0.000000   0.000000   0.000000
     4  C    0.000000   0.000000   0.000000   4.130014   0.000000   0.000000
     5  C    0.000000   0.000000   0.000000   0.000000   4.112132   0.000000
     6  C    0.000000   0.000000   0.000000   0.000000   0.000000   4.063047
     7  Cl   0.000000   0.000000   0.000000   0.000000   0.000000   0.000000
     8  H    0.000000   0.000000   0.000000   0.000000   0.000000   0.000000
     9  Cl   0.000000   0.000000   0.000000   0.000000   0.000000   0.000000
    10  H    0.000000   0.000000   0.000000   0.000000   0.000000   0.000000
    11  H    0.000000   0.000000   0.000000   0.000000   0.000000   0.000000
               7          8          9         10         11
     1  C    0.000000   0.000000   0.000000   0.000000   0.000000
     2  C    0.000000   0.000000   0.000000   0.000000   0.000000
     3  C    0.000000   0.000000   0.000000   0.000000   0.000000
     4  C    0.000000   0.000000   0.000000   0.000000   0.000000
     5  C    0.000000   0.000000   0.000000   0.000000   0.000000
     6  C    0.000000   0.000000   0.000000   0.000000   0.000000
     7  Cl   6.967703   0.000000   0.000000   0.000000   0.000000
     8  H    0.000000   0.825734   0.000000   0.000000   0.000000
     9  Cl   0.000000   0.000000   6.993644   0.000000   0.000000
    10  H    0.000000   0.000000   0.000000   0.845448   0.000000
    11  H    0.000000   0.000000   0.000000   0.000000   0.843266
          Atomic-Atomic Spin Densities.
               1          2          3          4          5          6
     1  C    1.387451   0.000000   0.000000   0.000000   0.000000   0.000000
     2  C    0.000000  -0.493802   0.000000   0.000000   0.000000   0.000000
     3  C    0.000000   0.000000   0.498017   0.000000   0.000000   0.000000
     4  C    0.000000   0.000000   0.000000  -0.458425   0.000000   0.000000
     5  C    0.000000   0.000000   0.000000   0.000000   0.489973   0.000000
     6  C    0.000000   0.000000   0.000000   0.000000   0.000000  -0.478520
     7  Cl   0.000000   0.000000   0.000000   0.000000   0.000000   0.000000
     8  H    0.000000   0.000000   0.000000   0.000000   0.000000   0.000000
     9  Cl   0.000000   0.000000   0.000000   0.000000   0.000000   0.000000
    10  H    0.000000   0.000000   0.000000   0.000000   0.000000   0.000000
    11  H    0.000000   0.000000   0.000000   0.000000   0.000000   0.000000
               7          8          9         10         11
     1  C    0.000000   0.000000   0.000000   0.000000   0.000000
     2  C    0.000000   0.000000   0.000000   0.000000   0.000000
     3  C    0.000000   0.000000   0.000000   0.000000   0.000000
     4  C    0.000000   0.000000   0.000000   0.000000   0.000000
     5  C    0.000000   0.000000   0.000000   0.000000   0.000000
     6  C    0.000000   0.000000   0.000000   0.000000   0.000000
     7  Cl   0.000270   0.000000   0.000000   0.000000   0.000000
     8  H    0.000000   0.033469   0.000000   0.000000   0.000000
     9  Cl   0.000000   0.000000   0.013277   0.000000   0.000000
    10  H    0.000000   0.000000   0.000000   0.026967   0.000000
    11  H    0.000000   0.000000   0.000000   0.000000  -0.018677
 Mulliken charges and spin densities:
               1          2
     1  C   -0.048799   1.387451
     2  C   -0.106633  -0.493802
     3  C   -0.063581   0.498017
     4  C   -0.130014  -0.458425
     5  C   -0.112132   0.489973
     6  C   -0.063047  -0.478520
     7  Cl   0.032297   0.000270
     8  H    0.174266   0.033469
     9  Cl   0.006356   0.013277
    10  H    0.154552   0.026967
    11  H    0.156734  -0.018677
 Sum of Mulliken charges =  -0.00000   1.00000
 Mulliken charges and spin densities with hydrogens summed into heavy atoms:
               1          2
     1  C   -0.048799   1.387451
     2  C    0.067633  -0.460333
     3  C   -0.063581   0.498017
     4  C    0.024538  -0.431457
     5  C    0.044602   0.471296
     6  C   -0.063047  -0.478520
     7  Cl   0.032297   0.000270
     9  Cl   0.006356   0.013277
 Charge=             -0.0000 electrons
 Dipole moment (field-independent basis, Debye):
    X=              0.1151    Y=              1.0135    Z=              0.0000  Tot=              1.0200
 N-N= 1.954847934252D+02 E-N=-2.699555366670D+02  KE=-9.050387573391D+01
 Symmetry A'   KE=-7.011696829211D+01
 Symmetry A"   KE=-2.038690744180D+01
 Symmetry A'   SP= 1.000000000000D+00
 Symmetry A"   SP= 4.385380947269D-15
 1\1\GINC-SH02-01N44\FOpt\UAM1\ZDO\C6H3Cl2(2)\JLAPIER\10-Dec-2025\0\\# 
 opt am1 SCF=XQC\\Neutral Radical (removed 2) 1_4\\0,2\C,-3.063394177,0
 .1234710393,0.\C,-1.9597625198,0.9325164069,0.\C,-0.7249129913,0.24394
 99172,0.\C,-0.6983299158,-1.1640152836,0.\C,-1.8805129635,-1.913429069
 3,0.\C,-3.1294551803,-1.2512621192,0.\Cl,-4.5859378084,-2.0934952511,0
 .\H,-2.0255047014,2.0278920372,0.\Cl,0.7239762843,1.1176404273,0.\H,0.
 2696968014,-1.688896488,0.\H,-1.8386328283,-3.0120716166,0.\\Version=E
 S64L-G16RevB.01\State=2-A'\HF=0.0961013\S2=1.250079\S2-1=0.\S2A=0.9660
 79\RMSD=9.999e-09\RMSF=2.660e-05\Dipole=0.3289185,-0.2298957,0.\PG=CS 
 [SG(C6H3Cl2)]\\@


 WHAT THE SLIME CONTAINS, THE GLOWING REVEALS
 BY THE FLAME'S BRIGHT HUE WHEN YOU IGNITE IT.
   --  LEONARD THURNEYSSER, 1531-1596
 DESCRIBING HIS FLAME PHOTOLYSIS ANALYTIC METHOD
 Job cpu time:       0 days  0 hours  0 minutes 11.8 seconds.
 Elapsed time:       0 days  0 hours  0 minutes 25.7 seconds.
 File lengths (MBytes):  RWF=     10 Int=      0 D2E=      0 Chk=      2 Scr=      1
 Normal termination of Gaussian 16 at Wed Dec 10 10:38:25 2025.
