 Entering Gaussian System, Link 0=g16
 Initial command:
 /share/software/user/restricted/gaussian/g16.B01/l1.exe "/home/users/jlapier/Chloroaromatics/Gau-30731.inp" -scrdir="/home/users/jlapier/Chloroaromatics/"
 Entering Link 1 = /share/software/user/restricted/gaussian/g16.B01/l1.exe PID=     30732.
  
 Copyright (c) 1988-2017, Gaussian, Inc.  All Rights Reserved.
  
 This is part of the Gaussian(R) 16 program.  It is based on
 the Gaussian(R) 09 system (copyright 2009, Gaussian, Inc.),
 the Gaussian(R) 03 system (copyright 2003, Gaussian, Inc.),
 the Gaussian(R) 98 system (copyright 1998, Gaussian, Inc.),
 the Gaussian(R) 94 system (copyright 1995, Gaussian, Inc.),
 the Gaussian 92(TM) system (copyright 1992, Gaussian, Inc.),
 the Gaussian 90(TM) system (copyright 1990, Gaussian, Inc.),
 the Gaussian 88(TM) system (copyright 1988, Gaussian, Inc.),
 the Gaussian 86(TM) system (copyright 1986, Carnegie Mellon
 University), and the Gaussian 82(TM) system (copyright 1983,
 Carnegie Mellon University). Gaussian is a federally registered
 trademark of Gaussian, Inc.
  
 This software contains proprietary and confidential information,
 including trade secrets, belonging to Gaussian, Inc.
  
 This software is provided under written license and may be
 used, copied, transmitted, or stored only in accord with that
 written license.
  
 The following legend is applicable only to US Government
 contracts under FAR:
  
                    RESTRICTED RIGHTS LEGEND
  
 Use, reproduction and disclosure by the US Government is
 subject to restrictions as set forth in subparagraphs (a)
 and (c) of the Commercial Computer Software - Restricted
 Rights clause in FAR 52.227-19.
  
 Gaussian, Inc.
 340 Quinnipiac St., Bldg. 40, Wallingford CT 06492
  
  
 ---------------------------------------------------------------
 Warning -- This program may not be used in any manner that
 competes with the business of Gaussian, Inc. or will provide
 assistance to any competitor of Gaussian, Inc.  The licensee
 of this program is prohibited from giving any competitor of
 Gaussian, Inc. access to this program.  By using this program,
 the user acknowledges that Gaussian, Inc. is engaged in the
 business of creating and licensing software in the field of
 computational chemistry and represents and warrants to the
 licensee that it is not a competitor of Gaussian, Inc. and that
 it will not use this program in any manner prohibited above.
 ---------------------------------------------------------------
  

 Cite this work as:
 Gaussian 16, Revision B.01,
 M. J. Frisch, G. W. Trucks, H. B. Schlegel, G. E. Scuseria, 
 M. A. Robb, J. R. Cheeseman, G. Scalmani, V. Barone, 
 G. A. Petersson, H. Nakatsuji, X. Li, M. Caricato, A. V. Marenich, 
 J. Bloino, B. G. Janesko, R. Gomperts, B. Mennucci, H. P. Hratchian, 
 J. V. Ortiz, A. F. Izmaylov, J. L. Sonnenberg, D. Williams-Young, 
 F. Ding, F. Lipparini, F. Egidi, J. Goings, B. Peng, A. Petrone, 
 T. Henderson, D. Ranasinghe, V. G. Zakrzewski, J. Gao, N. Rega, 
 G. Zheng, W. Liang, M. Hada, M. Ehara, K. Toyota, R. Fukuda, 
 J. Hasegawa, M. Ishida, T. Nakajima, Y. Honda, O. Kitao, H. Nakai, 
 T. Vreven, K. Throssell, J. A. Montgomery, Jr., J. E. Peralta, 
 F. Ogliaro, M. J. Bearpark, J. J. Heyd, E. N. Brothers, K. N. Kudin, 
 V. N. Staroverov, T. A. Keith, R. Kobayashi, J. Normand, 
 K. Raghavachari, A. P. Rendell, J. C. Burant, S. S. Iyengar, 
 J. Tomasi, M. Cossi, J. M. Millam, M. Klene, C. Adamo, R. Cammi, 
 J. W. Ochterski, R. L. Martin, K. Morokuma, O. Farkas, 
 J. B. Foresman, and D. J. Fox, Gaussian, Inc., Wallingford CT, 2016.
 
 ******************************************
 Gaussian 16:  ES64L-G16RevB.01 20-Dec-2017
                 9-Dec-2025 
 ******************************************
 %mem=2GB
 %nprocshare=1
 Will use up to    1 processors via shared memory.
 %chk=geometry_chks/1245ClBzAnionRadical.chk
 -----------------
 # opt am1 SCF=XQC
 -----------------
 1/18=20,19=15,26=1,38=1/1,3;
 2/9=110,12=2,17=6,18=5,40=1/2;
 3/5=2,25=1,41=700000,71=1/1,2,3;
 4/35=1/1;
 5/5=2,8=3,13=1,35=1,38=5/2,8;
 6/7=2,8=2,9=2,10=2,28=1/1;
 7//1,2,3,16;
 1/18=20,19=15,26=1/3(2);
 2/9=110/2;
 99//99;
 2/9=110/2;
 3/5=2,25=1,41=700000,71=1,135=20/1,2,3;
 4/5=5,16=3,35=1/1;
 5/5=2,8=3,13=1,35=1,38=5/2,8;
 7//1,2,3,16;
 1/18=20,19=15,26=1/3(-5);
 2/9=110/2;
 6/7=2,8=2,9=2,10=2,19=2,28=1/1;
 99/9=1/99;
 -------------------------------------
 4-Chloro-Benzene Anion Radical (1245)
 -------------------------------------
 Symbolic Z-matrix:
 Charge = -1 Multiplicity = 2
 C                    -3.20928   0.19943   0. 
 C                    -2.0115    0.93555   0. 
 C                    -0.77511   0.2663    0. 
 C                    -0.7365   -1.13907   0. 
 C                    -1.93429  -1.87519   0. 
 C                    -3.17067  -1.20594   0. 
 Cl                   -4.67483  -2.13035   0. 
 Cl                   -4.76193   1.03987   0. 
 H                     0.81614  -1.97951   0. 
 Cl                   -1.8858   -3.64003   0. 
 Cl                   -2.05998   2.7004    0. 
 H                     0.72905   1.19071   0. 
 
 Add virtual bond connecting atoms H9         and C4         Dist= 3.34D+00.
 Add virtual bond connecting atoms H12        and C3         Dist= 3.34D+00.

 GradGradGradGradGradGradGradGradGradGradGradGradGradGradGradGradGradGrad
 Berny optimization.
 Initialization pass.
                           ----------------------------
                           !    Initial Parameters    !
                           ! (Angstroms and Degrees)  !
 --------------------------                            --------------------------
 ! Name  Definition              Value          Derivative Info.                !
 --------------------------------------------------------------------------------
 ! R1    R(1,2)                  1.4059         estimate D2E/DX2                !
 ! R2    R(1,6)                  1.4059         estimate D2E/DX2                !
 ! R3    R(1,8)                  1.7655         estimate D2E/DX2                !
 ! R4    R(2,3)                  1.4059         estimate D2E/DX2                !
 ! R5    R(2,11)                 1.7655         estimate D2E/DX2                !
 ! R6    R(3,4)                  1.4059         estimate D2E/DX2                !
 ! R7    R(3,12)                 1.7655         estimate D2E/DX2                !
 ! R8    R(4,5)                  1.4059         estimate D2E/DX2                !
 ! R9    R(4,9)                  1.7655         estimate D2E/DX2                !
 ! R10   R(5,6)                  1.4059         estimate D2E/DX2                !
 ! R11   R(5,10)                 1.7655         estimate D2E/DX2                !
 ! R12   R(6,7)                  1.7655         estimate D2E/DX2                !
 ! A1    A(2,1,6)              119.9999         estimate D2E/DX2                !
 ! A2    A(2,1,8)              119.9999         estimate D2E/DX2                !
 ! A3    A(6,1,8)              120.0001         estimate D2E/DX2                !
 ! A4    A(1,2,3)              120.0            estimate D2E/DX2                !
 ! A5    A(1,2,11)             120.0001         estimate D2E/DX2                !
 ! A6    A(3,2,11)             119.9999         estimate D2E/DX2                !
 ! A7    A(2,3,4)              120.0001         estimate D2E/DX2                !
 ! A8    A(2,3,12)             120.0            estimate D2E/DX2                !
 ! A9    A(4,3,12)             119.9999         estimate D2E/DX2                !
 ! A10   A(3,4,5)              119.9997         estimate D2E/DX2                !
 ! A11   A(3,4,9)              120.0003         estimate D2E/DX2                !
 ! A12   A(5,4,9)              120.0            estimate D2E/DX2                !
 ! A13   A(4,5,6)              120.0            estimate D2E/DX2                !
 ! A14   A(4,5,10)             119.9996         estimate D2E/DX2                !
 ! A15   A(6,5,10)             120.0004         estimate D2E/DX2                !
 ! A16   A(1,6,5)              120.0003         estimate D2E/DX2                !
 ! A17   A(1,6,7)              119.9999         estimate D2E/DX2                !
 ! A18   A(5,6,7)              119.9998         estimate D2E/DX2                !
 ! D1    D(6,1,2,3)              0.0            estimate D2E/DX2                !
 ! D2    D(6,1,2,11)           180.0            estimate D2E/DX2                !
 ! D3    D(8,1,2,3)            180.0            estimate D2E/DX2                !
 ! D4    D(8,1,2,11)             0.0            estimate D2E/DX2                !
 ! D5    D(2,1,6,5)              0.0            estimate D2E/DX2                !
 ! D6    D(2,1,6,7)            180.0            estimate D2E/DX2                !
 ! D7    D(8,1,6,5)            180.0            estimate D2E/DX2                !
 ! D8    D(8,1,6,7)              0.0            estimate D2E/DX2                !
 ! D9    D(1,2,3,4)              0.0            estimate D2E/DX2                !
 ! D10   D(1,2,3,12)           180.0            estimate D2E/DX2                !
 ! D11   D(11,2,3,4)           180.0            estimate D2E/DX2                !
 ! D12   D(11,2,3,12)            0.0            estimate D2E/DX2                !
 ! D13   D(2,3,4,5)              0.0            estimate D2E/DX2                !
 ! D14   D(2,3,4,9)            180.0            estimate D2E/DX2                !
 ! D15   D(12,3,4,5)           180.0            estimate D2E/DX2                !
 ! D16   D(12,3,4,9)             0.0            estimate D2E/DX2                !
 ! D17   D(3,4,5,6)              0.0            estimate D2E/DX2                !
 ! D18   D(3,4,5,10)           180.0            estimate D2E/DX2                !
 ! D19   D(9,4,5,6)            180.0            estimate D2E/DX2                !
 ! D20   D(9,4,5,10)             0.0            estimate D2E/DX2                !
 ! D21   D(4,5,6,1)              0.0            estimate D2E/DX2                !
 ! D22   D(4,5,6,7)            180.0            estimate D2E/DX2                !
 ! D23   D(10,5,6,1)           180.0            estimate D2E/DX2                !
 ! D24   D(10,5,6,7)             0.0            estimate D2E/DX2                !
 --------------------------------------------------------------------------------
 Trust Radius=3.00D-01 FncErr=1.00D-07 GrdErr=1.00D-07 EigMax=2.50D+02 EigMin=1.00D-04
 Number of steps in this run=     64 maximum allowed number of steps=    100.
 GradGradGradGradGradGradGradGradGradGradGradGradGradGradGradGradGradGrad

                          Input orientation:                          
 ---------------------------------------------------------------------
 Center     Atomic      Atomic             Coordinates (Angstroms)
 Number     Number       Type             X           Y           Z
 ---------------------------------------------------------------------
      1          6           0       -3.209280    0.199430    0.000000
      2          6           0       -2.011500    0.935550    0.000000
      3          6           0       -0.775110    0.266300    0.000000
      4          6           0       -0.736500   -1.139070    0.000000
      5          6           0       -1.934290   -1.875190    0.000000
      6          6           0       -3.170670   -1.205940    0.000000
      7         17           0       -4.674830   -2.130350    0.000000
      8         17           0       -4.761930    1.039870    0.000000
      9          1           0        0.816140   -1.979510    0.000000
     10         17           0       -1.885800   -3.640030    0.000000
     11         17           0       -2.059980    2.700400    0.000000
     12          1           0        0.729050    1.190710    0.000000
 ---------------------------------------------------------------------
                    Distance matrix (angstroms):
                    1          2          3          4          5
     1  C    0.000000
     2  C    1.405898   0.000000
     3  C    2.435088   1.405900   0.000000
     4  C    2.811801   2.435092   1.405900   0.000000
     5  C    2.435087   2.811800   2.435093   1.405907   0.000000
     6  C    1.405900   2.435088   2.811796   2.435088   1.405892
     7  Cl   2.752401   4.061166   4.577308   4.061167   2.752393
     8  Cl   1.765520   2.752408   4.061175   4.577321   4.061173
     9  H    4.577312   4.061173   2.752406   1.765511   2.752408
    10  Cl   4.061164   4.577306   4.061163   2.752397   1.765506
    11  Cl   2.752406   1.765516   2.752405   4.061173   4.577316
    12  H    4.061167   2.752403   1.765512   2.752401   4.061173
                    6          7          8          9         10
     6  C    0.000000
     7  Cl   1.765512   0.000000
     8  Cl   2.752412   3.171416   0.000000
     9  H    4.061165   5.493041   6.342832   0.000000
    10  Cl   2.752396   3.171407   5.493049   3.171404   0.000000
    11  Cl   4.061173   5.493049   3.171418   5.493052   6.342822
    12  H    4.577308   6.342819   5.493051   3.171416   5.493040
                   11         12
    11  Cl   0.000000
    12  H    3.171412   0.000000
 Stoichiometry    C6H2Cl4(1-,2)
 Framework group  CS[SG(C6H2Cl4)]
 Deg. of freedom    21
 Full point group                 CS      NOp   2
 Largest Abelian subgroup         CS      NOp   2
 Largest concise Abelian subgroup C1      NOp   1
                         Standard orientation:                         
 ---------------------------------------------------------------------
 Center     Atomic      Atomic             Coordinates (Angstroms)
 Number     Number       Type             X           Y           Z
 ---------------------------------------------------------------------
      1          6           0       -0.414568   -0.687842    0.000000
      2          6           0       -1.632112    0.015106    0.000000
      3          6           0       -1.632112    1.421006    0.000000
      4          6           0       -0.414568    2.123958    0.000000
      5          6           0        0.802981    1.421001    0.000000
      6          6           0        0.802976    0.015110    0.000000
      7         17           0        2.331954   -0.867646    0.000000
      8         17           0       -0.414569   -2.453363    0.000000
      9          1           0       -0.414563    3.889470    0.000000
     10         17           0        2.331950    2.303761    0.000000
     11         17           0       -3.161095   -0.867650    0.000000
     12          1           0       -3.161090    2.303762    0.000000
 ---------------------------------------------------------------------
 Rotational constants (GHZ):           1.1200143           0.5289139           0.3592583
 Standard basis: VSTO-6G (5D, 7F)
 There are    32 symmetry adapted cartesian basis functions of A'  symmetry.
 There are    10 symmetry adapted cartesian basis functions of A"  symmetry.
 There are    32 symmetry adapted basis functions of A'  symmetry.
 There are    10 symmetry adapted basis functions of A"  symmetry.
    42 basis functions,   252 primitive gaussians,    42 cartesian basis functions
    28 alpha electrons       27 beta electrons
       nuclear repulsion energy       301.7401241028 Hartrees.
 Integral buffers will be    131072 words long.
 Regular integral format.
 Two-electron integral symmetry is turned off.
 Do NDO integrals.
 One-electron integrals computed using PRISM.
 NBasis=    42 RedAO= T EigKep=  1.00D+00  NBF=    32    10
 NBsUse=    42 1.00D-06 EigRej= -1.00D+00 NBFU=    32    10
 Simple Huckel Guess.
 Initial guess orbital symmetries:
 Alpha Orbitals:
       Occupied  (A') (A') (A') (A') (A') (A') (A') (A') (A') (A')
                 (A") (A') (A') (A') (A') (A") (A") (A') (A') (A")
                 (A") (A') (A') (A') (A') (A") (A") (A')
       Virtual   (A") (A") (A') (A") (A') (A') (A') (A') (A') (A')
                 (A') (A') (A') (A')
 Beta  Orbitals:
       Occupied  (A') (A') (A') (A') (A') (A') (A') (A') (A') (A')
                 (A") (A') (A') (A') (A') (A") (A") (A') (A') (A")
                 (A") (A') (A') (A') (A') (A") (A")
       Virtual   (A') (A") (A") (A') (A") (A') (A') (A') (A') (A')
                 (A') (A') (A') (A') (A')
 The electronic state of the initial guess is 2-A'.
 Initial guess <Sx>= 0.0000 <Sy>= 0.0000 <Sz>= 0.5000 <S**2>= 0.7500 S= 0.5000
 Keep J ints in memory in canonical form, NReq=864594.
 Overlap will be assumed to be unity.
 Requested convergence on RMS density matrix=1.00D-08 within  32 cycles.
 Requested convergence on MAX density matrix=1.00D-06.
 Requested convergence on             energy=1.00D-06.
 No special actions if energy rises.
 Fock symm off for IB=2 I1=    1 I=   33 J=   14 Cut=1.00D-07 Err=2.73D-03
 Fock matrix is not symmetric: symmetry in diagonalization turned off.
 SCF Done:  E(UAM1) =  0.204767665975     A.U. after   23 cycles
            NFock= 22  Conv=0.20D-08     -V/T= 1.0015
 <Sx>= 0.0000 <Sy>= 0.0000 <Sz>= 0.5000 <S**2>= 1.0627 S= 0.6457
 <L.S>=  0.00000000000    
 Annihilation of the first spin contaminant:
 S**2 before annihilation     1.0627,   after     0.7566
 QCSCF skips out because SCF is already converged.

 **********************************************************************

            Population analysis using the SCF Density.

 **********************************************************************

 Orbital symmetries:
 Alpha Orbitals:
       Occupied  (A') (A') (A') (A') (A') (A') (A') (A') (A') (A')
                 (A') (A') (A") (A') (A') (A") (A") (A") (A') (A')
                 (A') (A') (A") (A') (A') (A") (A") (A')
       Virtual   (A') (A") (A") (A') (A') (A') (A') (A") (A') (A')
                 (A') (A') (A') (A')
 Beta  Orbitals:
       Occupied  (A') (A') (A') (A') (A') (A') (A') (A') (A') (A')
                 (A') (A') (A") (A') (A') (A") (A") (A") (A') (A')
                 (A') (A') (A") (A') (A") (A') (A")
       Virtual   (A") (A") (A') (A') (A') (A') (A') (A") (A') (A')
                 (A') (A') (A') (A') (A')
 The electronic state is 2-A'.
 Alpha  occ. eigenvalues --   -1.29443  -1.24482  -1.23627  -1.22916  -1.20251
 Alpha  occ. eigenvalues --   -0.97523  -0.95709  -0.69824  -0.68493  -0.51598
 Alpha  occ. eigenvalues --   -0.47086  -0.45645  -0.41658  -0.41513  -0.37142
 Alpha  occ. eigenvalues --   -0.35775  -0.33969  -0.33035  -0.32388  -0.32258
 Alpha  occ. eigenvalues --   -0.30179  -0.29872  -0.28235  -0.26566  -0.23333
 Alpha  occ. eigenvalues --   -0.20265  -0.19531  -0.07427
 Alpha virt. eigenvalues --    0.13919   0.14981   0.14999   0.15355   0.16906
 Alpha virt. eigenvalues --    0.18805   0.19645   0.25457   0.29229   0.29308
 Alpha virt. eigenvalues --    0.30943   0.33242   0.34173   0.37973
  Beta  occ. eigenvalues --   -1.29539  -1.24502  -1.23625  -1.22799  -1.20244
  Beta  occ. eigenvalues --   -0.97721  -0.96087  -0.70016  -0.68984  -0.51670
  Beta  occ. eigenvalues --   -0.47276  -0.45864  -0.41677  -0.41660  -0.37204
  Beta  occ. eigenvalues --   -0.35757  -0.33979  -0.33019  -0.32369  -0.32327
  Beta  occ. eigenvalues --   -0.30010  -0.29872  -0.28310  -0.23670  -0.20232
  Beta  occ. eigenvalues --   -0.20130  -0.20021
  Beta virt. eigenvalues --    0.14728   0.14774   0.15221   0.16936   0.17887
  Beta virt. eigenvalues --    0.19529   0.24456   0.24647   0.24867   0.29352
  Beta virt. eigenvalues --    0.29414   0.30743   0.32425   0.34359   0.36518
          Condensed to atoms (all electrons):
               1          2          3          4          5          6
     1  C    4.069948   0.000000   0.000000   0.000000   0.000000   0.000000
     2  C    0.000000   4.028462   0.000000   0.000000   0.000000   0.000000
     3  C    0.000000   0.000000   4.166277   0.000000   0.000000   0.000000
     4  C    0.000000   0.000000   0.000000   4.166270   0.000000   0.000000
     5  C    0.000000   0.000000   0.000000   0.000000   4.028471   0.000000
     6  C    0.000000   0.000000   0.000000   0.000000   0.000000   4.069945
     7  Cl   0.000000   0.000000   0.000000   0.000000   0.000000   0.000000
     8  Cl   0.000000   0.000000   0.000000   0.000000   0.000000   0.000000
     9  H    0.000000   0.000000   0.000000   0.000000   0.000000   0.000000
    10  Cl   0.000000   0.000000   0.000000   0.000000   0.000000   0.000000
    11  Cl   0.000000   0.000000   0.000000   0.000000   0.000000   0.000000
    12  H    0.000000   0.000000   0.000000   0.000000   0.000000   0.000000
               7          8          9         10         11         12
     1  C    0.000000   0.000000   0.000000   0.000000   0.000000   0.000000
     2  C    0.000000   0.000000   0.000000   0.000000   0.000000   0.000000
     3  C    0.000000   0.000000   0.000000   0.000000   0.000000   0.000000
     4  C    0.000000   0.000000   0.000000   0.000000   0.000000   0.000000
     5  C    0.000000   0.000000   0.000000   0.000000   0.000000   0.000000
     6  C    0.000000   0.000000   0.000000   0.000000   0.000000   0.000000
     7  Cl   7.075890   0.000000   0.000000   0.000000   0.000000   0.000000
     8  Cl   0.000000   7.075892   0.000000   0.000000   0.000000   0.000000
     9  H    0.000000   0.000000   1.055844   0.000000   0.000000   0.000000
    10  Cl   0.000000   0.000000   0.000000   7.103576   0.000000   0.000000
    11  Cl   0.000000   0.000000   0.000000   0.000000   7.103582   0.000000
    12  H    0.000000   0.000000   0.000000   0.000000   0.000000   1.055843
          Atomic-Atomic Spin Densities.
               1          2          3          4          5          6
     1  C   -0.000408   0.000000   0.000000   0.000000   0.000000   0.000000
     2  C    0.000000  -0.021207   0.000000   0.000000   0.000000   0.000000
     3  C    0.000000   0.000000  -0.170713   0.000000   0.000000   0.000000
     4  C    0.000000   0.000000   0.000000  -0.170713   0.000000   0.000000
     5  C    0.000000   0.000000   0.000000   0.000000  -0.021205   0.000000
     6  C    0.000000   0.000000   0.000000   0.000000   0.000000  -0.000412
     7  Cl   0.000000   0.000000   0.000000   0.000000   0.000000   0.000000
     8  Cl   0.000000   0.000000   0.000000   0.000000   0.000000   0.000000
     9  H    0.000000   0.000000   0.000000   0.000000   0.000000   0.000000
    10  Cl   0.000000   0.000000   0.000000   0.000000   0.000000   0.000000
    11  Cl   0.000000   0.000000   0.000000   0.000000   0.000000   0.000000
    12  H    0.000000   0.000000   0.000000   0.000000   0.000000   0.000000
               7          8          9         10         11         12
     1  C    0.000000   0.000000   0.000000   0.000000   0.000000   0.000000
     2  C    0.000000   0.000000   0.000000   0.000000   0.000000   0.000000
     3  C    0.000000   0.000000   0.000000   0.000000   0.000000   0.000000
     4  C    0.000000   0.000000   0.000000   0.000000   0.000000   0.000000
     5  C    0.000000   0.000000   0.000000   0.000000   0.000000   0.000000
     6  C    0.000000   0.000000   0.000000   0.000000   0.000000   0.000000
     7  Cl  -0.007647   0.000000   0.000000   0.000000   0.000000   0.000000
     8  Cl   0.000000  -0.007647   0.000000   0.000000   0.000000   0.000000
     9  H    0.000000   0.000000   0.677630   0.000000   0.000000   0.000000
    10  Cl   0.000000   0.000000   0.000000   0.022346   0.000000   0.000000
    11  Cl   0.000000   0.000000   0.000000   0.000000   0.022348   0.000000
    12  H    0.000000   0.000000   0.000000   0.000000   0.000000   0.677629
 Mulliken charges and spin densities:
               1          2
     1  C   -0.069948  -0.000408
     2  C   -0.028462  -0.021207
     3  C   -0.166277  -0.170713
     4  C   -0.166270  -0.170713
     5  C   -0.028471  -0.021205
     6  C   -0.069945  -0.000412
     7  Cl  -0.075890  -0.007647
     8  Cl  -0.075892  -0.007647
     9  H   -0.055844   0.677630
    10  Cl  -0.103576   0.022346
    11  Cl  -0.103582   0.022348
    12  H   -0.055843   0.677629
 Sum of Mulliken charges =  -1.00000   1.00000
 Mulliken charges and spin densities with hydrogens summed into heavy atoms:
               1          2
     1  C   -0.069948  -0.000408
     2  C   -0.028462  -0.021207
     3  C   -0.222120   0.506916
     4  C   -0.222114   0.506917
     5  C   -0.028471  -0.021205
     6  C   -0.069945  -0.000412
     7  Cl  -0.075890  -0.007647
     8  Cl  -0.075892  -0.007647
    10  Cl  -0.103576   0.022346
    11  Cl  -0.103582   0.022348
 Charge=             -1.0000 electrons
 Dipole moment (field-independent basis, Debye):
    X=              2.9784    Y=             -5.1587    Z=              0.0000  Tot=              5.9567
 N-N= 3.017401241028D+02 E-N=-4.359960632300D+02  KE=-1.357915730812D+02
 Symmetry A'   KE=-1.041266262185D+02
 Symmetry A"   KE=-3.166494686274D+01
 Symmetry A'   SP= 1.000000000000D+00
 Symmetry A"   SP= 4.329869796038D-15
 Calling FoFJK, ICntrl=      2127 FMM=F ISym2X=1 I1Cent= 0 IOpClX= 1 NMat=1 NMatS=1 NMatT=0.
 ***** Axes restored to original set *****
 -------------------------------------------------------------------
 Center     Atomic                   Forces (Hartrees/Bohr)
 Number     Number              X              Y              Z
 -------------------------------------------------------------------
      1        6          -0.018248834    0.004924130    0.000000000
      2        6           0.034749587    0.007526696   -0.000000000
      3        6           0.006144848   -0.031851288    0.000000000
      4        6           0.004382908    0.032139140    0.000000000
      5        6           0.035120493   -0.005605108   -0.000000000
      6        6          -0.017955248   -0.005913310    0.000000000
      7       17           0.024841361    0.016402340   -0.000000000
      8       17           0.025708658   -0.015015883   -0.000000000
      9        1          -0.048069131    0.026323691   -0.000000000
     10       17          -0.000799080    0.026846203   -0.000000000
     11       17           0.000676183   -0.026853561   -0.000000000
     12        1          -0.046551744   -0.028923051   -0.000000000
 -------------------------------------------------------------------
 Cartesian Forces:  Max     0.048069131 RMS     0.020118213

 GradGradGradGradGradGradGradGradGradGradGradGradGradGradGradGradGradGrad
 Berny optimization.
 FormGI is forming the generalized inverse of G from B-inverse, IUseBI=4.
 Internal  Forces:  Max     0.073198603 RMS     0.018985431
 Search for a local minimum.
 Step number   1 out of a maximum of   64
 All quantities printed in internal units (Hartrees-Bohrs-Radians)
 Mixed Optimization -- RFO/linear search
 Second derivative matrix not updated -- first step.
 ITU=  0
     Eigenvalues ---    0.02011   0.02011   0.02011   0.02011   0.02011
     Eigenvalues ---    0.02011   0.02011   0.02011   0.02011   0.06524
     Eigenvalues ---    0.06524   0.16000   0.16000   0.22488   0.24492
     Eigenvalues ---    0.25000   0.25000   0.25000   0.25000   0.25000
     Eigenvalues ---    0.29033   0.29033   0.29033   0.29034   0.40957
     Eigenvalues ---    0.41136   0.44656   0.44657   0.44657   0.44657
 RFO step:  Lambda=-7.27497361D-02 EMin= 2.01065826D-02
 Linear search not attempted -- first point.
 Maximum step size (   0.300) exceeded in Quadratic search.
    -- Step size scaled by   0.486
 Iteration  1 RMS(Cart)=  0.05168654 RMS(Int)=  0.00013550
 Iteration  2 RMS(Cart)=  0.00027794 RMS(Int)=  0.00004152
 Iteration  3 RMS(Cart)=  0.00000005 RMS(Int)=  0.00004152
 ClnCor:  largest displacement from symmetrization is 8.14D-10 for atom     8.
 Variable       Old X    -DE/DX   Delta X   Delta X   Delta X     New X
                                 (Linear)    (Quad)   (Total)
    R1        2.65676  -0.00959   0.00000  -0.00787  -0.00790   2.64886
    R2        2.65677  -0.01703   0.00000  -0.01373  -0.01380   2.64296
    R3        3.33635  -0.02976   0.00000  -0.03986  -0.03986   3.29649
    R4        2.65677  -0.04320   0.00000  -0.04157  -0.04153   2.61524
    R5        3.33634  -0.02686   0.00000  -0.03598  -0.03598   3.30036
    R6        2.65677  -0.07320   0.00000  -0.07076  -0.07069   2.58608
    R7        3.33633  -0.05480   0.00000  -0.19314  -0.19314   3.14319
    R8        2.65678  -0.04321   0.00000  -0.04157  -0.04153   2.61525
    R9        3.33633  -0.05480   0.00000  -0.19314  -0.19314   3.14319
   R10        2.65675  -0.00958   0.00000  -0.00786  -0.00790   2.64885
   R11        3.33632  -0.02686   0.00000  -0.03597  -0.03597   3.30035
   R12        3.33633  -0.02975   0.00000  -0.03985  -0.03985   3.29649
    A1        2.09439  -0.00745   0.00000  -0.00617  -0.00628   2.08811
    A2        2.09439   0.00534   0.00000   0.00552   0.00557   2.09997
    A3        2.09440   0.00211   0.00000   0.00065   0.00071   2.09511
    A4        2.09439  -0.00462   0.00000  -0.00738  -0.00738   2.08702
    A5        2.09440   0.00221   0.00000   0.00353   0.00353   2.09793
    A6        2.09439   0.00241   0.00000   0.00384   0.00384   2.09824
    A7        2.09440   0.01207   0.00000   0.01355   0.01366   2.10806
    A8        2.09440  -0.00559   0.00000  -0.00584  -0.00590   2.08850
    A9        2.09439  -0.00648   0.00000  -0.00771  -0.00776   2.08663
   A10        2.09439   0.01207   0.00000   0.01355   0.01366   2.10805
   A11        2.09440  -0.00648   0.00000  -0.00771  -0.00776   2.08664
   A12        2.09440  -0.00559   0.00000  -0.00584  -0.00590   2.08850
   A13        2.09439  -0.00462   0.00000  -0.00738  -0.00738   2.08702
   A14        2.09439   0.00241   0.00000   0.00384   0.00384   2.09823
   A15        2.09440   0.00221   0.00000   0.00353   0.00353   2.09794
   A16        2.09440  -0.00745   0.00000  -0.00617  -0.00628   2.08812
   A17        2.09439   0.00211   0.00000   0.00065   0.00071   2.09510
   A18        2.09439   0.00534   0.00000   0.00552   0.00557   2.09997
    D1        0.00000  -0.00000   0.00000  -0.00000   0.00000   0.00000
    D2        3.14159  -0.00000   0.00000  -0.00000   0.00000   3.14159
    D3        3.14159   0.00000   0.00000   0.00000   0.00000   3.14159
    D4        0.00000   0.00000   0.00000   0.00000   0.00000   0.00000
    D5        0.00000   0.00000   0.00000   0.00000   0.00000   0.00000
    D6        3.14159   0.00000   0.00000   0.00000   0.00000   3.14159
    D7        3.14159  -0.00000   0.00000  -0.00000   0.00000   3.14159
    D8        0.00000  -0.00000   0.00000  -0.00000   0.00000   0.00000
    D9        0.00000   0.00000   0.00000   0.00000   0.00000   0.00000
   D10        3.14159  -0.00000   0.00000  -0.00000   0.00000   3.14159
   D11        3.14159   0.00000   0.00000   0.00000   0.00000   3.14159
   D12        0.00000   0.00000   0.00000   0.00000   0.00000   0.00000
   D13        0.00000   0.00000   0.00000   0.00000   0.00000   0.00000
   D14        3.14159  -0.00000   0.00000  -0.00000   0.00000   3.14159
   D15        3.14159   0.00000   0.00000   0.00000   0.00000   3.14159
   D16        0.00000  -0.00000   0.00000  -0.00000   0.00000   0.00000
   D17        0.00000  -0.00000   0.00000  -0.00000   0.00000   0.00000
   D18        3.14159  -0.00000   0.00000  -0.00000   0.00000   3.14159
   D19        3.14159   0.00000   0.00000   0.00000   0.00000   3.14159
   D20        0.00000   0.00000   0.00000   0.00000   0.00000   0.00000
   D21        0.00000   0.00000   0.00000   0.00000   0.00000   0.00000
   D22        3.14159  -0.00000   0.00000  -0.00000   0.00000   3.14159
   D23        3.14159   0.00000   0.00000   0.00000   0.00000   3.14159
   D24        0.00000  -0.00000   0.00000  -0.00000   0.00000   0.00000
         Item               Value     Threshold  Converged?
 Maximum Force            0.073199     0.000450     NO 
 RMS     Force            0.018985     0.000300     NO 
 Maximum Displacement     0.180320     0.001800     NO 
 RMS     Displacement     0.051686     0.001200     NO 
 Predicted change in Energy=-3.005077D-02
 GradGradGradGradGradGradGradGradGradGradGradGradGradGradGradGradGradGrad

                          Input orientation:                          
 ---------------------------------------------------------------------
 Center     Atomic      Atomic             Coordinates (Angstroms)
 Number     Number       Type             X           Y           Z
 ---------------------------------------------------------------------
      1          6           0       -3.192481    0.196239    0.000000
      2          6           0       -1.993677    0.922650    0.000000
      3          6           0       -0.785724    0.247298    0.000000
      4          6           0       -0.748142   -1.120680    0.000000
      5          6           0       -1.917199   -1.861331    0.000000
      6          6           0       -3.154073   -1.201830    0.000000
      7         17           0       -4.639619   -2.116253    0.000000
      8         17           0       -4.725993    1.027729    0.000000
      9          1           0        0.720719   -1.901090    0.000000
     10         17           0       -1.852095   -3.606588    0.000000
     11         17           0       -2.024493    2.668856    0.000000
     12          1           0        0.638077    1.107170    0.000000
 ---------------------------------------------------------------------
                    Distance matrix (angstroms):
                    1          2          3          4          5
     1  C    0.000000
     2  C    1.401716   0.000000
     3  C    2.407298   1.383925   0.000000
     4  C    2.776521   2.393023   1.368495   0.000000
     5  C    2.420731   2.785032   2.393022   1.383929   0.000000
     6  C    1.398596   2.420730   2.776517   2.407300   1.401713
     7  Cl   2.727971   4.029386   4.520938   4.016810   2.734329
     8  Cl   1.744430   2.734336   4.016813   4.520947   4.029391
     9  H    4.439811   3.916816   2.623918   1.663307   2.638218
    10  Cl   4.032137   4.531451   3.998698   2.720010   1.746471
    11  Cl   2.734599   1.746477   2.720016   3.998706   4.531457
    12  H    3.937381   2.638214   1.663307   2.623912   3.916814
                    6          7          8          9         10
     6  C    0.000000
     7  Cl   1.744425   0.000000
     8  Cl   2.727978   3.145169   0.000000
     9  H    3.937382   5.364655   6.184226   0.000000
    10  Cl   2.734595   3.160916   5.453090   3.086761   0.000000
    11  Cl   4.032140   5.453087   3.160917   5.331096   6.277811
    12  H    4.439806   6.184216   5.364658   3.009394   5.331085
                   11         12
    11  Cl   0.000000
    12  H    3.086769   0.000000
 Stoichiometry    C6H2Cl4(1-,2)
 Framework group  CS[SG(C6H2Cl4)]
 Deg. of freedom    21
 Full point group                 CS      NOp   2
 Largest Abelian subgroup         CS      NOp   2
 Largest concise Abelian subgroup C1      NOp   1
                         Standard orientation:                         
 ---------------------------------------------------------------------
 Center     Atomic      Atomic             Coordinates (Angstroms)
 Number     Number       Type             X           Y           Z
 ---------------------------------------------------------------------
      1          6           0        0.000000   -0.803176    0.000000
      2          6           0       -1.401709   -0.807480    0.000000
      3          6           0       -2.088504    0.394003    0.000000
      4          6           0       -1.415373    1.585503    0.000000
      5          6           0       -0.031810    1.617346    0.000000
      6          6           0        0.687938    0.414532    0.000000
      7         17           0        2.432274    0.432085    0.000000
      8         17           0        0.885238   -2.306302    0.000000
      9          1           0       -2.271554    3.011528    0.000000
     10         17           0        0.812264    3.146299    0.000000
     11         17           0       -2.275652   -2.319567    0.000000
     12          1           0       -3.751808    0.391356    0.000000
 ---------------------------------------------------------------------
 Rotational constants (GHZ):           1.1378009           0.5398715           0.3661420
 Standard basis: VSTO-6G (5D, 7F)
 There are    32 symmetry adapted cartesian basis functions of A'  symmetry.
 There are    10 symmetry adapted cartesian basis functions of A"  symmetry.
 There are    32 symmetry adapted basis functions of A'  symmetry.
 There are    10 symmetry adapted basis functions of A"  symmetry.
    42 basis functions,   252 primitive gaussians,    42 cartesian basis functions
    28 alpha electrons       27 beta electrons
       nuclear repulsion energy       303.9234118221 Hartrees.
 Integral buffers will be    131072 words long.
 Regular integral format.
 Two-electron integral symmetry is turned off.
 Do NDO integrals.
 One-electron integrals computed using PRISM.
 NBasis=    42 RedAO= T EigKep=  1.00D+00  NBF=    32    10
 NBsUse=    42 1.00D-06 EigRej= -1.00D+00 NBFU=    32    10
 Initial guess from the checkpoint file:  "geometry_chks/1245ClBzAnionRadical.chk"
 B after Tr=    -0.000000    0.000000    0.000000
         Rot=    0.964705   -0.000000    0.000000   -0.263333 Ang= -30.54 deg.
 Initial guess orbital symmetries:
 Alpha Orbitals:
       Occupied  (A') (A') (A') (A') (A') (A') (A') (A') (A') (A')
                 (A') (A') (A") (A') (A') (A") (A") (A") (A') (A')
                 (A') (A') (A") (A') (A') (A") (A") (A')
       Virtual   (A') (A") (A") (A') (A') (A') (A') (A") (A') (A')
                 (A') (A') (A') (A')
 Beta  Orbitals:
       Occupied  (A') (A') (A') (A') (A') (A') (A') (A') (A') (A')
                 (A') (A') (A") (A') (A') (A") (A") (A") (A') (A')
                 (A') (A') (A") (A') (A") (A') (A")
       Virtual   (A") (A") (A') (A') (A') (A') (A') (A") (A') (A')
                 (A') (A') (A') (A') (A')
 Initial guess <Sx>= 0.0000 <Sy>= 0.0000 <Sz>= 0.5000 <S**2>= 1.0627 S= 0.6457
 Keep J ints in memory in canonical form, NReq=864594.
 Overlap will be assumed to be unity.
 Requested convergence on RMS density matrix=1.00D-08 within  32 cycles.
 Requested convergence on MAX density matrix=1.00D-06.
 Requested convergence on             energy=1.00D-06.
 No special actions if energy rises.
 Fock symm off for IB=2 I1=    1 I=   33 J=   25 Cut=1.00D-07 Err=1.35D-03
 Fock matrix is not symmetric: symmetry in diagonalization turned off.
 SCF Done:  E(UAM1) =  0.171501384240     A.U. after   23 cycles
            NFock= 22  Conv=0.74D-08     -V/T= 1.0013
 <Sx>= 0.0000 <Sy>= 0.0000 <Sz>= 0.5000 <S**2>= 0.9185 S= 0.5810
 <L.S>=  0.00000000000    
 Annihilation of the first spin contaminant:
 S**2 before annihilation     0.9185,   after     0.7522
 QCSCF skips out because SCF is already converged.
 Calling FoFJK, ICntrl=      2127 FMM=F ISym2X=1 I1Cent= 0 IOpClX= 1 NMat=1 NMatS=1 NMatT=0.
 ***** Axes restored to original set *****
 -------------------------------------------------------------------
 Center     Atomic                   Forces (Hartrees/Bohr)
 Number     Number              X              Y              Z
 -------------------------------------------------------------------
      1        6          -0.019805746    0.008504941    0.000000000
      2        6           0.017620460    0.017892777    0.000000000
      3        6           0.041364761    0.007613618    0.000000000
      4        6           0.041717642   -0.005332529    0.000000000
      5        6           0.018581878   -0.016895966   -0.000000000
      6        6          -0.019310643   -0.009576907   -0.000000000
      7       17           0.015932670    0.010355229   -0.000000000
      8       17           0.016479573   -0.009466379   -0.000000000
      9        1          -0.056356797    0.030234083   -0.000000000
     10       17          -0.001246038    0.015976535   -0.000000000
     11       17          -0.000366603   -0.016023538   -0.000000000
     12        1          -0.054611155   -0.033281864   -0.000000000
 -------------------------------------------------------------------
 Cartesian Forces:  Max     0.056356797 RMS     0.020510586

 GradGradGradGradGradGradGradGradGradGradGradGradGradGradGradGradGradGrad
 Berny optimization.
 Using GEDIIS/GDIIS optimizer.
 FormGI is forming the generalized inverse of G from B-inverse, IUseBI=4.
 Internal  Forces:  Max     0.063954062 RMS     0.014041419
 Search for a local minimum.
 Step number   2 out of a maximum of   64
 All quantities printed in internal units (Hartrees-Bohrs-Radians)
 Mixed Optimization -- RFO/linear search
 Update second derivatives using D2CorX and points    1    2
 DE= -3.33D-02 DEPred=-3.01D-02 R= 1.11D+00
 TightC=F SS=  1.41D+00  RLast= 3.00D-01 DXNew= 5.0454D-01 9.0000D-01
 Trust test= 1.11D+00 RLast= 3.00D-01 DXMaxT set to 5.05D-01
 ITU=  1  0
 Use linear search instead of GDIIS.
 Linear search step of   0.600 exceeds DXMaxT=   0.505 but not scaled.
 Quartic linear search produced a step of  2.00000.
 Iteration  1 RMS(Cart)=  0.07413242 RMS(Int)=  0.03593087
 Iteration  2 RMS(Cart)=  0.03351150 RMS(Int)=  0.00025541
 Iteration  3 RMS(Cart)=  0.00002934 RMS(Int)=  0.00025495
 Iteration  4 RMS(Cart)=  0.00000000 RMS(Int)=  0.00025495
 ClnCor:  largest displacement from symmetrization is 6.66D-16 for atom     4.
 Variable       Old X    -DE/DX   Delta X   Delta X   Delta X     New X
                                 (Linear)    (Quad)   (Total)
    R1        2.64886   0.00392  -0.01581   0.00000  -0.01603   2.63283
    R2        2.64296   0.00116  -0.02761   0.00000  -0.02807   2.61489
    R3        3.29649  -0.01900  -0.07971   0.00000  -0.07971   3.21678
    R4        2.61524  -0.01231  -0.08305   0.00000  -0.08281   2.53243
    R5        3.30036  -0.01601  -0.07196   0.00000  -0.07196   3.22841
    R6        2.58608  -0.02593  -0.14137   0.00000  -0.14091   2.44517
    R7        3.14319  -0.06395  -0.38628   0.00000  -0.38628   2.75692
    R8        2.61525  -0.01231  -0.08306   0.00000  -0.08281   2.53243
    R9        3.14319  -0.06395  -0.38628   0.00000  -0.38628   2.75692
   R10        2.64885   0.00392  -0.01579   0.00000  -0.01602   2.63284
   R11        3.30035  -0.01601  -0.07194   0.00000  -0.07194   3.22841
   R12        3.29649  -0.01900  -0.07970   0.00000  -0.07970   3.21679
    A1        2.08811  -0.00274  -0.01257   0.00000  -0.01326   2.07485
    A2        2.09997   0.00214   0.01115   0.00000   0.01149   2.11146
    A3        2.09511   0.00060   0.00142   0.00000   0.00177   2.09688
    A4        2.08702  -0.00415  -0.01475   0.00000  -0.01474   2.07228
    A5        2.09793   0.00101   0.00707   0.00000   0.00706   2.10499
    A6        2.09824   0.00315   0.00769   0.00000   0.00768   2.10591
    A7        2.10806   0.00689   0.02732   0.00000   0.02800   2.13606
    A8        2.08850  -0.00304  -0.01180   0.00000  -0.01214   2.07636
    A9        2.08663  -0.00385  -0.01552   0.00000  -0.01586   2.07077
   A10        2.10805   0.00689   0.02732   0.00000   0.02800   2.13605
   A11        2.08664  -0.00385  -0.01552   0.00000  -0.01586   2.07077
   A12        2.08850  -0.00304  -0.01180   0.00000  -0.01214   2.07636
   A13        2.08702  -0.00415  -0.01475   0.00000  -0.01474   2.07228
   A14        2.09823   0.00315   0.00769   0.00000   0.00768   2.10591
   A15        2.09794   0.00101   0.00707   0.00000   0.00706   2.10500
   A16        2.08812  -0.00274  -0.01257   0.00000  -0.01327   2.07485
   A17        2.09510   0.00060   0.00142   0.00000   0.00177   2.09687
   A18        2.09997   0.00214   0.01115   0.00000   0.01150   2.11146
    D1        0.00000   0.00000   0.00000   0.00000   0.00000   0.00000
    D2        3.14159  -0.00000   0.00000   0.00000   0.00000   3.14159
    D3        3.14159   0.00000   0.00000   0.00000   0.00000   3.14159
    D4        0.00000  -0.00000   0.00000   0.00000   0.00000   0.00000
    D5        0.00000   0.00000   0.00000   0.00000   0.00000   0.00000
    D6        3.14159   0.00000   0.00000   0.00000   0.00000   3.14159
    D7        3.14159  -0.00000   0.00000   0.00000   0.00000   3.14159
    D8        0.00000  -0.00000   0.00000   0.00000   0.00000   0.00000
    D9        0.00000  -0.00000   0.00000   0.00000   0.00000   0.00000
   D10        3.14159  -0.00000   0.00000   0.00000   0.00000   3.14159
   D11        3.14159   0.00000   0.00000   0.00000   0.00000   3.14159
   D12        0.00000   0.00000   0.00000   0.00000   0.00000   0.00000
   D13        0.00000   0.00000   0.00000   0.00000   0.00000   0.00000
   D14        3.14159  -0.00000   0.00000   0.00000   0.00000   3.14159
   D15        3.14159   0.00000   0.00000   0.00000   0.00000   3.14159
   D16        0.00000   0.00000   0.00000   0.00000   0.00000   0.00000
   D17        0.00000   0.00000   0.00000   0.00000   0.00000   0.00000
   D18        3.14159  -0.00000   0.00000   0.00000   0.00000   3.14159
   D19        3.14159   0.00000   0.00000   0.00000   0.00000   3.14159
   D20        0.00000   0.00000   0.00000   0.00000   0.00000   0.00000
   D21        0.00000  -0.00000   0.00000   0.00000   0.00000   0.00000
   D22        3.14159  -0.00000   0.00000   0.00000   0.00000   3.14159
   D23        3.14159   0.00000   0.00000   0.00000   0.00000   3.14159
   D24        0.00000  -0.00000   0.00000   0.00000   0.00000   0.00000
         Item               Value     Threshold  Converged?
 Maximum Force            0.063954     0.000450     NO 
 RMS     Force            0.014041     0.000300     NO 
 Maximum Displacement     0.364298     0.001800     NO 
 RMS     Displacement     0.103364     0.001200     NO 
 Predicted change in Energy=-5.158133D-02
 GradGradGradGradGradGradGradGradGradGradGradGradGradGradGradGradGradGrad

                          Input orientation:                          
 ---------------------------------------------------------------------
 Center     Atomic      Atomic             Coordinates (Angstroms)
 Number     Number       Type             X           Y           Z
 ---------------------------------------------------------------------
      1          6           0       -3.158598    0.189741    0.000000
      2          6           0       -1.957577    0.895887    0.000000
      3          6           0       -0.806639    0.209427    0.000000
      4          6           0       -0.771104   -1.084014    0.000000
      5          6           0       -1.882619   -1.832626    0.000000
      6          6           0       -3.120601   -1.193478    0.000000
      7         17           0       -4.568652   -2.088357    0.000000
      8         17           0       -4.653590    1.003774    0.000000
      9          1           0        0.527941   -1.747993    0.000000
     10         17           0       -1.784251   -3.538192    0.000000
     11         17           0       -1.953002    2.604281    0.000000
     12          1           0        0.453993    0.943721    0.000000
 ---------------------------------------------------------------------
                    Distance matrix (angstroms):
                    1          2          3          4          5
     1  C    0.000000
     2  C    1.393231   0.000000
     3  C    2.352041   1.340106   0.000000
     4  C    2.706027   2.308187   1.293930   0.000000
     5  C    2.391253   2.729542   2.308184   1.340106   0.000000
     6  C    1.383741   2.391249   2.706023   2.352045   1.393236
     7  Cl   2.679175   3.965277   4.408236   3.928113   2.698179
     8  Cl   1.702248   2.698170   3.928106   4.408237   3.965280
     9  H    4.164779   3.628760   2.369092   1.458898   2.412045
    10  Cl   3.973199   4.437465   3.873031   2.655081   1.708400
    11  Cl   2.698789   1.708400   2.655084   3.873036   4.437465
    12  H    3.690434   2.412045   1.458897   2.369087   3.628754
                    6          7          8          9         10
     6  C    0.000000
     7  Cl   1.702251   0.000000
     8  Cl   2.679174   3.093297   0.000000
     9  H    3.690439   5.107945   5.866897   0.000000
    10  Cl   2.698798   3.139253   5.372389   2.924216   0.000000
    11  Cl   3.973193   5.372380   3.139235   5.009727   6.144790
    12  H    4.164774   5.866894   5.107936   2.692730   5.009718
                   11         12
    11  Cl   0.000000
    12  H    2.924224   0.000000
 Stoichiometry    C6H2Cl4(1-,2)
 Framework group  CS[SG(C6H2Cl4)]
 Deg. of freedom    21
 Full point group                 CS      NOp   2
 Largest Abelian subgroup         CS      NOp   2
 Largest concise Abelian subgroup C1      NOp   1
                         Standard orientation:                         
 ---------------------------------------------------------------------
 Center     Atomic      Atomic             Coordinates (Angstroms)
 Number     Number       Type             X           Y           Z
 ---------------------------------------------------------------------
      1          6           0        0.703532   -0.388078   -0.000000
      2          6           0       -0.004860   -1.587776   -0.000000
      3          6           0       -1.344285   -1.545033   -0.000000
      4          6           0       -2.002157   -0.430826   -0.000000
      5          6           0       -1.392638    0.762644    0.000000
      6          6           0        0.000000    0.803468    0.000000
      7         17           0        0.833022    2.287966    0.000000
      8         17           0        2.405735   -0.375689   -0.000000
      9          1           0       -3.460243   -0.479520   -0.000000
     10         17           0       -2.305184    2.206905    0.000000
     11         17           0        0.819008   -3.084396   -0.000000
     12          1           0       -2.091181   -2.798240   -0.000000
 ---------------------------------------------------------------------
 Rotational constants (GHZ):           1.1740378           0.5631752           0.3806033
 Standard basis: VSTO-6G (5D, 7F)
 There are    32 symmetry adapted cartesian basis functions of A'  symmetry.
 There are    10 symmetry adapted cartesian basis functions of A"  symmetry.
 There are    32 symmetry adapted basis functions of A'  symmetry.
 There are    10 symmetry adapted basis functions of A"  symmetry.
    42 basis functions,   252 primitive gaussians,    42 cartesian basis functions
    28 alpha electrons       27 beta electrons
       nuclear repulsion energy       308.5119634635 Hartrees.
 Integral buffers will be    131072 words long.
 Regular integral format.
 Two-electron integral symmetry is turned off.
 Do NDO integrals.
 One-electron integrals computed using PRISM.
 NBasis=    42 RedAO= T EigKep=  1.00D+00  NBF=    32    10
 NBsUse=    42 1.00D-06 EigRej= -1.00D+00 NBFU=    32    10
 Initial guess from the checkpoint file:  "geometry_chks/1245ClBzAnionRadical.chk"
 B after Tr=    -0.000000   -0.000000   -0.000000
         Rot=    0.865924   -0.000000   -0.000000   -0.500176 Ang= -60.02 deg.
 Initial guess orbital symmetries:
 Alpha Orbitals:
       Occupied  (A') (A') (A') (A') (A') (A') (A') (A') (A') (A')
                 (A') (A') (A") (A') (A') (A") (A") (A") (A') (A')
                 (A') (A') (A") (A') (A') (A") (A") (A')
       Virtual   (A") (A") (A') (A') (A') (A') (A') (A") (A') (A')
                 (A') (A') (A') (A')
 Beta  Orbitals:
       Occupied  (A') (A') (A') (A') (A') (A') (A') (A') (A') (A')
                 (A') (A') (A") (A') (A') (A") (A") (A") (A') (A')
                 (A') (A') (A") (A') (A') (A") (A")
       Virtual   (A") (A") (A') (A') (A') (A') (A") (A') (A') (A')
                 (A') (A') (A') (A') (A')
 Initial guess <Sx>= 0.0000 <Sy>= 0.0000 <Sz>= 0.5000 <S**2>= 0.9185 S= 0.5810
 Keep J ints in memory in canonical form, NReq=864594.
 Overlap will be assumed to be unity.
 Requested convergence on RMS density matrix=1.00D-08 within  32 cycles.
 Requested convergence on MAX density matrix=1.00D-06.
 Requested convergence on             energy=1.00D-06.
 No special actions if energy rises.
 Fock symm off for IB=2 I1=    1 I=   33 J=    4 Cut=1.00D-07 Err=1.78D-03
 Fock matrix is not symmetric: symmetry in diagonalization turned off.
 >>>>>>>>>> Convergence criterion not met.
 SCF Done:  E(UAM1) =  0.128428341852     A.U. after   33 cycles
            NFock= 32  Conv=0.28D-06     -V/T= 1.0009
 <Sx>= 0.0000 <Sy>= 0.0000 <Sz>= 0.5000 <S**2>= 0.7928 S= 0.5212
 <L.S>=  0.00000000000    
 Annihilation of the first spin contaminant:
 S**2 before annihilation     0.7928,   after     0.7508
 Keep J ints in memory in canonical form, NReq=864994.
 SCF Done:  E(UAM1) =  0.128428341851     a.u. after    1 cycles
            Convg  =    0.1418D-06                     1 Fock formations.
              S**2 =  0.7928                  -V/T =  1.0009
 <Sx>= 0.0000 <Sy>= 0.0000 <Sz>= 0.5000 <S**2>= 0.7928 S= 0.5212
 <L.S>=  0.00000000000    
 Annihilation of the first spin contaminant:
 S**2 before annihilation     0.7928,   after     0.7508
 Calling FoFJK, ICntrl=      2127 FMM=F ISym2X=1 I1Cent= 0 IOpClX= 1 NMat=1 NMatS=1 NMatT=0.
 ***** Axes restored to original set *****
 -------------------------------------------------------------------
 Center     Atomic                   Forces (Hartrees/Bohr)
 Number     Number              X              Y              Z
 -------------------------------------------------------------------
      1        6          -0.018930879    0.017164113    0.000000000
      2        6          -0.028779279    0.037833854    0.000000000
      3        6           0.113869578    0.102700428    0.000000000
      4        6           0.119334500   -0.096292962    0.000000000
      5        6          -0.026663957   -0.039355243    0.000000000
      6        6          -0.017956557   -0.018181650    0.000000000
      7       17          -0.005648268   -0.004534160    0.000000000
      8       17          -0.005890833    0.004217576   -0.000000000
      9        1          -0.064130643    0.030525642   -0.000000000
     10       17          -0.000952034   -0.017179423    0.000000000
     11       17          -0.001892756    0.017102397    0.000000000
     12        1          -0.062358871   -0.034000572   -0.000000000
 -------------------------------------------------------------------
 Cartesian Forces:  Max     0.119334500 RMS     0.042044437

 GradGradGradGradGradGradGradGradGradGradGradGradGradGradGradGradGradGrad
 Berny optimization.
 Using GEDIIS/GDIIS optimizer.
 FormGI is forming the generalized inverse of G from B-inverse, IUseBI=4.
 Internal  Forces:  Max     0.100328859 RMS     0.024927671
 Search for a local minimum.
 Step number   3 out of a maximum of   64
 All quantities printed in internal units (Hartrees-Bohrs-Radians)
 Mixed Optimization -- RFO/linear search
 Update second derivatives using D2CorX and points    2    3
 ITU=  0  1  0
 Use linear search instead of GDIIS.
     Eigenvalues ---    0.02011   0.02011   0.02011   0.02011   0.02011
     Eigenvalues ---    0.02011   0.02011   0.02011   0.02011   0.02136
     Eigenvalues ---    0.06524   0.16000   0.16013   0.22443   0.24341
     Eigenvalues ---    0.24991   0.25000   0.25000   0.25000   0.25010
     Eigenvalues ---    0.28773   0.29033   0.29033   0.29657   0.40971
     Eigenvalues ---    0.41308   0.44645   0.44656   0.44657   1.18822
 RFO step:  Lambda=-9.65911326D-02 EMin= 2.01065808D-02
 Quartic linear search produced a step of  0.51152.
 Maximum step size (   0.505) exceeded in Quadratic search.
    -- Step size scaled by   0.786
 Iteration  1 RMS(Cart)=  0.03970791 RMS(Int)=  0.06633478
 Iteration  2 RMS(Cart)=  0.03595887 RMS(Int)=  0.02784483
 Iteration  3 RMS(Cart)=  0.02599118 RMS(Int)=  0.00009935
 Iteration  4 RMS(Cart)=  0.00000048 RMS(Int)=  0.00009935
 ClnCor:  largest displacement from symmetrization is 9.16D-09 for atom    12.
 Variable       Old X    -DE/DX   Delta X   Delta X   Delta X     New X
                                 (Linear)    (Quad)   (Total)
    R1        2.63283   0.03217  -0.00820   0.03068   0.02239   2.65522
    R2        2.61489   0.04474  -0.01436   0.03924   0.02470   2.63960
    R3        3.21678   0.00719  -0.04077  -0.01254  -0.05331   3.16347
    R4        2.53243   0.06279  -0.04236   0.04573   0.00347   2.53590
    R5        3.22841   0.01710  -0.03681   0.00442  -0.03239   3.19602
    R6        2.44517   0.10033  -0.07208   0.06924  -0.00266   2.44251
    R7        2.75692  -0.07100  -0.19759  -0.34709  -0.54468   2.21224
    R8        2.53243   0.06279  -0.04236   0.04573   0.00347   2.53590
    R9        2.75692  -0.07100  -0.19759  -0.34708  -0.54467   2.21225
   R10        2.63284   0.03216  -0.00819   0.03068   0.02240   2.65523
   R11        3.22841   0.01710  -0.03680   0.00442  -0.03238   3.19603
   R12        3.21679   0.00719  -0.04077  -0.01254  -0.05331   3.16348
    A1        2.07485   0.01200  -0.00678   0.01035   0.00330   2.07814
    A2        2.11146  -0.00742   0.00588  -0.00627  -0.00026   2.11120
    A3        2.09688  -0.00457   0.00090  -0.00408  -0.00304   2.09384
    A4        2.07228  -0.00347  -0.00754  -0.00998  -0.01751   2.05478
    A5        2.10499  -0.00139   0.00361  -0.00074   0.00287   2.10786
    A6        2.10591   0.00487   0.00393   0.01071   0.01464   2.12055
    A7        2.13606  -0.00853   0.01432  -0.00038   0.01421   2.15027
    A8        2.07636   0.00150  -0.00621  -0.00517  -0.01151   2.06485
    A9        2.07077   0.00703  -0.00811   0.00555  -0.00270   2.06807
   A10        2.13605  -0.00852   0.01432  -0.00038   0.01421   2.15026
   A11        2.07077   0.00703  -0.00811   0.00554  -0.00270   2.06807
   A12        2.07636   0.00150  -0.00621  -0.00517  -0.01151   2.06485
   A13        2.07228  -0.00347  -0.00754  -0.00998  -0.01751   2.05478
   A14        2.10591   0.00487   0.00393   0.01072   0.01464   2.12055
   A15        2.10500  -0.00140   0.00361  -0.00074   0.00287   2.10786
   A16        2.07485   0.01200  -0.00679   0.01035   0.00329   2.07814
   A17        2.09687  -0.00457   0.00091  -0.00408  -0.00303   2.09384
   A18        2.11146  -0.00743   0.00588  -0.00628  -0.00026   2.11120
    D1        0.00000   0.00000   0.00000   0.00000   0.00000   0.00000
    D2        3.14159   0.00000   0.00000  -0.00000   0.00000   3.14159
    D3        3.14159   0.00000   0.00000   0.00000   0.00000   3.14159
    D4        0.00000   0.00000   0.00000   0.00000  -0.00000   0.00000
    D5        0.00000  -0.00000   0.00000   0.00000  -0.00000   0.00000
    D6        3.14159   0.00000   0.00000   0.00000   0.00000   3.14159
    D7        3.14159  -0.00000   0.00000  -0.00000   0.00000   3.14159
    D8        0.00000  -0.00000   0.00000  -0.00000  -0.00000   0.00000
    D9       -0.00000  -0.00000   0.00000  -0.00000   0.00000   0.00000
   D10        3.14159  -0.00000   0.00000  -0.00000   0.00000   3.14159
   D11        3.14159  -0.00000   0.00000   0.00000   0.00000   3.14159
   D12       -0.00000  -0.00000   0.00000  -0.00000   0.00000   0.00000
   D13       -0.00000  -0.00000   0.00000   0.00000   0.00000   0.00000
   D14        3.14159  -0.00000   0.00000  -0.00000   0.00000   3.14159
   D15        3.14159   0.00000   0.00000   0.00000   0.00000   3.14159
   D16       -0.00000   0.00000   0.00000   0.00000   0.00000   0.00000
   D17        0.00000   0.00000   0.00000   0.00000   0.00000   0.00000
   D18        3.14159   0.00000   0.00000  -0.00000   0.00000   3.14159
   D19        3.14159   0.00000   0.00000   0.00000   0.00000   3.14159
   D20        0.00000   0.00000   0.00000   0.00000  -0.00000   0.00000
   D21       -0.00000  -0.00000   0.00000  -0.00000   0.00000   0.00000
   D22        3.14159  -0.00000   0.00000  -0.00000   0.00000   3.14159
   D23        3.14159   0.00000   0.00000  -0.00000   0.00000   3.14159
   D24       -0.00000  -0.00000   0.00000  -0.00000   0.00000   0.00000
         Item               Value     Threshold  Converged?
 Maximum Force            0.100329     0.000450     NO 
 RMS     Force            0.024928     0.000300     NO 
 Maximum Displacement     0.415580     0.001800     NO 
 RMS     Displacement     0.100847     0.001200     NO 
 Predicted change in Energy=-6.812128D-02
 GradGradGradGradGradGradGradGradGradGradGradGradGradGradGradGradGradGrad

                          Input orientation:                          
 ---------------------------------------------------------------------
 Center     Atomic      Atomic             Coordinates (Angstroms)
 Number     Number       Type             X           Y           Z
 ---------------------------------------------------------------------
      1          6           0       -3.122817    0.197263    0.000000
      2          6           0       -1.913934    0.913403    0.000000
      3          6           0       -0.771304    0.209695    0.000000
      4          6           0       -0.735808   -1.082340   -0.000000
      5          6           0       -1.838079   -1.847718   -0.000000
      6          6           0       -3.084461   -1.199024   -0.000000
      7         17           0       -4.511181   -2.074747   -0.000000
      8         17           0       -4.595455    0.993337    0.000000
      9          1           0        0.308025   -1.612321   -0.000000
     10         17           0       -1.741420   -3.536219   -0.000000
     11         17           0       -1.910125    2.604660    0.000000
     12          1           0        0.241858    0.796181    0.000000
 ---------------------------------------------------------------------
                    Distance matrix (angstroms):
                    1          2          3          4          5
     1  C    0.000000
     2  C    1.405081   0.000000
     3  C    2.351546   1.341943   0.000000
     4  C    2.708356   2.317536   1.292522   0.000000
     5  C    2.415056   2.762163   2.317532   1.341940   0.000000
     6  C    1.396814   2.415053   2.708355   2.351549   1.405088
     7  Cl   2.662627   3.959132   4.382391   3.903628   2.682725
     8  Cl   1.674036   2.682711   3.903617   4.382386   3.959130
     9  H    3.878824   3.363984   2.117709   1.170670   2.158976
    10  Cl   3.980847   4.452965   3.869495   2.651938   1.691266
    11  Cl   2.695585   1.691261   2.651938   3.869495   4.452961
    12  H    3.417563   2.158977   1.170667   2.117704   3.363976
                    6          7          8          9         10
     6  C    0.000000
     7  Cl   1.674043   0.000000
     8  Cl   2.662620   3.069241   0.000000
     9  H    3.417569   4.841341   5.552798   0.000000
    10  Cl   2.695597   3.131689   5.353727   2.810980   0.000000
    11  Cl   3.980839   5.353722   3.131670   4.764779   6.143196
    12  H    3.878819   5.552801   4.841329   2.409411   4.764775
                   11         12
    11  Cl   0.000000
    12  H    2.810983   0.000000
 Stoichiometry    C6H2Cl4(1-,2)
 Framework group  CS[SG(C6H2Cl4)]
 Deg. of freedom    21
 Full point group                 CS      NOp   2
 Largest Abelian subgroup         CS      NOp   2
 Largest concise Abelian subgroup C1      NOp   1
                         Standard orientation:                         
 ---------------------------------------------------------------------
 Center     Atomic      Atomic             Coordinates (Angstroms)
 Number     Number       Type             X           Y           Z
 ---------------------------------------------------------------------
      1          6           0        0.413816   -0.698409    0.000000
      2          6           0       -0.814277   -1.381080    0.000000
      3          6           0       -1.937152   -0.646258    0.000000
      4          6           0       -1.937152    0.646264   -0.000000
      5          6           0       -0.814278    1.381082   -0.000000
      6          6           0        0.413819    0.698405   -0.000000
      7         17           0        1.864050    1.534616   -0.000000
      8         17           0        1.864036   -1.534624    0.000000
      9          1           0       -2.966038    1.204711   -0.000000
     10         17           0       -0.864531    3.071601   -0.000000
     11         17           0       -0.864531   -3.071595    0.000000
     12          1           0       -2.966037   -1.204700    0.000000
 ---------------------------------------------------------------------
 Rotational constants (GHZ):           1.1952785           0.5646803           0.3835034
 Standard basis: VSTO-6G (5D, 7F)
 There are    32 symmetry adapted cartesian basis functions of A'  symmetry.
 There are    10 symmetry adapted cartesian basis functions of A"  symmetry.
 There are    32 symmetry adapted basis functions of A'  symmetry.
 There are    10 symmetry adapted basis functions of A"  symmetry.
    42 basis functions,   252 primitive gaussians,    42 cartesian basis functions
    28 alpha electrons       27 beta electrons
       nuclear repulsion energy       310.2373537813 Hartrees.
 Integral buffers will be    131072 words long.
 Regular integral format.
 Two-electron integral symmetry is turned off.
 Do NDO integrals.
 One-electron integrals computed using PRISM.
 NBasis=    42 RedAO= T EigKep=  1.00D+00  NBF=    32    10
 NBsUse=    42 1.00D-06 EigRej= -1.00D+00 NBFU=    32    10
 Initial guess from the checkpoint file:  "geometry_chks/1245ClBzAnionRadical.chk"
 B after Tr=     0.000000   -0.000000    0.000000
         Rot=    0.964651    0.000000    0.000000    0.263530 Ang=  30.56 deg.
 Initial guess orbital symmetries:
 Alpha Orbitals:
       Occupied  (A') (A') (A') (A') (A') (A') (A') (A') (A') (A')
                 (A') (A') (A") (A') (A') (A") (A") (A') (A") (A')
                 (A') (A') (A") (A') (A') (A") (A") (A')
       Virtual   (A") (A") (A') (A') (A') (A') (A') (A") (A') (A')
                 (A') (A') (A') (A')
 Beta  Orbitals:
       Occupied  (A') (A') (A') (A') (A') (A') (A') (A') (A') (A')
                 (A') (A') (A") (A') (A') (A") (A") (A") (A') (A')
                 (A') (A') (A") (A') (A') (A") (A")
       Virtual   (A") (A") (A') (A') (A') (A') (A") (A') (A') (A')
                 (A') (A') (A') (A') (A')
 Initial guess <Sx>= 0.0000 <Sy>= 0.0000 <Sz>= 0.5000 <S**2>= 0.7928 S= 0.5212
 Keep J ints in memory in canonical form, NReq=864594.
 Overlap will be assumed to be unity.
 Requested convergence on RMS density matrix=1.00D-08 within  32 cycles.
 Requested convergence on MAX density matrix=1.00D-06.
 Requested convergence on             energy=1.00D-06.
 No special actions if energy rises.
 Fock symm off for IB=2 I1=    1 I=   33 J=    2 Cut=1.00D-07 Err=1.22D-03
 Fock matrix is not symmetric: symmetry in diagonalization turned off.
 Rare condition: small coef for last iteration:  0.000D+00
 Rare condition: small coef for last iteration:  0.000D+00
 Rare condition: small coef for last iteration:  0.000D+00
 Rare condition: small coef for last iteration:  0.000D+00
 Rare condition: small coef for last iteration:  0.000D+00
 Rare condition: small coef for last iteration:  0.000D+00
 Rare condition: small coef for last iteration:  0.000D+00
 Rare condition: small coef for last iteration:  0.000D+00
 Rare condition: small coef for last iteration:  0.000D+00
 Rare condition: small coef for last iteration:  0.000D+00
 Rare condition: small coef for last iteration:  0.000D+00
 Rare condition: small coef for last iteration:  0.000D+00
 Rare condition: small coef for last iteration:  0.000D+00
 Rare condition: small coef for last iteration:  0.000D+00
 Rare condition: small coef for last iteration:  0.000D+00
 Rare condition: small coef for last iteration:  0.000D+00
 Rare condition: small coef for last iteration:  0.000D+00
 >>>>>>>>>> Convergence criterion not met.
 SCF Done:  E(UAM1) =  0.450218917725E-01 A.U. after   33 cycles
            NFock= 32  Conv=0.37D-04     -V/T= 1.0003
 <Sx>= 0.0000 <Sy>= 0.0000 <Sz>= 0.5000 <S**2>= 0.7578 S= 0.5039
 <L.S>=  0.00000000000    
 Annihilation of the first spin contaminant:
 S**2 before annihilation     0.7578,   after     0.7501
 Keep J ints in memory in canonical form, NReq=864994.
 Gradient too large for Newton-Raphson -- use scaled steepest descent instead.
 Gradient too large for Newton-Raphson -- use scaled steepest descent instead.
     Accept linear search using points  2 and  3.
 Gradient too large for Newton-Raphson -- use scaled steepest descent instead.
     Accept linear search using points  2 and  3.
 Gradient too large for Newton-Raphson -- use scaled steepest descent instead.
     Accept linear search using points  1 and  2.
 Gradient too large for Newton-Raphson -- use scaled steepest descent instead.
 Gradient too large for Newton-Raphson -- use scaled steepest descent instead.
 Gradient too large for Newton-Raphson -- use scaled steepest descent instead.
 Gradient too large for Newton-Raphson -- use scaled steepest descent instead.
 Gradient too large for Newton-Raphson -- use scaled steepest descent instead.
     Accept linear search using points  1 and  2.
     Minimum is close to point  2 DX= -9.64D-02 DF= -8.60D-06 DXR=  5.66D-02 DFR=  7.18D-03 which will be used.
 Gradient too large for Newton-Raphson -- use scaled steepest descent instead.
     Accept linear search using points  1 and  2.
 Gradient too large for Newton-Raphson -- use scaled steepest descent instead.
     Accept linear search using points  1 and  2.
     Minimum is close to point  2 DX= -1.28D-01 DF= -8.56D-06 DXR=  8.11D-02 DFR=  1.29D-02 which will be used.
 Gradient too large for Newton-Raphson -- use scaled steepest descent instead.
     Accept linear search using points  1 and  2.
     Minimum is close to point  2 DX= -1.06D-01 DF= -4.05D-06 DXR=  7.08D-02 DFR=  9.32D-03 which will be used.
 LinEq1:  Iter=  0 NonCon=     1 RMS=7.89D-04 Max=1.12D-02 NDo=     1
 AX will form     1 AO Fock derivatives at one time.
 LinEq1:  Iter=  1 NonCon=     1 RMS=4.04D-04 Max=8.84D-03 NDo=     1
 LinEq1:  Iter=  2 NonCon=     1 RMS=1.17D-05 Max=1.11D-04 NDo=     1
 LinEq1:  Iter=  3 NonCon=     1 RMS=3.34D-06 Max=3.42D-05 NDo=     1
 LinEq1:  Iter=  4 NonCon=     1 RMS=8.75D-07 Max=9.38D-06 NDo=     1
 LinEq1:  Iter=  5 NonCon=     1 RMS=3.79D-07 Max=6.64D-06 NDo=     1
 LinEq1:  Iter=  6 NonCon=     1 RMS=1.29D-07 Max=1.35D-06 NDo=     1
 LinEq1:  Iter=  7 NonCon=     1 RMS=3.22D-08 Max=3.35D-07 NDo=     1
 LinEq1:  Iter=  8 NonCon=     1 RMS=6.55D-09 Max=7.58D-08 NDo=     1
 LinEq1:  Iter=  9 NonCon=     0 RMS=1.12D-09 Max=8.36D-09 NDo=     1
 Linear equations converged to 2.823D-09 2.823D-08 after     9 iterations.
     Accept linear search using points  1 and  2.
 LinEq1:  Iter=  0 NonCon=     1 RMS=7.20D-05 Max=1.11D-03 NDo=     1
 LinEq1:  Iter=  1 NonCon=     1 RMS=2.50D-05 Max=3.61D-04 NDo=     1
 LinEq1:  Iter=  2 NonCon=     1 RMS=3.19D-06 Max=3.31D-05 NDo=     1
 LinEq1:  Iter=  3 NonCon=     1 RMS=8.37D-07 Max=1.06D-05 NDo=     1
 LinEq1:  Iter=  4 NonCon=     1 RMS=1.91D-07 Max=1.84D-06 NDo=     1
 LinEq1:  Iter=  5 NonCon=     1 RMS=9.50D-08 Max=1.63D-06 NDo=     1
 LinEq1:  Iter=  6 NonCon=     1 RMS=3.48D-08 Max=3.44D-07 NDo=     1
 LinEq1:  Iter=  7 NonCon=     1 RMS=9.20D-09 Max=8.24D-08 NDo=     1
 LinEq1:  Iter=  8 NonCon=     0 RMS=2.04D-09 Max=2.19D-08 NDo=     1
 Linear equations converged to 2.823D-09 2.823D-08 after     8 iterations.
     Minimum is close to point  2 DX= -3.12D-04 DF= -2.82D-13 DXR=  3.12D-04 DFR=  9.76D-08 which will be used.
 LinEq1:  Iter=  0 NonCon=     1 RMS=9.16D-07 Max=1.15D-05 NDo=     1
 LinEq1:  Iter=  1 NonCon=     1 RMS=3.08D-07 Max=3.17D-06 NDo=     1
 LinEq1:  Iter=  2 NonCon=     1 RMS=6.46D-08 Max=6.03D-07 NDo=     1
 LinEq1:  Iter=  3 NonCon=     1 RMS=2.89D-08 Max=5.02D-07 NDo=     1
 LinEq1:  Iter=  4 NonCon=     1 RMS=1.11D-08 Max=1.19D-07 NDo=     1
 LinEq1:  Iter=  5 NonCon=     1 RMS=3.50D-09 Max=3.07D-08 NDo=     1
 LinEq1:  Iter=  6 NonCon=     1 RMS=8.38D-10 Max=8.49D-09 NDo=     1
 LinEq1:  Iter=  7 NonCon=     1 RMS=2.27D-10 Max=2.35D-09 NDo=     1
 LinEq1:  Iter=  8 NonCon=     0 RMS=7.92D-11 Max=7.67D-10 NDo=     1
 Linear equations converged to 1.441D-10 1.441D-09 after     8 iterations.
 LinEq1:  Iter=  0 NonCon=     1 RMS=5.93D-08 Max=5.75D-07 NDo=     1
 LinEq1:  Iter=  1 NonCon=     1 RMS=2.62D-08 Max=2.50D-07 NDo=     1
 LinEq1:  Iter=  2 NonCon=     1 RMS=6.54D-09 Max=7.01D-08 NDo=     1
 LinEq1:  Iter=  3 NonCon=     1 RMS=1.75D-09 Max=1.88D-08 NDo=     1
 LinEq1:  Iter=  4 NonCon=     1 RMS=5.46D-10 Max=6.77D-09 NDo=     1
 LinEq1:  Iter=  5 NonCon=     1 RMS=2.52D-10 Max=3.52D-09 NDo=     1
 LinEq1:  Iter=  6 NonCon=     1 RMS=7.58D-11 Max=6.79D-10 NDo=     1
 LinEq1:  Iter=  7 NonCon=     1 RMS=1.53D-11 Max=1.54D-10 NDo=     1
 LinEq1:  Iter=  8 NonCon=     0 RMS=4.45D-12 Max=4.96D-11 NDo=     1
 Linear equations converged to 8.473D-12 8.473D-11 after     8 iterations.
 SCF Done:  E(UAM1) =  0.313316342334E-01 a.u. after   17 cycles
            Convg  =    0.2520D-06                    71 Fock formations.
              S**2 =  0.7590                  -V/T =  1.0002
 <Sx>= 0.0000 <Sy>= 0.0000 <Sz>= 0.5000 <S**2>= 0.7590 S= 0.5045
 <L.S>=  0.00000000000    
 Annihilation of the first spin contaminant:
 S**2 before annihilation     0.7590,   after     0.7501
 Calling FoFJK, ICntrl=      2127 FMM=F ISym2X=1 I1Cent= 0 IOpClX= 1 NMat=1 NMatS=1 NMatT=0.
 ***** Axes restored to original set *****
 -------------------------------------------------------------------
 Center     Atomic                   Forces (Hartrees/Bohr)
 Number     Number              X              Y              Z
 -------------------------------------------------------------------
      1        6           0.034263715   -0.024095234    0.000000000
      2        6          -0.074787179    0.024307017    0.000000000
      3        6           0.105768400    0.130725908    0.000000000
      4        6           0.112787883   -0.124720535    0.000000000
      5        6          -0.073349212   -0.028377911    0.000000000
      6        6           0.032892466    0.025933588   -0.000000000
      7       17          -0.041766781   -0.028176284    0.000000000
      8       17          -0.043256223    0.025843068    0.000000000
      9        1          -0.029917734    0.014373854   -0.000000000
     10       17           0.003654704   -0.015619863    0.000000000
     11       17           0.002792518    0.015800031    0.000000000
     12        1          -0.029082559   -0.015993640   -0.000000000
 -------------------------------------------------------------------
 Cartesian Forces:  Max     0.130725908 RMS     0.047207087

 GradGradGradGradGradGradGradGradGradGradGradGradGradGradGradGradGradGrad
 Berny optimization.
 Using GEDIIS/GDIIS optimizer.
 FormGI is forming the generalized inverse of G from B-inverse, IUseBI=4.
 Internal  Forces:  Max     0.139302909 RMS     0.028725706
 Search for a local minimum.
 Step number   4 out of a maximum of   64
 All quantities printed in internal units (Hartrees-Bohrs-Radians)
 Mixed Optimization -- RFO/linear search
 Update second derivatives using D2CorX and points    3    4
 DE= -9.71D-02 DEPred=-6.81D-02 R= 1.43D+00
 TightC=F SS=  1.41D+00  RLast= 7.78D-01 DXNew= 8.4853D-01 2.3326D+00
 Trust test= 1.43D+00 RLast= 7.78D-01 DXMaxT set to 8.49D-01
 ITU=  1  0  1  0
 Use linear search instead of GDIIS.
     Eigenvalues ---    0.02011   0.02011   0.02011   0.02011   0.02011
     Eigenvalues ---    0.02011   0.02011   0.02011   0.02011   0.05303
     Eigenvalues ---    0.06524   0.16000   0.16054   0.22434   0.24677
     Eigenvalues ---    0.25000   0.25000   0.25000   0.25008   0.25336
     Eigenvalues ---    0.29033   0.29033   0.29523   0.32853   0.41061
     Eigenvalues ---    0.44569   0.44652   0.44657   0.48443   0.83847
 RFO step:  Lambda=-5.74333397D-02 EMin= 2.01065820D-02
 Quartic linear search produced a step of  0.08956.
 Iteration  1 RMS(Cart)=  0.03922167 RMS(Int)=  0.00113012
 Iteration  2 RMS(Cart)=  0.00127365 RMS(Int)=  0.00027594
 Iteration  3 RMS(Cart)=  0.00000153 RMS(Int)=  0.00027594
 Iteration  4 RMS(Cart)=  0.00000000 RMS(Int)=  0.00027594
 ClnCor:  largest displacement from symmetrization is 1.23D-08 for atom    12.
 Variable       Old X    -DE/DX   Delta X   Delta X   Delta X     New X
                                 (Linear)    (Quad)   (Total)
    R1        2.65522   0.01527   0.00201   0.01422   0.01597   2.67119
    R2        2.63960   0.01734   0.00221   0.00304   0.00476   2.64436
    R3        3.16347   0.05034  -0.00477   0.08892   0.08414   3.24761
    R4        2.53590   0.08141   0.00031   0.09898   0.09954   2.63545
    R5        3.19602   0.01581  -0.00290  -0.00784  -0.01074   3.18528
    R6        2.44251   0.13930  -0.00024   0.16327   0.16352   2.60603
    R7        2.21224  -0.03318  -0.04878  -0.15493  -0.20371   2.00853
    R8        2.53590   0.08141   0.00031   0.09898   0.09954   2.63544
    R9        2.21225  -0.03318  -0.04878  -0.15496  -0.20374   2.00851
   R10        2.65523   0.01526   0.00201   0.01421   0.01597   2.67120
   R11        3.19603   0.01580  -0.00290  -0.00785  -0.01075   3.18528
   R12        3.16348   0.05034  -0.00477   0.08891   0.08413   3.24762
    A1        2.07814   0.01845   0.00030   0.01929   0.01883   2.09698
    A2        2.11120  -0.01265  -0.00002  -0.01644  -0.01608   2.09512
    A3        2.09384  -0.00580  -0.00027  -0.00285  -0.00275   2.09109
    A4        2.05478   0.00761  -0.00157   0.01965   0.01809   2.07286
    A5        2.10786   0.00060   0.00026   0.00434   0.00459   2.11245
    A6        2.12055  -0.00821   0.00131  -0.02399  -0.02268   2.09787
    A7        2.15027  -0.02607   0.00127  -0.03894  -0.03692   2.11334
    A8        2.06485   0.01223  -0.00103   0.02523   0.02383   2.08868
    A9        2.06807   0.01384  -0.00024   0.01371   0.01309   2.08116
   A10        2.15026  -0.02607   0.00127  -0.03894  -0.03692   2.11334
   A11        2.06807   0.01384  -0.00024   0.01371   0.01309   2.08116
   A12        2.06485   0.01223  -0.00103   0.02523   0.02383   2.08868
   A13        2.05478   0.00761  -0.00157   0.01965   0.01809   2.07286
   A14        2.12055  -0.00821   0.00131  -0.02398  -0.02267   2.09787
   A15        2.10786   0.00060   0.00026   0.00433   0.00459   2.11245
   A16        2.07814   0.01845   0.00029   0.01929   0.01883   2.09698
   A17        2.09384  -0.00580  -0.00027  -0.00285  -0.00275   2.09109
   A18        2.11120  -0.01265  -0.00002  -0.01644  -0.01609   2.09512
    D1        0.00000   0.00000   0.00000   0.00000  -0.00000   0.00000
    D2        3.14159   0.00000   0.00000  -0.00000   0.00000   3.14159
    D3        3.14159   0.00000   0.00000   0.00000   0.00000   3.14159
    D4        0.00000   0.00000   0.00000  -0.00000  -0.00000   0.00000
    D5       -0.00000  -0.00000   0.00000   0.00000   0.00000   0.00000
    D6        3.14159   0.00000   0.00000   0.00000   0.00000   3.14159
    D7        3.14159  -0.00000   0.00000  -0.00000   0.00000   3.14159
    D8        0.00000  -0.00000   0.00000  -0.00000  -0.00000   0.00000
    D9        0.00000  -0.00000   0.00000  -0.00000   0.00000   0.00000
   D10        3.14159  -0.00000   0.00000  -0.00000   0.00000   3.14159
   D11        3.14159  -0.00000   0.00000   0.00000   0.00000   3.14159
   D12       -0.00000  -0.00000   0.00000   0.00000   0.00000   0.00000
   D13        0.00000  -0.00000   0.00000   0.00000   0.00000   0.00000
   D14        3.14159  -0.00000   0.00000  -0.00000   0.00000   3.14159
   D15        3.14159   0.00000   0.00000   0.00000   0.00000   3.14159
   D16       -0.00000  -0.00000   0.00000  -0.00000   0.00000   0.00000
   D17       -0.00000   0.00000   0.00000   0.00000   0.00000   0.00000
   D18        3.14159   0.00000   0.00000  -0.00000   0.00000   3.14159
   D19        3.14159   0.00000   0.00000   0.00000   0.00000   3.14159
   D20        0.00000   0.00000   0.00000   0.00000  -0.00000   0.00000
   D21        0.00000  -0.00000   0.00000  -0.00000   0.00000   0.00000
   D22        3.14159  -0.00000   0.00000  -0.00000   0.00000   3.14159
[...]
    D2        3.14159  -0.00000   0.00000  -0.00000   0.00000   3.14159
    D3        3.14159   0.00000   0.00000   0.00000   0.00000   3.14159
    D4       -0.00000   0.00000   0.00000   0.00000   0.00000   0.00000
    D5        0.00000   0.00000   0.00000   0.00000  -0.00000   0.00000
    D6        3.14159   0.00000   0.00000   0.00000   0.00000   3.14159
    D7        3.14159  -0.00000   0.00000  -0.00000   0.00000   3.14159
    D8       -0.00000  -0.00000   0.00000  -0.00000   0.00000   0.00000
    D9       -0.00000   0.00000   0.00000   0.00000   0.00000   0.00000
   D10        3.14159  -0.00000   0.00000  -0.00000   0.00000   3.14159
   D11        3.14159   0.00000   0.00000   0.00000   0.00000   3.14159
   D12        0.00000  -0.00000   0.00000  -0.00000  -0.00000   0.00000
   D13        0.00000  -0.00000   0.00000  -0.00000  -0.00000   0.00000
   D14        3.14159  -0.00000   0.00000  -0.00000   0.00000   3.14159
   D15        3.14159   0.00000   0.00000   0.00000   0.00000   3.14159
   D16       -0.00000   0.00000   0.00000   0.00000   0.00000   0.00000
   D17        0.00000  -0.00000   0.00000  -0.00000   0.00000   0.00000
   D18        3.14159  -0.00000   0.00000  -0.00000   0.00000   3.14159
   D19        3.14159   0.00000   0.00000   0.00000   0.00000   3.14159
   D20       -0.00000   0.00000   0.00000   0.00000   0.00000   0.00000
   D21       -0.00000   0.00000   0.00000   0.00000   0.00000   0.00000
   D22        3.14159  -0.00000   0.00000  -0.00000   0.00000   3.14159
   D23        3.14159   0.00000   0.00000   0.00000   0.00000   3.14159
   D24        0.00000   0.00000   0.00000   0.00000  -0.00000   0.00000
         Item               Value     Threshold  Converged?
 Maximum Force            0.000100     0.000450     YES
 RMS     Force            0.000035     0.000300     YES
 Maximum Displacement     0.001077     0.001800     YES
 RMS     Displacement     0.000228     0.001200     YES
 Predicted change in Energy=-2.081272D-07
 Optimization completed.
    -- Stationary point found.
                           ----------------------------
                           !   Optimized Parameters   !
                           ! (Angstroms and Degrees)  !
 --------------------------                            --------------------------
 ! Name  Definition              Value          Derivative Info.                !
 --------------------------------------------------------------------------------
 ! R1    R(1,2)                  1.3894         -DE/DX =    0.0001              !
 ! R2    R(1,6)                  1.3788         -DE/DX =    0.0                 !
 ! R3    R(1,8)                  1.7876         -DE/DX =    0.0001              !
 ! R4    R(2,3)                  1.404          -DE/DX =    0.0                 !
 ! R5    R(2,11)                 1.7153         -DE/DX =    0.0                 !
 ! R6    R(3,4)                  1.3902         -DE/DX =   -0.0001              !
 ! R7    R(3,12)                 1.098          -DE/DX =    0.0001              !
 ! R8    R(4,5)                  1.404          -DE/DX =    0.0                 !
 ! R9    R(4,9)                  1.0982         -DE/DX =    0.0                 !
 ! R10   R(5,6)                  1.3894         -DE/DX =    0.0001              !
 ! R11   R(5,10)                 1.7153         -DE/DX =    0.0                 !
 ! R12   R(6,7)                  1.7876         -DE/DX =    0.0001              !
 ! A1    A(2,1,6)              120.3015         -DE/DX =    0.0                 !
 ! A2    A(2,1,8)              119.3809         -DE/DX =    0.0                 !
 ! A3    A(6,1,8)              120.3176         -DE/DX =    0.0                 !
 ! A4    A(1,2,3)              120.0112         -DE/DX =   -0.0001              !
 ! A5    A(1,2,11)             122.3019         -DE/DX =    0.0                 !
 ! A6    A(3,2,11)             117.6869         -DE/DX =    0.0                 !
 ! A7    A(2,3,4)              119.6875         -DE/DX =    0.0                 !
 ! A8    A(2,3,12)             120.2952         -DE/DX =    0.0                 !
 ! A9    A(4,3,12)             120.0174         -DE/DX =    0.0                 !
 ! A10   A(3,4,5)              119.687          -DE/DX =    0.0001              !
 ! A11   A(3,4,9)              120.0176         -DE/DX =    0.0                 !
 ! A12   A(5,4,9)              120.2954         -DE/DX =   -0.0001              !
 ! A13   A(4,5,6)              120.0114         -DE/DX =   -0.0001              !
 ! A14   A(4,5,10)             117.6869         -DE/DX =    0.0                 !
 ! A15   A(6,5,10)             122.3018         -DE/DX =    0.0                 !
 ! A16   A(1,6,5)              120.3015         -DE/DX =    0.0                 !
 ! A17   A(1,6,7)              120.3176         -DE/DX =    0.0                 !
 ! A18   A(5,6,7)              119.3809         -DE/DX =    0.0                 !
 ! D1    D(6,1,2,3)              0.0            -DE/DX =    0.0                 !
 ! D2    D(6,1,2,11)           180.0            -DE/DX =    0.0                 !
 ! D3    D(8,1,2,3)            180.0            -DE/DX =    0.0                 !
 ! D4    D(8,1,2,11)             0.0            -DE/DX =    0.0                 !
 ! D5    D(2,1,6,5)              0.0            -DE/DX =    0.0                 !
 ! D6    D(2,1,6,7)            180.0            -DE/DX =    0.0                 !
 ! D7    D(8,1,6,5)            180.0            -DE/DX =    0.0                 !
 ! D8    D(8,1,6,7)              0.0            -DE/DX =    0.0                 !
 ! D9    D(1,2,3,4)              0.0            -DE/DX =    0.0                 !
 ! D10   D(1,2,3,12)           180.0            -DE/DX =    0.0                 !
 ! D11   D(11,2,3,4)           180.0            -DE/DX =    0.0                 !
 ! D12   D(11,2,3,12)            0.0            -DE/DX =    0.0                 !
 ! D13   D(2,3,4,5)              0.0            -DE/DX =    0.0                 !
 ! D14   D(2,3,4,9)            180.0            -DE/DX =    0.0                 !
 ! D15   D(12,3,4,5)           180.0            -DE/DX =    0.0                 !
 ! D16   D(12,3,4,9)             0.0            -DE/DX =    0.0                 !
 ! D17   D(3,4,5,6)              0.0            -DE/DX =    0.0                 !
 ! D18   D(3,4,5,10)           180.0            -DE/DX =    0.0                 !
 ! D19   D(9,4,5,6)            180.0            -DE/DX =    0.0                 !
 ! D20   D(9,4,5,10)             0.0            -DE/DX =    0.0                 !
 ! D21   D(4,5,6,1)              0.0            -DE/DX =    0.0                 !
 ! D22   D(4,5,6,7)            180.0            -DE/DX =    0.0                 !
 ! D23   D(10,5,6,1)           180.0            -DE/DX =    0.0                 !
 ! D24   D(10,5,6,7)             0.0            -DE/DX =    0.0                 !
 --------------------------------------------------------------------------------
 GradGradGradGradGradGradGradGradGradGradGradGradGradGradGradGradGradGrad

                          Input orientation:                          
 ---------------------------------------------------------------------
 Center     Atomic      Atomic             Coordinates (Angstroms)
 Number     Number       Type             X           Y           Z
 ---------------------------------------------------------------------
      1          6           0       -3.108970    0.188654    0.000000
      2          6           0       -1.929071    0.922364    0.000000
      3          6           0       -0.690713    0.260761    0.000000
      4          6           0       -0.652533   -1.128891   -0.000000
      5          6           0       -1.852705   -1.857481   -0.000000
      6          6           0       -3.071106   -1.189656   -0.000000
      7         17           0       -4.588892   -2.134071   -0.000000
      8         17           0       -4.676316    1.048316    0.000000
      9          1           0        0.313096   -1.651959   -0.000000
     10         17           0       -1.745780   -3.569452   -0.000000
     11         17           0       -1.916294    2.637623    0.000000
     12          1           0        0.244586    0.835962    0.000000
 ---------------------------------------------------------------------
                    Distance matrix (angstroms):
                    1          2          3          4          5
     1  C    0.000000
     2  C    1.389421   0.000000
     3  C    2.419332   1.404012   0.000000
     4  C    2.787473   2.416029   1.390177   0.000000
     5  C    2.401015   2.780894   2.416025   1.404014   0.000000
     6  C    1.378830   2.401014   2.787468   2.419336   1.389421
     7  Cl   2.754128   4.051721   4.575043   4.062673   2.750131
     8  Cl   1.787622   2.750131   4.062669   4.575048   4.051721
     9  H    3.885665   3.413862   2.160123   1.098199   2.175530
    10  Cl   3.997706   4.495554   3.972871   2.674234   1.715307
    11  Cl   2.723954   1.715307   2.674233   3.972873   4.495554
    12  H    3.415457   2.175374   1.098016   2.159969   3.413688
                    6          7          8          9         10
     6  C    0.000000
     7  Cl   1.787623   0.000000
     8  Cl   2.754128   3.183588   0.000000
     9  H    3.415632   4.925639   5.673246   0.000000
    10  Cl   2.723953   3.184903   5.469171   2.813494   0.000000
    11  Cl   3.997706   5.469172   3.184905   4.834325   6.209417
    12  H    3.885478   5.673059   4.925482   2.488864   4.834173
                   11         12
    11  Cl   0.000000
    12  H    2.813430   0.000000
 Stoichiometry    C6H2Cl4(1-,2)
 Framework group  CS[SG(C6H2Cl4)]
 Deg. of freedom    21
 Full point group                 CS      NOp   2
 Largest Abelian subgroup         CS      NOp   2
 Largest concise Abelian subgroup C1      NOp   1
                         Standard orientation:                         
 ---------------------------------------------------------------------
 Center     Atomic      Atomic             Coordinates (Angstroms)
 Number     Number       Type             X           Y           Z
 ---------------------------------------------------------------------
      1          6           0        0.382288   -0.689416   -0.000000
      2          6           0       -0.817314   -1.390448   -0.000000
      3          6           0       -2.037036   -0.695088   -0.000000
      4          6           0       -2.037040    0.695088    0.000000
      5          6           0       -0.817314    1.390446    0.000000
      6          6           0        0.382289    0.689414    0.000000
      7         17           0        1.925437    1.591793    0.000000
      8         17           0        1.925437   -1.591795   -0.000000
      9          1           0       -2.987941    1.244477    0.000000
     10         17           0       -0.877186    3.104708    0.000000
     11         17           0       -0.877189   -3.104709   -0.000000
     12          1           0       -2.987778   -1.244387   -0.000000
 ---------------------------------------------------------------------
 Rotational constants (GHZ):           1.1232619           0.5470195           0.3678698

 **********************************************************************

            Population analysis using the SCF Density.

 **********************************************************************

 Orbital symmetries:
 Alpha Orbitals:
       Occupied  (A') (A') (A') (A') (A') (A') (A') (A') (A') (A')
                 (A') (A') (A') (A") (A') (A") (A') (A') (A") (A')
                 (A') (A") (A") (A') (A') (A") (A") (A')
       Virtual   (A") (A") (A') (A') (A') (A") (A') (A') (A') (A')
                 (A') (A') (A') (A')
 Beta  Orbitals:
       Occupied  (A') (A') (A') (A') (A') (A') (A') (A') (A') (A')
                 (A') (A') (A') (A") (A') (A") (A') (A') (A") (A')
                 (A') (A") (A") (A') (A') (A") (A")
       Virtual   (A") (A") (A') (A') (A") (A') (A') (A') (A') (A')
                 (A') (A') (A') (A') (A')
 The electronic state is 2-A'.
 Alpha  occ. eigenvalues --   -1.31195  -1.24687  -1.22253  -1.15732  -1.15176
 Alpha  occ. eigenvalues --   -1.00116  -0.98948  -0.71743  -0.71709  -0.53348
 Alpha  occ. eigenvalues --   -0.47704  -0.47339  -0.41181  -0.40604  -0.40160
 Alpha  occ. eigenvalues --   -0.35664  -0.34169  -0.33827  -0.30943  -0.29911
 Alpha  occ. eigenvalues --   -0.29327  -0.27842  -0.26587  -0.25217  -0.23546
 Alpha  occ. eigenvalues --   -0.19552  -0.18926  -0.03972
 Alpha virt. eigenvalues --    0.14704   0.15507   0.17021   0.18291   0.19549
 Alpha virt. eigenvalues --    0.24170   0.27396   0.27981   0.30126   0.30962
 Alpha virt. eigenvalues --    0.32338   0.32662   0.34383   0.35118
  Beta  occ. eigenvalues --   -1.30939  -1.24507  -1.21999  -1.13785  -1.13052
  Beta  occ. eigenvalues --   -0.99112  -0.98717  -0.71324  -0.71042  -0.52427
  Beta  occ. eigenvalues --   -0.47260  -0.47101  -0.40682  -0.40455  -0.38679
  Beta  occ. eigenvalues --   -0.35676  -0.33307  -0.33189  -0.30616  -0.29802
  Beta  occ. eigenvalues --   -0.28711  -0.27626  -0.25973  -0.24412  -0.22883
  Beta  occ. eigenvalues --   -0.19609  -0.17996
  Beta virt. eigenvalues --    0.14717   0.15884   0.18708   0.19141   0.24658
  Beta virt. eigenvalues --    0.24744   0.24969   0.27535   0.28456   0.30495
  Beta virt. eigenvalues --    0.31393   0.32356   0.32989   0.34852   0.35523
          Condensed to atoms (all electrons):
               1          2          3          4          5          6
     1  C    4.050852   0.000000   0.000000   0.000000   0.000000   0.000000
     2  C    0.000000   4.053566   0.000000   0.000000   0.000000   0.000000
     3  C    0.000000   0.000000   4.163173   0.000000   0.000000   0.000000
     4  C    0.000000   0.000000   0.000000   4.163180   0.000000   0.000000
     5  C    0.000000   0.000000   0.000000   0.000000   4.053566   0.000000
     6  C    0.000000   0.000000   0.000000   0.000000   0.000000   4.050847
     7  Cl   0.000000   0.000000   0.000000   0.000000   0.000000   0.000000
     8  Cl   0.000000   0.000000   0.000000   0.000000   0.000000   0.000000
     9  H    0.000000   0.000000   0.000000   0.000000   0.000000   0.000000
    10  Cl   0.000000   0.000000   0.000000   0.000000   0.000000   0.000000
    11  Cl   0.000000   0.000000   0.000000   0.000000   0.000000   0.000000
    12  H    0.000000   0.000000   0.000000   0.000000   0.000000   0.000000
               7          8          9         10         11         12
     1  C    0.000000   0.000000   0.000000   0.000000   0.000000   0.000000
     2  C    0.000000   0.000000   0.000000   0.000000   0.000000   0.000000
     3  C    0.000000   0.000000   0.000000   0.000000   0.000000   0.000000
     4  C    0.000000   0.000000   0.000000   0.000000   0.000000   0.000000
     5  C    0.000000   0.000000   0.000000   0.000000   0.000000   0.000000
     6  C    0.000000   0.000000   0.000000   0.000000   0.000000   0.000000
     7  Cl   7.265247   0.000000   0.000000   0.000000   0.000000   0.000000
     8  Cl   0.000000   7.265252   0.000000   0.000000   0.000000   0.000000
     9  H    0.000000   0.000000   0.883232   0.000000   0.000000   0.000000
    10  Cl   0.000000   0.000000   0.000000   7.083924   0.000000   0.000000
    11  Cl   0.000000   0.000000   0.000000   0.000000   7.083922   0.000000
    12  H    0.000000   0.000000   0.000000   0.000000   0.000000   0.883240
          Atomic-Atomic Spin Densities.
               1          2          3          4          5          6
     1  C    0.243489   0.000000   0.000000   0.000000   0.000000   0.000000
     2  C    0.000000  -0.035606   0.000000   0.000000   0.000000   0.000000
     3  C    0.000000   0.000000  -0.001662   0.000000   0.000000   0.000000
     4  C    0.000000   0.000000   0.000000  -0.001666   0.000000   0.000000
     5  C    0.000000   0.000000   0.000000   0.000000  -0.035601   0.000000
     6  C    0.000000   0.000000   0.000000   0.000000   0.000000   0.243477
     7  Cl   0.000000   0.000000   0.000000   0.000000   0.000000   0.000000
     8  Cl   0.000000   0.000000   0.000000   0.000000   0.000000   0.000000
     9  H    0.000000   0.000000   0.000000   0.000000   0.000000   0.000000
    10  Cl   0.000000   0.000000   0.000000   0.000000   0.000000   0.000000
    11  Cl   0.000000   0.000000   0.000000   0.000000   0.000000   0.000000
    12  H    0.000000   0.000000   0.000000   0.000000   0.000000   0.000000
               7          8          9         10         11         12
     1  C    0.000000   0.000000   0.000000   0.000000   0.000000   0.000000
     2  C    0.000000   0.000000   0.000000   0.000000   0.000000   0.000000
     3  C    0.000000   0.000000   0.000000   0.000000   0.000000   0.000000
     4  C    0.000000   0.000000   0.000000   0.000000   0.000000   0.000000
     5  C    0.000000   0.000000   0.000000   0.000000   0.000000   0.000000
     6  C    0.000000   0.000000   0.000000   0.000000   0.000000   0.000000
     7  Cl   0.270052   0.000000   0.000000   0.000000   0.000000   0.000000
     8  Cl   0.000000   0.270058   0.000000   0.000000   0.000000   0.000000
     9  H    0.000000   0.000000  -0.000636   0.000000   0.000000   0.000000
    10  Cl   0.000000   0.000000   0.000000   0.024365   0.000000   0.000000
    11  Cl   0.000000   0.000000   0.000000   0.000000   0.024366   0.000000
    12  H    0.000000   0.000000   0.000000   0.000000   0.000000  -0.000636
 Mulliken charges and spin densities:
               1          2
     1  C   -0.050852   0.243489
     2  C   -0.053566  -0.035606
     3  C   -0.163173  -0.001662
     4  C   -0.163180  -0.001666
     5  C   -0.053566  -0.035601
     6  C   -0.050847   0.243477
     7  Cl  -0.265247   0.270052
     8  Cl  -0.265252   0.270058
     9  H    0.116768  -0.000636
    10  Cl  -0.083924   0.024365
    11  Cl  -0.083922   0.024366
    12  H    0.116760  -0.000636
 Sum of Mulliken charges =  -1.00000   1.00000
 Mulliken charges and spin densities with hydrogens summed into heavy atoms:
               1          2
     1  C   -0.050852   0.243489
     2  C   -0.053566  -0.035606
     3  C   -0.046413  -0.002298
     4  C   -0.046412  -0.002301
     5  C   -0.053566  -0.035601
     6  C   -0.050847   0.243477
     7  Cl  -0.265247   0.270052
     8  Cl  -0.265252   0.270058
    10  Cl  -0.083924   0.024365
    11  Cl  -0.083922   0.024366
 Charge=             -1.0000 electrons
 Dipole moment (field-independent basis, Debye):
    X=             -4.7009    Y=              0.0001    Z=              0.0000  Tot=              4.7009
 N-N= 3.058920605569D+02 E-N=-4.437589069484D+02  KE=-1.370192573089D+02
 Symmetry A'   KE=-1.053886804650D+02
 Symmetry A"   KE=-3.163057684384D+01
 Symmetry A'   SP= 1.000000000000D+00
 Symmetry A"   SP=-2.442490654175D-15
 1\1\GINC-SH02-01N15\FOpt\UAM1\ZDO\C6H2Cl4(1-,2)\JLAPIER\09-Dec-2025\0\
 \# opt am1 SCF=XQC\\4-Chloro-Benzene Anion Radical (1245)\\-1,2\C,-3.1
 089699788,0.1886540821,0.\C,-1.9290714096,0.9223637647,0.\C,-0.6907131
 963,0.2607614543,0.\C,-0.6525334424,-1.128890872,0.\C,-1.8527050191,-1
 .8574812384,0.\C,-3.0711058579,-1.189655743,0.\Cl,-4.5888923132,-2.134
 0709055,0.\Cl,-4.6763164768,1.0483162227,0.\H,0.3130957918,-1.65195902
 59,0.\Cl,-1.7457797956,-3.5694523375,0.\Cl,-1.9162940973,2.6376230898,
 0.\H,0.2445857953,0.8359615088,0.\\Version=ES64L-G16RevB.01\State=2-A'
 \HF=-0.0083457\S2=0.758942\S2-1=0.\S2A=0.75005\RMSD=9.625e-09\RMSF=7.9
 33e-05\Dipole=1.8487609,0.0507508,0.\PG=CS [SG(C6H2Cl4)]\\@


 MEMORIES ARE LIKE AN ENGLISH GRAMMER LESSON -
 PRESENT TENSE, AND PAST PERFECT.
 Job cpu time:       0 days  0 hours  0 minutes 10.5 seconds.
 Elapsed time:       0 days  0 hours  0 minutes 26.7 seconds.
 File lengths (MBytes):  RWF=     15 Int=      0 D2E=      0 Chk=      2 Scr=      1
 Normal termination of Gaussian 16 at Tue Dec  9 08:35:10 2025.
