 Entering Gaussian System, Link 0=g16
 Initial command:
 /share/software/user/restricted/gaussian/g16.B01/l1.exe "/home/users/jlapier/Chloroaromatics/Gau-11219.inp" -scrdir="/home/users/jlapier/Chloroaromatics/"
 Entering Link 1 = /share/software/user/restricted/gaussian/g16.B01/l1.exe PID=     11220.
  
 Copyright (c) 1988-2017, Gaussian, Inc.  All Rights Reserved.
  
 This is part of the Gaussian(R) 16 program.  It is based on
 the Gaussian(R) 09 system (copyright 2009, Gaussian, Inc.),
 the Gaussian(R) 03 system (copyright 2003, Gaussian, Inc.),
 the Gaussian(R) 98 system (copyright 1998, Gaussian, Inc.),
 the Gaussian(R) 94 system (copyright 1995, Gaussian, Inc.),
 the Gaussian 92(TM) system (copyright 1992, Gaussian, Inc.),
 the Gaussian 90(TM) system (copyright 1990, Gaussian, Inc.),
 the Gaussian 88(TM) system (copyright 1988, Gaussian, Inc.),
 the Gaussian 86(TM) system (copyright 1986, Carnegie Mellon
 University), and the Gaussian 82(TM) system (copyright 1983,
 Carnegie Mellon University). Gaussian is a federally registered
 trademark of Gaussian, Inc.
  
 This software contains proprietary and confidential information,
 including trade secrets, belonging to Gaussian, Inc.
  
 This software is provided under written license and may be
 used, copied, transmitted, or stored only in accord with that
 written license.
  
 The following legend is applicable only to US Government
 contracts under FAR:
  
                    RESTRICTED RIGHTS LEGEND
  
 Use, reproduction and disclosure by the US Government is
 subject to restrictions as set forth in subparagraphs (a)
 and (c) of the Commercial Computer Software - Restricted
 Rights clause in FAR 52.227-19.
  
 Gaussian, Inc.
 340 Quinnipiac St., Bldg. 40, Wallingford CT 06492
  
  
 ---------------------------------------------------------------
 Warning -- This program may not be used in any manner that
 competes with the business of Gaussian, Inc. or will provide
 assistance to any competitor of Gaussian, Inc.  The licensee
 of this program is prohibited from giving any competitor of
 Gaussian, Inc. access to this program.  By using this program,
 the user acknowledges that Gaussian, Inc. is engaged in the
 business of creating and licensing software in the field of
 computational chemistry and represents and warrants to the
 licensee that it is not a competitor of Gaussian, Inc. and that
 it will not use this program in any manner prohibited above.
 ---------------------------------------------------------------
  

 Cite this work as:
 Gaussian 16, Revision B.01,
 M. J. Frisch, G. W. Trucks, H. B. Schlegel, G. E. Scuseria, 
 M. A. Robb, J. R. Cheeseman, G. Scalmani, V. Barone, 
 G. A. Petersson, H. Nakatsuji, X. Li, M. Caricato, A. V. Marenich, 
 J. Bloino, B. G. Janesko, R. Gomperts, B. Mennucci, H. P. Hratchian, 
 J. V. Ortiz, A. F. Izmaylov, J. L. Sonnenberg, D. Williams-Young, 
 F. Ding, F. Lipparini, F. Egidi, J. Goings, B. Peng, A. Petrone, 
 T. Henderson, D. Ranasinghe, V. G. Zakrzewski, J. Gao, N. Rega, 
 G. Zheng, W. Liang, M. Hada, M. Ehara, K. Toyota, R. Fukuda, 
 J. Hasegawa, M. Ishida, T. Nakajima, Y. Honda, O. Kitao, H. Nakai, 
 T. Vreven, K. Throssell, J. A. Montgomery, Jr., J. E. Peralta, 
 F. Ogliaro, M. J. Bearpark, J. J. Heyd, E. N. Brothers, K. N. Kudin, 
 V. N. Staroverov, T. A. Keith, R. Kobayashi, J. Normand, 
 K. Raghavachari, A. P. Rendell, J. C. Burant, S. S. Iyengar, 
 J. Tomasi, M. Cossi, J. M. Millam, M. Klene, C. Adamo, R. Cammi, 
 J. W. Ochterski, R. L. Martin, K. Morokuma, O. Farkas, 
 J. B. Foresman, and D. J. Fox, Gaussian, Inc., Wallingford CT, 2016.
 
 ******************************************
 Gaussian 16:  ES64L-G16RevB.01 20-Dec-2017
                10-Dec-2025 
 ******************************************
 %mem=2GB
 %nprocshare=1
 Will use up to    1 processors via shared memory.
 %chk=geometry_chks/1245-124_-ClBzNeutralRadical.chk
 -----------------
 # opt am1 SCF=XQC
 -----------------
 1/18=20,19=15,26=1,38=1/1,3;
 2/9=110,12=2,17=6,18=5,40=1/2;
 3/5=2,25=1,41=700000,71=1/1,2,3;
 4/35=1/1;
 5/5=2,8=3,13=1,35=1,38=5/2,8;
 6/7=2,8=2,9=2,10=2,28=1/1;
 7//1,2,3,16;
 1/18=20,19=15,26=1/3(2);
 2/9=110/2;
 99//99;
 2/9=110/2;
 3/5=2,25=1,41=700000,71=1,135=20/1,2,3;
 4/5=5,16=3,35=1/1;
 5/5=2,8=3,13=1,35=1,38=5/2,8;
 7//1,2,3,16;
 1/18=20,19=15,26=1/3(-5);
 2/9=110/2;
 6/7=2,8=2,9=2,10=2,19=2,28=1/1;
 99/9=1/99;
 --------------------------------
 Neutral Radical (removed 5) 124_
 --------------------------------
 Symbolic Z-matrix:
 Charge =  0 Multiplicity = 2
 C                    -3.20928   0.19943   0. 
 C                    -2.0115    0.93555   0. 
 C                    -0.77511   0.2663    0. 
 C                    -0.7365   -1.13907   0. 
 C                    -1.93429  -1.87519   0. 
 C                    -3.17067  -1.20594   0. 
 Cl                   -4.67483  -2.13035   0. 
 Cl                   -4.76193   1.03987   0. 
 H                    -2.05998   2.7004    0. 
 Cl                    0.72905   1.19071   0. 
 H                    -1.8858   -3.64003   0. 
 
 Add virtual bond connecting atoms H11        and C5         Dist= 3.34D+00.
 Add virtual bond connecting atoms H9         and C2         Dist= 3.34D+00.

 GradGradGradGradGradGradGradGradGradGradGradGradGradGradGradGradGradGrad
 Berny optimization.
 Initialization pass.
                           ----------------------------
                           !    Initial Parameters    !
                           ! (Angstroms and Degrees)  !
 --------------------------                            --------------------------
 ! Name  Definition              Value          Derivative Info.                !
 --------------------------------------------------------------------------------
 ! R1    R(1,2)                  1.4059         estimate D2E/DX2                !
 ! R2    R(1,6)                  1.4059         estimate D2E/DX2                !
 ! R3    R(1,8)                  1.7655         estimate D2E/DX2                !
 ! R4    R(2,3)                  1.4059         estimate D2E/DX2                !
 ! R5    R(2,9)                  1.7655         estimate D2E/DX2                !
 ! R6    R(3,4)                  1.4059         estimate D2E/DX2                !
 ! R7    R(3,10)                 1.7655         estimate D2E/DX2                !
 ! R8    R(4,5)                  1.4059         estimate D2E/DX2                !
 ! R9    R(5,6)                  1.4059         estimate D2E/DX2                !
 ! R10   R(5,11)                 1.7655         estimate D2E/DX2                !
 ! R11   R(6,7)                  1.7655         estimate D2E/DX2                !
 ! A1    A(2,1,6)              119.9999         estimate D2E/DX2                !
 ! A2    A(2,1,8)              119.9999         estimate D2E/DX2                !
 ! A3    A(6,1,8)              120.0001         estimate D2E/DX2                !
 ! A4    A(1,2,3)              120.0            estimate D2E/DX2                !
 ! A5    A(1,2,9)              120.0001         estimate D2E/DX2                !
 ! A6    A(3,2,9)              119.9999         estimate D2E/DX2                !
 ! A7    A(2,3,4)              120.0001         estimate D2E/DX2                !
 ! A8    A(2,3,10)             120.0            estimate D2E/DX2                !
 ! A9    A(4,3,10)             119.9999         estimate D2E/DX2                !
 ! A10   A(3,4,5)              119.9997         estimate D2E/DX2                !
 ! A11   A(4,5,6)              120.0            estimate D2E/DX2                !
 ! A12   A(4,5,11)             119.9996         estimate D2E/DX2                !
 ! A13   A(6,5,11)             120.0004         estimate D2E/DX2                !
 ! A14   A(1,6,5)              120.0003         estimate D2E/DX2                !
 ! A15   A(1,6,7)              119.9999         estimate D2E/DX2                !
 ! A16   A(5,6,7)              119.9998         estimate D2E/DX2                !
 ! D1    D(6,1,2,3)              0.0            estimate D2E/DX2                !
 ! D2    D(6,1,2,9)            180.0            estimate D2E/DX2                !
 ! D3    D(8,1,2,3)            180.0            estimate D2E/DX2                !
 ! D4    D(8,1,2,9)              0.0            estimate D2E/DX2                !
 ! D5    D(2,1,6,5)              0.0            estimate D2E/DX2                !
 ! D6    D(2,1,6,7)            180.0            estimate D2E/DX2                !
 ! D7    D(8,1,6,5)            180.0            estimate D2E/DX2                !
 ! D8    D(8,1,6,7)              0.0            estimate D2E/DX2                !
 ! D9    D(1,2,3,4)              0.0            estimate D2E/DX2                !
 ! D10   D(1,2,3,10)           180.0            estimate D2E/DX2                !
 ! D11   D(9,2,3,4)            180.0            estimate D2E/DX2                !
 ! D12   D(9,2,3,10)             0.0            estimate D2E/DX2                !
 ! D13   D(2,3,4,5)              0.0            estimate D2E/DX2                !
 ! D14   D(10,3,4,5)           180.0            estimate D2E/DX2                !
 ! D15   D(3,4,5,6)              0.0            estimate D2E/DX2                !
 ! D16   D(3,4,5,11)           180.0            estimate D2E/DX2                !
 ! D17   D(4,5,6,1)              0.0            estimate D2E/DX2                !
 ! D18   D(4,5,6,7)            180.0            estimate D2E/DX2                !
 ! D19   D(11,5,6,1)           180.0            estimate D2E/DX2                !
 ! D20   D(11,5,6,7)             0.0            estimate D2E/DX2                !
 --------------------------------------------------------------------------------
 Trust Radius=3.00D-01 FncErr=1.00D-07 GrdErr=1.00D-07 EigMax=2.50D+02 EigMin=1.00D-04
 Number of steps in this run=     57 maximum allowed number of steps=    100.
 GradGradGradGradGradGradGradGradGradGradGradGradGradGradGradGradGradGrad

                          Input orientation:                          
 ---------------------------------------------------------------------
 Center     Atomic      Atomic             Coordinates (Angstroms)
 Number     Number       Type             X           Y           Z
 ---------------------------------------------------------------------
      1          6           0       -3.209280    0.199430    0.000000
      2          6           0       -2.011500    0.935550    0.000000
      3          6           0       -0.775110    0.266300    0.000000
      4          6           0       -0.736500   -1.139070    0.000000
      5          6           0       -1.934290   -1.875190    0.000000
      6          6           0       -3.170670   -1.205940    0.000000
      7         17           0       -4.674830   -2.130350    0.000000
      8         17           0       -4.761930    1.039870    0.000000
      9          1           0       -2.059980    2.700400    0.000000
     10         17           0        0.729050    1.190710    0.000000
     11          1           0       -1.885800   -3.640030    0.000000
 ---------------------------------------------------------------------
                    Distance matrix (angstroms):
                    1          2          3          4          5
     1  C    0.000000
     2  C    1.405898   0.000000
     3  C    2.435088   1.405900   0.000000
     4  C    2.811801   2.435092   1.405900   0.000000
     5  C    2.435087   2.811800   2.435093   1.405907   0.000000
     6  C    1.405900   2.435088   2.811796   2.435088   1.405892
     7  Cl   2.752401   4.061166   4.577308   4.061167   2.752393
     8  Cl   1.765520   2.752408   4.061175   4.577321   4.061173
     9  H    2.752406   1.765516   2.752405   4.061173   4.577316
    10  Cl   4.061167   2.752403   1.765512   2.752401   4.061173
    11  H    4.061164   4.577306   4.061163   2.752397   1.765506
                    6          7          8          9         10
     6  C    0.000000
     7  Cl   1.765512   0.000000
     8  Cl   2.752412   3.171416   0.000000
     9  H    4.061173   5.493049   3.171418   0.000000
    10  Cl   4.577308   6.342819   5.493051   3.171412   0.000000
    11  H    2.752396   3.171407   5.493049   6.342822   5.493040
                   11
    11  H    0.000000
 Stoichiometry    C6H2Cl3(2)
 Framework group  CS[SG(C6H2Cl3)]
 Deg. of freedom    19
 Full point group                 CS      NOp   2
 Largest Abelian subgroup         CS      NOp   2
 Largest concise Abelian subgroup C1      NOp   1
                         Standard orientation:                         
 ---------------------------------------------------------------------
 Center     Atomic      Atomic             Coordinates (Angstroms)
 Number     Number       Type             X           Y           Z
 ---------------------------------------------------------------------
      1          6           0        0.000000    0.800123    0.000000
      2          6           0        1.217544    0.097175    0.000000
      3          6           0        1.217544   -1.308726    0.000000
      4          6           0        0.000000   -2.011678    0.000000
      5          6           0       -1.217549   -1.308721    0.000000
      6          6           0       -1.217544    0.097170    0.000000
      7         17           0       -2.746522    0.979926    0.000000
      8         17           0        0.000001    2.565643    0.000000
      9          1           0        2.746527    0.979930    0.000000
     10         17           0        2.746522   -2.191482    0.000000
     11          1           0       -2.746518   -2.191480    0.000000
 ---------------------------------------------------------------------
 Rotational constants (GHZ):           1.8306772           0.5789524           0.4398497
 Standard basis: VSTO-6G (5D, 7F)
 There are    29 symmetry adapted cartesian basis functions of A'  symmetry.
 There are     9 symmetry adapted cartesian basis functions of A"  symmetry.
 There are    29 symmetry adapted basis functions of A'  symmetry.
 There are     9 symmetry adapted basis functions of A"  symmetry.
    38 basis functions,   228 primitive gaussians,    38 cartesian basis functions
    24 alpha electrons       23 beta electrons
       nuclear repulsion energy       239.3215089687 Hartrees.
 Integral buffers will be    131072 words long.
 Regular integral format.
 Two-electron integral symmetry is turned off.
 Do NDO integrals.
 One-electron integrals computed using PRISM.
 NBasis=    38 RedAO= T EigKep=  1.00D+00  NBF=    29     9
 NBsUse=    38 1.00D-06 EigRej= -1.00D+00 NBFU=    29     9
 Simple Huckel Guess.
 Initial guess orbital symmetries:
 Alpha Orbitals:
       Occupied  (A') (A') (A') (A') (A') (A') (A') (A') (A') (A")
                 (A') (A') (A') (A") (A') (A") (A') (A") (A') (A')
                 (A') (A") (A") (A')
       Virtual   (A") (A') (A") (A') (A") (A') (A') (A') (A') (A')
                 (A') (A') (A') (A')
 Beta  Orbitals:
       Occupied  (A') (A') (A') (A') (A') (A') (A') (A') (A') (A")
                 (A') (A') (A') (A") (A') (A") (A') (A") (A') (A')
                 (A') (A") (A")
       Virtual   (A') (A") (A') (A") (A') (A") (A') (A') (A') (A')
                 (A') (A') (A') (A') (A')
 The electronic state of the initial guess is 2-A'.
 Initial guess <Sx>= 0.0000 <Sy>= 0.0000 <Sz>= 0.5000 <S**2>= 0.7500 S= 0.5000
 Keep J ints in memory in canonical form, NReq=863588.
 Overlap will be assumed to be unity.
 Requested convergence on RMS density matrix=1.00D-08 within  32 cycles.
 Requested convergence on MAX density matrix=1.00D-06.
 Requested convergence on             energy=1.00D-06.
 No special actions if energy rises.
 Fock symm off for IB=2 I1=    1 I=   30 J=   26 Cut=1.00D-07 Err=4.93D-03
 Fock matrix is not symmetric: symmetry in diagonalization turned off.
 Rare condition: small coef for last iteration:  0.000D+00
 Rare condition: small coef for last iteration:  0.000D+00
 Rare condition: small coef for last iteration:  0.000D+00
 Rare condition: small coef for last iteration:  0.000D+00
 Rare condition: small coef for last iteration:  0.000D+00
 Rare condition: small coef for last iteration:  0.000D+00
 Rare condition: small coef for last iteration:  0.000D+00
 Rare condition: small coef for last iteration:  0.000D+00
 Rare condition: small coef for last iteration:  0.000D+00
 Rare condition: small coef for last iteration:  0.000D+00
 Rare condition: small coef for last iteration:  0.000D+00
 Rare condition: small coef for last iteration:  0.000D+00
 Rare condition: small coef for last iteration:  0.000D+00
 Rare condition: small coef for last iteration:  0.000D+00
 Rare condition: small coef for last iteration:  0.000D+00
 Rare condition: small coef for last iteration:  0.000D+00
 >>>>>>>>>> Convergence criterion not met.
 SCF Done:  E(UAM1) =  0.351545404416     A.U. after   33 cycles
            NFock= 32  Conv=0.76D-03     -V/T= 1.0031
 <Sx>= 0.0000 <Sy>= 0.0000 <Sz>= 0.5000 <S**2>= 1.2427 S= 0.7218
 <L.S>=  0.00000000000    
 Annihilation of the first spin contaminant:
 S**2 before annihilation     1.2427,   after     1.0058
 Keep J ints in memory in canonical form, NReq=863988.
 LinEq1:  Iter=  0 NonCon=     1 RMS=2.04D-04 Max=1.47D-03 NDo=     1
 AX will form     1 AO Fock derivatives at one time.
 LinEq1:  Iter=  1 NonCon=     1 RMS=4.81D-05 Max=2.71D-04 NDo=     1
 LinEq1:  Iter=  2 NonCon=     1 RMS=1.34D-05 Max=1.60D-04 NDo=     1
 LinEq1:  Iter=  3 NonCon=     1 RMS=3.48D-06 Max=3.14D-05 NDo=     1
 LinEq1:  Iter=  4 NonCon=     1 RMS=9.08D-07 Max=1.06D-05 NDo=     1
 LinEq1:  Iter=  5 NonCon=     1 RMS=2.78D-07 Max=2.62D-06 NDo=     1
 LinEq1:  Iter=  6 NonCon=     1 RMS=4.83D-08 Max=3.63D-07 NDo=     1
 LinEq1:  Iter=  7 NonCon=     1 RMS=9.27D-09 Max=8.27D-08 NDo=     1
 LinEq1:  Iter=  8 NonCon=     1 RMS=2.65D-09 Max=2.09D-08 NDo=     1
 LinEq1:  Iter=  9 NonCon=     0 RMS=8.53D-10 Max=7.41D-09 NDo=     1
 Linear equations converged to 2.610D-09 2.610D-08 after     9 iterations.
     Accept linear search using points  4 and  5.
 Gradient too large for Newton-Raphson -- use scaled steepest descent instead.
     Minimum is close to point  5 DX=  1.54D-01 DF= -3.79D-06 DXR=  6.01D-02 DFR=  3.61D-03 which will be used.
 Gradient too large for Newton-Raphson -- use scaled steepest descent instead.
 LinEq1:  Iter=  0 NonCon=     1 RMS=7.02D-04 Max=5.54D-03 NDo=     1
 LinEq1:  Iter=  1 NonCon=     1 RMS=3.24D-04 Max=2.88D-03 NDo=     1
 LinEq1:  Iter=  2 NonCon=     1 RMS=3.69D-05 Max=3.12D-04 NDo=     1
 LinEq1:  Iter=  3 NonCon=     1 RMS=1.28D-05 Max=1.05D-04 NDo=     1
 LinEq1:  Iter=  4 NonCon=     1 RMS=2.57D-06 Max=2.76D-05 NDo=     1
 LinEq1:  Iter=  5 NonCon=     1 RMS=6.92D-07 Max=7.91D-06 NDo=     1
 LinEq1:  Iter=  6 NonCon=     1 RMS=1.98D-07 Max=1.46D-06 NDo=     1
 LinEq1:  Iter=  7 NonCon=     1 RMS=4.31D-08 Max=5.50D-07 NDo=     1
 LinEq1:  Iter=  8 NonCon=     1 RMS=8.08D-09 Max=5.74D-08 NDo=     1
 LinEq1:  Iter=  9 NonCon=     0 RMS=7.86D-10 Max=4.45D-09 NDo=     1
 Linear equations converged to 2.610D-09 2.610D-08 after     9 iterations.
 LinEq1:  Iter=  0 NonCon=     1 RMS=6.75D-04 Max=5.77D-03 NDo=     1
 LinEq1:  Iter=  1 NonCon=     1 RMS=3.05D-04 Max=2.43D-03 NDo=     1
 LinEq1:  Iter=  2 NonCon=     1 RMS=3.57D-05 Max=2.66D-04 NDo=     1
 LinEq1:  Iter=  3 NonCon=     1 RMS=1.19D-05 Max=9.18D-05 NDo=     1
 LinEq1:  Iter=  4 NonCon=     1 RMS=2.45D-06 Max=2.30D-05 NDo=     1
 LinEq1:  Iter=  5 NonCon=     1 RMS=6.31D-07 Max=6.25D-06 NDo=     1
 LinEq1:  Iter=  6 NonCon=     1 RMS=1.93D-07 Max=1.65D-06 NDo=     1
 LinEq1:  Iter=  7 NonCon=     1 RMS=3.63D-08 Max=3.85D-07 NDo=     1
 LinEq1:  Iter=  8 NonCon=     1 RMS=7.52D-09 Max=5.54D-08 NDo=     1
 LinEq1:  Iter=  9 NonCon=     0 RMS=7.51D-10 Max=4.77D-09 NDo=     1
 Linear equations converged to 2.610D-09 2.610D-08 after     9 iterations.
 LinEq1:  Iter=  0 NonCon=     1 RMS=5.34D-04 Max=4.85D-03 NDo=     1
 LinEq1:  Iter=  1 NonCon=     1 RMS=2.26D-04 Max=1.61D-03 NDo=     1
 LinEq1:  Iter=  2 NonCon=     1 RMS=2.96D-05 Max=2.05D-04 NDo=     1
 LinEq1:  Iter=  3 NonCon=     1 RMS=7.87D-06 Max=6.75D-05 NDo=     1
 LinEq1:  Iter=  4 NonCon=     1 RMS=2.02D-06 Max=1.74D-05 NDo=     1
 LinEq1:  Iter=  5 NonCon=     1 RMS=3.69D-07 Max=3.14D-06 NDo=     1
 LinEq1:  Iter=  6 NonCon=     1 RMS=1.01D-07 Max=9.09D-07 NDo=     1
 LinEq1:  Iter=  7 NonCon=     1 RMS=2.30D-08 Max=1.18D-07 NDo=     1
 LinEq1:  Iter=  8 NonCon=     1 RMS=5.38D-09 Max=4.41D-08 NDo=     1
 LinEq1:  Iter=  9 NonCon=     0 RMS=6.44D-10 Max=4.78D-09 NDo=     1
 Linear equations converged to 2.610D-09 2.610D-08 after     9 iterations.
     Accept linear search using points  1 and  2.
 LinEq1:  Iter=  0 NonCon=     1 RMS=1.05D-04 Max=6.99D-04 NDo=     1
 LinEq1:  Iter=  1 NonCon=     1 RMS=2.44D-05 Max=2.06D-04 NDo=     1
 LinEq1:  Iter=  2 NonCon=     1 RMS=6.63D-06 Max=4.90D-05 NDo=     1
 LinEq1:  Iter=  3 NonCon=     1 RMS=1.20D-06 Max=8.83D-06 NDo=     1
 LinEq1:  Iter=  4 NonCon=     1 RMS=2.67D-07 Max=1.92D-06 NDo=     1
 LinEq1:  Iter=  5 NonCon=     1 RMS=7.38D-08 Max=4.59D-07 NDo=     1
 LinEq1:  Iter=  6 NonCon=     1 RMS=1.66D-08 Max=1.28D-07 NDo=     1
 LinEq1:  Iter=  7 NonCon=     1 RMS=3.05D-09 Max=1.70D-08 NDo=     1
 LinEq1:  Iter=  8 NonCon=     0 RMS=7.04D-10 Max=6.68D-09 NDo=     1
 Linear equations converged to 2.610D-09 2.610D-08 after     8 iterations.
     Minimum is close to point  2 DX=  1.86D-03 DF= -2.04D-11 DXR=  1.86D-03 DFR=  3.46D-06 which will be used.
 LinEq1:  Iter=  0 NonCon=     1 RMS=5.87D-07 Max=5.71D-06 NDo=     1
 LinEq1:  Iter=  1 NonCon=     1 RMS=1.81D-07 Max=1.10D-06 NDo=     1
 LinEq1:  Iter=  2 NonCon=     1 RMS=3.26D-08 Max=2.30D-07 NDo=     1
 LinEq1:  Iter=  3 NonCon=     1 RMS=8.57D-09 Max=5.60D-08 NDo=     1
 LinEq1:  Iter=  4 NonCon=     1 RMS=2.23D-09 Max=1.75D-08 NDo=     1
 LinEq1:  Iter=  5 NonCon=     1 RMS=4.93D-10 Max=3.47D-09 NDo=     1
 LinEq1:  Iter=  6 NonCon=     1 RMS=9.11D-11 Max=6.40D-10 NDo=     1
 LinEq1:  Iter=  7 NonCon=     0 RMS=2.08D-11 Max=1.55D-10 NDo=     1
 Linear equations converged to 9.055D-11 9.055D-10 after     7 iterations.
 SCF Done:  E(UAM1) =  0.340337833166     a.u. after    9 cycles
            Convg  =    0.2139D-06                    77 Fock formations.
              S**2 =  1.8067                  -V/T =  1.0030
 <Sx>= 0.0000 <Sy>= 0.0000 <Sz>= 0.5000 <S**2>= 1.8067 S= 0.9341
 <L.S>=  0.00000000000    
 Annihilation of the first spin contaminant:
 S**2 before annihilation     1.8067,   after     2.3034

 **********************************************************************

            Population analysis using the SCF Density.

 **********************************************************************

 Orbital symmetries:
 Alpha Orbitals:
       Occupied  (A') (A') (A') (A') (A') (A') (A') (A') (A') (A')
                 (A') (A") (A') (A") (A") (A') (A') (A') (A') (A")
                 (A') (A') (A") (A")
       Virtual   (A") (A') (A') (A") (A') (A') (A') (A") (A') (A')
                 (A') (A') (A') (A')
 Beta  Orbitals:
       Occupied  (A') (A') (A') (A') (A') (A') (A') (A') (A') (A')
                 (A') (A") (A') (A") (A") (A') (A') (A') (A') (A")
                 (A') (A") (A")
       Virtual   (A') (A") (A') (A') (A") (A') (A') (A') (A") (A')
                 (A') (A') (A') (A') (A')
 The electronic state is 2-A'.
 Alpha  occ. eigenvalues --   -1.44425  -1.38688  -1.37799  -1.35953  -1.13980
 Alpha  occ. eigenvalues --   -1.12040  -0.85916  -0.83769  -0.64353  -0.62411
 Alpha  occ. eigenvalues --   -0.60850  -0.55613  -0.54626  -0.49661  -0.47304
 Alpha  occ. eigenvalues --   -0.46475  -0.46419  -0.45496  -0.44412  -0.43997
 Alpha  occ. eigenvalues --   -0.43279  -0.39744  -0.38768  -0.37199
 Alpha virt. eigenvalues --   -0.00896  -0.00846   0.00671   0.00734   0.02033
 Alpha virt. eigenvalues --    0.03538   0.04573   0.07506   0.12941   0.13473
 Alpha virt. eigenvalues --    0.14859   0.15741   0.16460   0.17616
  Beta  occ. eigenvalues --   -1.43984  -1.38665  -1.37757  -1.35657  -1.13140
  Beta  occ. eigenvalues --   -1.11157  -0.85054  -0.81879  -0.64960  -0.61916
  Beta  occ. eigenvalues --   -0.59789  -0.55527  -0.52916  -0.50098  -0.47483
  Beta  occ. eigenvalues --   -0.46920  -0.45626  -0.44227  -0.43952  -0.43731
  Beta  occ. eigenvalues --   -0.41638  -0.38095  -0.36794
  Beta virt. eigenvalues --   -0.03415  -0.00229   0.00241   0.00957   0.01720
  Beta virt. eigenvalues --    0.02326   0.03408   0.04638   0.08383   0.13334
  Beta virt. eigenvalues --    0.13857   0.15563   0.16755   0.16817   0.18819
          Condensed to atoms (all electrons):
               1          2          3          4          5          6
     1  C    4.041189   0.000000   0.000000   0.000000   0.000000   0.000000
     2  C    0.000000   4.135742   0.000000   0.000000   0.000000   0.000000
     3  C    0.000000   0.000000   4.039130   0.000000   0.000000   0.000000
     4  C    0.000000   0.000000   0.000000   4.007260   0.000000   0.000000
     5  C    0.000000   0.000000   0.000000   0.000000   4.137409   0.000000
     6  C    0.000000   0.000000   0.000000   0.000000   0.000000   4.028131
     7  Cl   0.000000   0.000000   0.000000   0.000000   0.000000   0.000000
     8  Cl   0.000000   0.000000   0.000000   0.000000   0.000000   0.000000
     9  H    0.000000   0.000000   0.000000   0.000000   0.000000   0.000000
    10  Cl   0.000000   0.000000   0.000000   0.000000   0.000000   0.000000
    11  H    0.000000   0.000000   0.000000   0.000000   0.000000   0.000000
               7          8          9         10         11
     1  C    0.000000   0.000000   0.000000   0.000000   0.000000
     2  C    0.000000   0.000000   0.000000   0.000000   0.000000
     3  C    0.000000   0.000000   0.000000   0.000000   0.000000
     4  C    0.000000   0.000000   0.000000   0.000000   0.000000
     5  C    0.000000   0.000000   0.000000   0.000000   0.000000
     6  C    0.000000   0.000000   0.000000   0.000000   0.000000
     7  Cl   7.006462   0.000000   0.000000   0.000000   0.000000
     8  Cl   0.000000   7.006763   0.000000   0.000000   0.000000
     9  H    0.000000   0.000000   0.778920   0.000000   0.000000
    10  Cl   0.000000   0.000000   0.000000   7.014185   0.000000
    11  H    0.000000   0.000000   0.000000   0.000000   0.804810
          Atomic-Atomic Spin Densities.
               1          2          3          4          5          6
     1  C   -0.547607   0.000000   0.000000   0.000000   0.000000   0.000000
     2  C    0.000000   0.900188   0.000000   0.000000   0.000000   0.000000
     3  C    0.000000   0.000000  -0.561999   0.000000   0.000000   0.000000
     4  C    0.000000   0.000000   0.000000   1.492917   0.000000   0.000000
     5  C    0.000000   0.000000   0.000000   0.000000  -0.959672   0.000000
     6  C    0.000000   0.000000   0.000000   0.000000   0.000000   0.574948
     7  Cl   0.000000   0.000000   0.000000   0.000000   0.000000   0.000000
     8  Cl   0.000000   0.000000   0.000000   0.000000   0.000000   0.000000
     9  H    0.000000   0.000000   0.000000   0.000000   0.000000   0.000000
    10  Cl   0.000000   0.000000   0.000000   0.000000   0.000000   0.000000
    11  H    0.000000   0.000000   0.000000   0.000000   0.000000   0.000000
               7          8          9         10         11
     1  C    0.000000   0.000000   0.000000   0.000000   0.000000
     2  C    0.000000   0.000000   0.000000   0.000000   0.000000
     3  C    0.000000   0.000000   0.000000   0.000000   0.000000
     4  C    0.000000   0.000000   0.000000   0.000000   0.000000
     5  C    0.000000   0.000000   0.000000   0.000000   0.000000
     6  C    0.000000   0.000000   0.000000   0.000000   0.000000
     7  Cl   0.002706   0.000000   0.000000   0.000000   0.000000
     8  Cl   0.000000   0.008214   0.000000   0.000000   0.000000
     9  H    0.000000   0.000000  -0.360589   0.000000   0.000000
    10  Cl   0.000000   0.000000   0.000000   0.008490   0.000000
    11  H    0.000000   0.000000   0.000000   0.000000   0.442404
 Mulliken charges and spin densities:
               1          2
     1  C   -0.041189  -0.547607
     2  C   -0.135742   0.900188
     3  C   -0.039130  -0.561999
     4  C   -0.007260   1.492917
     5  C   -0.137409  -0.959672
     6  C   -0.028131   0.574948
     7  Cl  -0.006462   0.002706
     8  Cl  -0.006763   0.008214
     9  H    0.221080  -0.360589
    10  Cl  -0.014185   0.008490
    11  H    0.195190   0.442404
 Sum of Mulliken charges =  -0.00000   1.00000
 Mulliken charges and spin densities with hydrogens summed into heavy atoms:
               1          2
     1  C   -0.041189  -0.547607
     2  C    0.085338   0.539598
     3  C   -0.039130  -0.561999
     4  C   -0.007260   1.492917
     5  C    0.057782  -0.517268
     6  C   -0.028131   0.574948
     7  Cl  -0.006462   0.002706
     8  Cl  -0.006763   0.008214
    10  Cl  -0.014185   0.008490
 Charge=             -0.0000 electrons
 Dipole moment (field-independent basis, Debye):
    X=              0.1402    Y=             -0.0470    Z=              0.0000  Tot=              0.1478
 N-N= 2.393215089687D+02 E-N=-3.319742497953D+02  KE=-1.118466784385D+02
 Symmetry A'   KE=-8.586267252766D+01
 Symmetry A"   KE=-2.598400591086D+01
 Symmetry A'   SP= 1.000000000000D+00
 Symmetry A"   SP= 4.440892098501D-16
 Calling FoFJK, ICntrl=      2127 FMM=F ISym2X=1 I1Cent= 0 IOpClX= 1 NMat=1 NMatS=1 NMatT=0.
 ***** Axes restored to original set *****
 -------------------------------------------------------------------
 Center     Atomic                   Forces (Hartrees/Bohr)
 Number     Number              X              Y              Z
 -------------------------------------------------------------------
      1        6          -0.018451375    0.031810042    0.000000000
      2        6          -0.002748759    0.067551311    0.000000000
      3        6           0.035868351    0.012892426    0.000000000
      4        6          -0.066905187    0.008746849   -0.000000000
      5        6           0.030786179   -0.062767144    0.000000000
      6        6          -0.016340872   -0.033651657    0.000000000
      7       17           0.035396128    0.018128081   -0.000000000
      8       17           0.036323885   -0.016300536    0.000000000
      9        1           0.003132685   -0.104607700   -0.000000000
     10       17          -0.034266262   -0.020239152    0.000000000
     11        1          -0.002794773    0.098437480   -0.000000000
 -------------------------------------------------------------------
 Cartesian Forces:  Max     0.104607700 RMS     0.036355305

 GradGradGradGradGradGradGradGradGradGradGradGradGradGradGradGradGradGrad
 Berny optimization.
 FormGI is forming the generalized inverse of G from B-inverse, IUseBI=4.
 Internal  Forces:  Max     0.104654276 RMS     0.026050873
 Search for a local minimum.
 Step number   1 out of a maximum of   57
 All quantities printed in internal units (Hartrees-Bohrs-Radians)
 Mixed Optimization -- RFO/linear search
 Second derivative matrix not updated -- first step.
 ITU=  0
     Eigenvalues ---    0.02011   0.02011   0.02011   0.02011   0.02011
     Eigenvalues ---    0.02011   0.02011   0.02011   0.06524   0.06524
     Eigenvalues ---    0.16000   0.16000   0.22929   0.23917   0.25000
     Eigenvalues ---    0.25000   0.25000   0.25000   0.29033   0.29033
     Eigenvalues ---    0.29033   0.40939   0.41561   0.44656   0.44657
     Eigenvalues ---    0.44657   0.44657
 RFO step:  Lambda=-1.29555498D-01 EMin= 2.01067519D-02
 Linear search not attempted -- first point.
 Maximum step size (   0.300) exceeded in Quadratic search.
    -- Step size scaled by   0.389
 Iteration  1 RMS(Cart)=  0.04743805 RMS(Int)=  0.00131298
 Iteration  2 RMS(Cart)=  0.00125769 RMS(Int)=  0.00001882
 Iteration  3 RMS(Cart)=  0.00000010 RMS(Int)=  0.00001882
 ClnCor:  largest displacement from symmetrization is 5.63D-09 for atom     8.
 Variable       Old X    -DE/DX   Delta X   Delta X   Delta X     New X
                                 (Linear)    (Quad)   (Total)
    R1        2.65676  -0.02129   0.00000  -0.01384  -0.01386   2.64290
    R2        2.65677   0.00058   0.00000   0.00097   0.00094   2.65771
    R3        3.33635  -0.03970   0.00000  -0.03678  -0.03678   3.29957
    R4        2.65677  -0.02483   0.00000  -0.01681  -0.01681   2.63996
    R5        3.33634  -0.10465   0.00000  -0.20898  -0.20898   3.12736
    R6        2.65677  -0.03001   0.00000  -0.02084  -0.02081   2.63596
    R7        3.33633  -0.03979   0.00000  -0.03686  -0.03686   3.29947
    R8        2.65678  -0.05269   0.00000  -0.03611  -0.03608   2.62069
    R9        2.65675  -0.02563   0.00000  -0.01726  -0.01726   2.63949
   R10        3.33632  -0.09848   0.00000  -0.19664  -0.19664   3.13968
   R11        3.33633  -0.03965   0.00000  -0.03673  -0.03673   3.29960
    A1        2.09439  -0.00493   0.00000  -0.00329  -0.00335   2.09105
    A2        2.09439  -0.00246   0.00000  -0.00341  -0.00338   2.09101
    A3        2.09440   0.00740   0.00000   0.00670   0.00673   2.10112
    A4        2.09439   0.00639   0.00000   0.00797   0.00795   2.10235
    A5        2.09440  -0.00276   0.00000  -0.00341  -0.00340   2.09100
    A6        2.09439  -0.00363   0.00000  -0.00457  -0.00456   2.08984
    A7        2.09440  -0.01497   0.00000  -0.01627  -0.01624   2.07816
    A8        2.09440   0.00632   0.00000   0.00694   0.00693   2.10132
    A9        2.09439   0.00865   0.00000   0.00933   0.00931   2.10371
   A10        2.09439   0.02158   0.00000   0.01959   0.01966   2.11405
   A11        2.09439   0.00034   0.00000  -0.00040  -0.00038   2.09401
   A12        2.09439  -0.00002   0.00000   0.00040   0.00039   2.09478
   A13        2.09440  -0.00032   0.00000  -0.00000  -0.00001   2.09439
   A14        2.09440  -0.00840   0.00000  -0.00761  -0.00764   2.08676
   A15        2.09439   0.00935   0.00000   0.00908   0.00910   2.10350
   A16        2.09439  -0.00095   0.00000  -0.00148  -0.00146   2.09293
    D1        0.00000  -0.00000   0.00000  -0.00000   0.00000   0.00000
    D2        3.14159  -0.00000   0.00000  -0.00000   0.00000   3.14159
    D3        3.14159  -0.00000   0.00000   0.00000   0.00000   3.14159
    D4        0.00000  -0.00000   0.00000  -0.00000   0.00000   0.00000
    D5        0.00000  -0.00000   0.00000  -0.00000   0.00000   0.00000
    D6        3.14159   0.00000   0.00000   0.00000   0.00000   3.14159
    D7        3.14159  -0.00000   0.00000  -0.00000   0.00000   3.14159
    D8        0.00000   0.00000   0.00000  -0.00000   0.00000   0.00000
    D9        0.00000   0.00000   0.00000   0.00000   0.00000   0.00000
   D10        3.14159   0.00000   0.00000  -0.00000   0.00000   3.14159
   D11        3.14159   0.00000   0.00000   0.00000   0.00000   3.14159
   D12        0.00000   0.00000   0.00000   0.00000   0.00000   0.00000
   D13        0.00000  -0.00000   0.00000  -0.00000   0.00000   0.00000
   D14        3.14159   0.00000   0.00000   0.00000   0.00000   3.14159
   D15        0.00000  -0.00000   0.00000  -0.00000   0.00000   0.00000
   D16        3.14159  -0.00000   0.00000  -0.00000   0.00000   3.14159
   D17        0.00000   0.00000   0.00000   0.00000   0.00000   0.00000
   D18        3.14159  -0.00000   0.00000  -0.00000   0.00000   3.14159
   D19        3.14159   0.00000   0.00000   0.00000   0.00000   3.14159
   D20        0.00000   0.00000   0.00000   0.00000   0.00000   0.00000
         Item               Value     Threshold  Converged?
 Maximum Force            0.104654     0.000450     NO 
 RMS     Force            0.026051     0.000300     NO 
 Maximum Displacement     0.224903     0.001800     NO 
 RMS     Displacement     0.048339     0.001200     NO 
 Predicted change in Energy=-4.642263D-02
 GradGradGradGradGradGradGradGradGradGradGradGradGradGradGradGradGradGrad

                          Input orientation:                          
 ---------------------------------------------------------------------
 Center     Atomic      Atomic             Coordinates (Angstroms)
 Number     Number       Type             X           Y           Z
 ---------------------------------------------------------------------
      1          6           0       -3.207710    0.200259    0.000000
      2          6           0       -2.012810    0.927026    0.000000
      3          6           0       -0.782032    0.266107    0.000000
      4          6           0       -0.761725   -1.128633    0.000000
      5          6           0       -1.938314   -1.862719    0.000000
      6          6           0       -3.170874   -1.205658    0.000000
      7         17           0       -4.651270   -2.131512    0.000000
      8         17           0       -4.736545    1.043689    0.000000
      9          1           0       -2.056228    2.581386    0.000000
     10         17           0        0.708785    1.174952    0.000000
     11          1           0       -1.882118   -3.523217    0.000000
 ---------------------------------------------------------------------
                    Distance matrix (angstroms):
                    1          2          3          4          5
     1  C    0.000000
     2  C    1.398563   0.000000
     3  C    2.426572   1.397007   0.000000
     4  C    2.783666   2.406438   1.394888   0.000000
     5  C    2.422239   2.790740   2.422579   1.386811   0.000000
     6  C    1.406399   2.426819   2.805825   2.410380   1.396758
     7  Cl   2.742448   4.039323   4.551877   4.016756   2.726239
     8  Cl   1.746057   2.726233   4.030237   4.529700   4.034515
     9  H    2.644935   1.654930   2.642744   3.929374   4.445670
    10  Cl   4.035959   2.732864   1.746006   2.732930   4.029216
    11  H    3.952400   4.452161   3.945778   2.643731   1.661448
                    6          7          8          9         10
     6  C    0.000000
     7  Cl   1.746076   0.000000
     8  Cl   2.740601   3.176346   0.000000
     9  H    3.947675   5.380117   3.090083   0.000000
    10  Cl   4.551819   6.297849   5.446913   3.102153   0.000000
    11  H    2.651786   3.099201   5.385572   6.107086   5.365219
                   11
    11  H    0.000000
 Stoichiometry    C6H2Cl3(2)
 Framework group  CS[SG(C6H2Cl3)]
 Deg. of freedom    19
 Full point group                 CS      NOp   2
 Largest Abelian subgroup         CS      NOp   2
 Largest concise Abelian subgroup C1      NOp   1
                         Standard orientation:                         
 ---------------------------------------------------------------------
 Center     Atomic      Atomic             Coordinates (Angstroms)
 Number     Number       Type             X           Y           Z
 ---------------------------------------------------------------------
      1          6           0        0.000000    0.802599    0.000000
      2          6           0        1.209091    0.099693   -0.000000
      3          6           0        1.216014   -1.297296   -0.000000
      4          6           0        0.000214   -1.981066   -0.000000
      5          6           0       -1.206566   -1.297744    0.000000
      6          6           0       -1.217728    0.098969    0.000000
      7         17           0       -2.738060    0.957673    0.000000
      8         17           0        0.011132    2.548620   -0.000000
      9          1           0        2.641973    0.927728   -0.000000
     10         17           0        2.726376   -2.173277   -0.000000
     11          1           0       -2.638739   -2.139937    0.000000
 ---------------------------------------------------------------------
 Rotational constants (GHZ):           1.8494052           0.5885271           0.4464542
 Standard basis: VSTO-6G (5D, 7F)
 There are    29 symmetry adapted cartesian basis functions of A'  symmetry.
 There are     9 symmetry adapted cartesian basis functions of A"  symmetry.
 There are    29 symmetry adapted basis functions of A'  symmetry.
 There are     9 symmetry adapted basis functions of A"  symmetry.
    38 basis functions,   228 primitive gaussians,    38 cartesian basis functions
    24 alpha electrons       23 beta electrons
       nuclear repulsion energy       240.6655609305 Hartrees.
 Integral buffers will be    131072 words long.
 Regular integral format.
 Two-electron integral symmetry is turned off.
 Do NDO integrals.
 One-electron integrals computed using PRISM.
 NBasis=    38 RedAO= T EigKep=  1.00D+00  NBF=    29     9
 NBsUse=    38 1.00D-06 EigRej= -1.00D+00 NBFU=    29     9
 Initial guess from the checkpoint file:  "geometry_chks/1245-124_-ClBzNeutralRadical.chk"
 B after Tr=    -0.000000   -0.000000   -0.000000
         Rot=    1.000000    0.000000   -0.000000   -0.000579 Ang=  -0.07 deg.
 Initial guess orbital symmetries:
 Alpha Orbitals:
       Occupied  (A') (A') (A') (A') (A') (A') (A') (A') (A') (A')
                 (A') (A") (A') (A") (A") (A') (A') (A') (A') (A")
                 (A') (A') (A") (A")
       Virtual   (A") (A') (A') (A") (A') (A') (A') (A") (A') (A')
                 (A') (A') (A') (A')
 Beta  Orbitals:
       Occupied  (A') (A') (A') (A') (A') (A') (A') (A') (A') (A')
                 (A') (A") (A') (A") (A") (A') (A') (A') (A') (A")
                 (A') (A") (A")
       Virtual   (A') (A") (A') (A') (A") (A') (A') (A') (A") (A')
                 (A') (A') (A') (A') (A')
 Initial guess <Sx>= 0.0000 <Sy>= 0.0000 <Sz>= 0.5000 <S**2>= 1.8067 S= 0.9341
 Keep J ints in memory in canonical form, NReq=863588.
 Overlap will be assumed to be unity.
 Requested convergence on RMS density matrix=1.00D-08 within  32 cycles.
 Requested convergence on MAX density matrix=1.00D-06.
 Requested convergence on             energy=1.00D-06.
 No special actions if energy rises.
 Fock symm off for IB=2 I1=    1 I=   30 J=   15 Cut=1.00D-07 Err=5.05D-03
 Fock matrix is not symmetric: symmetry in diagonalization turned off.
 SCF Done:  E(UAM1) =  0.287168657052     A.U. after   20 cycles
            NFock= 19  Conv=0.43D-08     -V/T= 1.0026
 <Sx>= 0.0000 <Sy>= 0.0000 <Sz>= 0.5000 <S**2>= 1.3738 S= 0.7743
 <L.S>=  0.00000000000    
 Annihilation of the first spin contaminant:
 S**2 before annihilation     1.3738,   after     1.1481
 QCSCF skips out because SCF is already converged.
 Calling FoFJK, ICntrl=      2127 FMM=F ISym2X=1 I1Cent= 0 IOpClX= 1 NMat=1 NMatS=1 NMatT=0.
 ***** Axes restored to original set *****
 -------------------------------------------------------------------
 Center     Atomic                   Forces (Hartrees/Bohr)
 Number     Number              X              Y              Z
 -------------------------------------------------------------------
      1        6          -0.017984442    0.025324144    0.000000000
      2        6          -0.005295442    0.097535139   -0.000000000
      3        6           0.036039259    0.013713430    0.000000000
      4        6          -0.046286169    0.006194467   -0.000000000
      5        6           0.025390154   -0.100533200    0.000000000
      6        6          -0.018988282   -0.025424734    0.000000000
      7       17           0.026748559    0.014193641    0.000000000
      8       17           0.027436710   -0.012640190   -0.000000000
      9        1           0.003272533   -0.119977698   -0.000000000
     10       17          -0.026306749   -0.015256682    0.000000000
     11        1          -0.004026131    0.116871682   -0.000000000
 -------------------------------------------------------------------
 Cartesian Forces:  Max     0.119977698 RMS     0.041475433

 GradGradGradGradGradGradGradGradGradGradGradGradGradGradGradGradGradGrad
 Berny optimization.
 Using GEDIIS/GDIIS optimizer.
 FormGI is forming the generalized inverse of G from B-inverse, IUseBI=4.
 Internal  Forces:  Max     0.120022257 RMS     0.026601909
 Search for a local minimum.
 Step number   2 out of a maximum of   57
 All quantities printed in internal units (Hartrees-Bohrs-Radians)
 Mixed Optimization -- RFO/linear search
 Update second derivatives using D2CorX and points    1    2
 DE= -5.32D-02 DEPred=-4.64D-02 R= 1.15D+00
 TightC=F SS=  1.41D+00  RLast= 3.00D-01 DXNew= 5.0454D-01 9.0000D-01
 Trust test= 1.15D+00 RLast= 3.00D-01 DXMaxT set to 5.05D-01
 ITU=  1  0
 Use linear search instead of GDIIS.
     Eigenvalues ---   -0.26341   0.02011   0.02011   0.02011   0.02011
     Eigenvalues ---    0.02011   0.02011   0.02011   0.02011   0.04340
     Eigenvalues ---    0.06925   0.16000   0.16002   0.23006   0.23983
     Eigenvalues ---    0.24974   0.25000   0.25000   0.25218   0.29033
     Eigenvalues ---    0.29033   0.33949   0.40947   0.41870   0.44604
     Eigenvalues ---    0.44657   0.44657
 RFO step:  Lambda=-2.95626030D-01 EMin=-2.63405375D-01
 Skip linear search -- no minimum in search direction.
 Maximum step size (   0.505) exceeded in Quadratic search.
    -- Step size scaled by   0.456
 Iteration  1 RMS(Cart)=  0.04071919 RMS(Int)=  0.02921838
 Iteration  2 RMS(Cart)=  0.02915586 RMS(Int)=  0.00003675
 Iteration  3 RMS(Cart)=  0.00001248 RMS(Int)=  0.00003608
 Iteration  4 RMS(Cart)=  0.00000000 RMS(Int)=  0.00003608
 ClnCor:  largest displacement from symmetrization is 4.60D-09 for atom     9.
 Variable       Old X    -DE/DX   Delta X   Delta X   Delta X     New X
                                 (Linear)    (Quad)   (Total)
    R1        2.64290  -0.01056   0.00000   0.04433   0.04427   2.68717
    R2        2.65771   0.00463   0.00000   0.02430   0.02426   2.68197
    R3        3.29957  -0.03013   0.00000   0.02704   0.02704   3.32661
    R4        2.63996  -0.01165   0.00000   0.05601   0.05599   2.69595
    R5        3.12736  -0.12002   0.00000  -0.32860  -0.32860   2.79876
    R6        2.63596  -0.01620   0.00000   0.05558   0.05562   2.69158
    R7        3.29947  -0.03040   0.00000   0.02557   0.02557   3.32504
    R8        2.62069  -0.03155   0.00000   0.07917   0.07922   2.69991
    R9        2.63949  -0.01166   0.00000   0.06039   0.06041   2.69990
   R10        3.13968  -0.11694   0.00000  -0.35346  -0.35346   2.78623
   R11        3.29960  -0.03020   0.00000   0.02614   0.02614   3.32574
    A1        2.09105  -0.00250   0.00000   0.01245   0.01235   2.10340
    A2        2.09101  -0.00236   0.00000  -0.00156  -0.00151   2.08951
    A3        2.10112   0.00485   0.00000  -0.01089  -0.01084   2.09028
    A4        2.10235   0.00522   0.00000  -0.00273  -0.00281   2.09954
    A5        2.09100  -0.00242   0.00000  -0.00024  -0.00020   2.09080
    A6        2.08984  -0.00280   0.00000   0.00297   0.00301   2.09285
    A7        2.07816  -0.01322   0.00000  -0.00345  -0.00343   2.07472
    A8        2.10132   0.00551   0.00000   0.00089   0.00088   2.10220
    A9        2.10371   0.00771   0.00000   0.00256   0.00255   2.10626
   A10        2.11405   0.01853   0.00000   0.00264   0.00277   2.11682
   A11        2.09401  -0.00181   0.00000  -0.01625  -0.01618   2.07783
   A12        2.09478   0.00102   0.00000   0.00797   0.00793   2.10271
   A13        2.09439   0.00079   0.00000   0.00828   0.00825   2.10264
   A14        2.08676  -0.00622   0.00000   0.00734   0.00731   2.09407
   A15        2.10350   0.00666   0.00000  -0.01028  -0.01026   2.09323
   A16        2.09293  -0.00043   0.00000   0.00294   0.00295   2.09589
    D1        0.00000  -0.00000   0.00000  -0.00000   0.00000   0.00000
    D2        3.14159  -0.00000   0.00000  -0.00000   0.00000   3.14159
    D3        3.14159  -0.00000   0.00000  -0.00000   0.00000   3.14159
    D4        0.00000  -0.00000   0.00000  -0.00000   0.00000   0.00000
    D5       -0.00000   0.00000   0.00000   0.00000   0.00000   0.00000
    D6        3.14159   0.00000   0.00000   0.00000   0.00000   3.14159
    D7        3.14159  -0.00000   0.00000  -0.00000   0.00000   3.14159
    D8        0.00000  -0.00000   0.00000  -0.00000  -0.00000   0.00000
    D9        0.00000   0.00000   0.00000   0.00000   0.00000   0.00000
   D10        3.14159   0.00000   0.00000   0.00000   0.00000   3.14159
   D11        3.14159   0.00000   0.00000   0.00000   0.00000   3.14159
   D12        0.00000   0.00000   0.00000   0.00000  -0.00000   0.00000
   D13        0.00000  -0.00000   0.00000  -0.00000   0.00000   0.00000
   D14        3.14159   0.00000   0.00000   0.00000   0.00000   3.14159
   D15       -0.00000  -0.00000   0.00000  -0.00000   0.00000   0.00000
   D16        3.14159  -0.00000   0.00000  -0.00000   0.00000   3.14159
   D17        0.00000   0.00000   0.00000   0.00000   0.00000   0.00000
   D18        3.14159  -0.00000   0.00000   0.00000   0.00000   3.14159
   D19        3.14159   0.00000   0.00000   0.00000   0.00000   3.14159
   D20       -0.00000   0.00000   0.00000   0.00000   0.00000   0.00000
         Item               Value     Threshold  Converged?
 Maximum Force            0.120022     0.000450     NO 
 RMS     Force            0.026602     0.000300     NO 
 Maximum Displacement     0.285095     0.001800     NO 
 RMS     Displacement     0.064470     0.001200     NO 
 Predicted change in Energy=-9.954157D-02
 GradGradGradGradGradGradGradGradGradGradGradGradGradGradGradGradGradGrad

                          Input orientation:                          
 ---------------------------------------------------------------------
 Center     Atomic      Atomic             Coordinates (Angstroms)
 Number     Number       Type             X           Y           Z
 ---------------------------------------------------------------------
      1          6           0       -3.218989    0.201844   -0.000000
      2          6           0       -2.009943    0.950352    0.000000
      3          6           0       -0.749646    0.281812    0.000000
      4          6           0       -0.726563   -1.142322    0.000000
      5          6           0       -1.935368   -1.903945   -0.000000
      6          6           0       -3.188140   -1.217058   -0.000000
      7         17           0       -4.693838   -2.128180   -0.000000
      8         17           0       -4.765752    1.042327   -0.000000
      9          1           0       -2.060784    2.430520    0.000000
     10         17           0        0.748863    1.204004    0.000000
     11          1           0       -1.890681   -3.377674   -0.000000
 ---------------------------------------------------------------------
                    Distance matrix (angstroms):
                    1          2          3          4          5
     1  C    0.000000
     2  C    1.421990   0.000000
     3  C    2.470637   1.426637   0.000000
     4  C    2.831779   2.454863   1.424322   0.000000
     5  C    2.466177   2.855271   2.486658   1.428733   0.000000
     6  C    1.419237   2.466944   2.862317   2.462711   1.428723
     7  Cl   2.757570   4.084195   4.622197   4.087932   2.767568
     8  Cl   1.760366   2.757344   4.087479   4.592139   4.085534
     9  H    2.511660   1.481041   2.517147   3.813837   4.336279
    10  Cl   4.092453   2.770442   1.759537   2.771666   4.106634
    11  H    3.818030   4.329669   3.833249   2.520311   1.474407
                    6          7          8          9         10
     6  C    0.000000
     7  Cl   1.759907   0.000000
     8  Cl   2.755663   3.171322   0.000000
     9  H    3.817821   5.264477   3.040384   0.000000
    10  Cl   4.621854   6.381727   5.516985   3.065691   0.000000
    11  H    2.520251   3.069027   5.272802   5.810685   5.287624
                   11
    11  H    0.000000
 Stoichiometry    C6H2Cl3(2)
 Framework group  CS[SG(C6H2Cl3)]
 Deg. of freedom    19
 Full point group                 CS      NOp   2
 Largest Abelian subgroup         CS      NOp   2
 Largest concise Abelian subgroup C1      NOp   1
                         Standard orientation:                         
 ---------------------------------------------------------------------
 Center     Atomic      Atomic             Coordinates (Angstroms)
 Number     Number       Type             X           Y           Z
 ---------------------------------------------------------------------
      1          6           0       -0.000000    0.808522   -0.000000
      2          6           0        1.229589    0.094262    0.000000
      3          6           0        1.233137   -1.332371    0.000000
      4          6           0       -0.012417   -2.023230    0.000000
      5          6           0       -1.253463   -1.315356   -0.000000
      6          6           0       -1.237282    0.113275   -0.000000
      7         17           0       -2.750001    1.012692   -0.000000
      8         17           0        0.013275    2.568837   -0.000000
      9          1           0        2.511510    0.835991    0.000000
     10         17           0        2.752238   -2.220234    0.000000
     11          1           0       -2.532600   -2.048625   -0.000000
 ---------------------------------------------------------------------
 Rotational constants (GHZ):           1.8386621           0.5716300           0.4360610
 Standard basis: VSTO-6G (5D, 7F)
 There are    29 symmetry adapted cartesian basis functions of A'  symmetry.
 There are     9 symmetry adapted cartesian basis functions of A"  symmetry.
 There are    29 symmetry adapted basis functions of A'  symmetry.
 There are     9 symmetry adapted basis functions of A"  symmetry.
    38 basis functions,   228 primitive gaussians,    38 cartesian basis functions
    24 alpha electrons       23 beta electrons
       nuclear repulsion energy       239.3175489607 Hartrees.
 Integral buffers will be    131072 words long.
 Regular integral format.
 Two-electron integral symmetry is turned off.
 Do NDO integrals.
 One-electron integrals computed using PRISM.
 NBasis=    38 RedAO= T EigKep=  1.00D+00  NBF=    29     9
 NBsUse=    38 1.00D-06 EigRej= -1.00D+00 NBFU=    29     9
 Initial guess from the checkpoint file:  "geometry_chks/1245-124_-ClBzNeutralRadical.chk"
 B after Tr=    -0.000000    0.000000    0.000000
         Rot=    0.999992   -0.000000    0.000000    0.003928 Ang=   0.45 deg.
 Initial guess orbital symmetries:
 Alpha Orbitals:
       Occupied  (A') (A') (A') (A') (A') (A') (A') (A') (A') (A')
                 (A') (A") (A') (A") (A") (A') (A') (A') (A') (A")
                 (A') (A') (A") (A")
       Virtual   (A") (A") (A') (A') (A') (A') (A') (A") (A') (A')
                 (A') (A') (A') (A')
 Beta  Orbitals:
       Occupied  (A') (A') (A') (A') (A') (A') (A') (A') (A') (A')
                 (A') (A") (A') (A") (A") (A') (A') (A') (A') (A")
                 (A') (A") (A")
       Virtual   (A') (A") (A') (A") (A') (A') (A') (A') (A") (A')
                 (A') (A') (A') (A') (A')
 Initial guess <Sx>= 0.0000 <Sy>= 0.0000 <Sz>= 0.5000 <S**2>= 1.3738 S= 0.7743
 Keep J ints in memory in canonical form, NReq=863588.
 Overlap will be assumed to be unity.
 Requested convergence on RMS density matrix=1.00D-08 within  32 cycles.
 Requested convergence on MAX density matrix=1.00D-06.
 Requested convergence on             energy=1.00D-06.
 No special actions if energy rises.
 Fock symm off for IB=2 I1=    1 I=   30 J=    6 Cut=1.00D-07 Err=4.74D-03
 Fock matrix is not symmetric: symmetry in diagonalization turned off.
 SCF Done:  E(UAM1) =  0.218940892959     A.U. after   18 cycles
            NFock= 17  Conv=0.68D-08     -V/T= 1.0020
 <Sx>= 0.0000 <Sy>= 0.0000 <Sz>= 0.5000 <S**2>= 1.4604 S= 0.8078
 <L.S>=  0.00000000000    
 Annihilation of the first spin contaminant:
 S**2 before annihilation     1.4604,   after     1.2294
 QCSCF skips out because SCF is already converged.
 Calling FoFJK, ICntrl=      2127 FMM=F ISym2X=1 I1Cent= 0 IOpClX= 1 NMat=1 NMatS=1 NMatT=0.
 ***** Axes restored to original set *****
 -------------------------------------------------------------------
 Center     Atomic                   Forces (Hartrees/Bohr)
 Number     Number              X              Y              Z
 -------------------------------------------------------------------
      1        6          -0.000320723    0.018059715    0.000000000
      2        6           0.000385796    0.071352746    0.000000000
      3        6           0.010372052   -0.005858027   -0.000000000
      4        6          -0.079271135    0.022615599    0.000000000
      5        6           0.026934100   -0.066932228    0.000000000
      6        6           0.005622597   -0.020074192   -0.000000000
      7       17           0.035514434    0.017444745   -0.000000000
      8       17           0.035430923   -0.015750460   -0.000000000
      9        1           0.004322760   -0.117603129   -0.000000000
     10       17          -0.035459477   -0.021149340   -0.000000000
     11        1          -0.003531327    0.117894572   -0.000000000
 -------------------------------------------------------------------
 Cartesian Forces:  Max     0.117894572 RMS     0.039130443

 GradGradGradGradGradGradGradGradGradGradGradGradGradGradGradGradGradGrad
 Berny optimization.
 Using GEDIIS/GDIIS optimizer.
 FormGI is forming the generalized inverse of G from B-inverse, IUseBI=4.
 Internal  Forces:  Max     0.117947440 RMS     0.031758994
 Search for a local minimum.
 Step number   3 out of a maximum of   57
 All quantities printed in internal units (Hartrees-Bohrs-Radians)
 Mixed Optimization -- RFO/linear search
 Update second derivatives using D2CorX and points    2    3
 DE= -6.82D-02 DEPred=-9.95D-02 R= 6.85D-01
 TightC=F SS=  1.41D+00  RLast= 5.05D-01 DXNew= 8.4853D-01 1.5136D+00
 Trust test= 6.85D-01 RLast= 5.05D-01 DXMaxT set to 8.49D-01
 ITU=  1  1  0
 Use linear search instead of GDIIS.
     Eigenvalues ---    0.00637   0.02011   0.02011   0.02011   0.02011
     Eigenvalues ---    0.02011   0.02011   0.02011   0.02011   0.06414
     Eigenvalues ---    0.15996   0.16000   0.18620   0.23433   0.24416
     Eigenvalues ---    0.25000   0.25000   0.25041   0.26777   0.29033
     Eigenvalues ---    0.29046   0.40172   0.41156   0.44076   0.44651
     Eigenvalues ---    0.44657   0.78891
 RFO step:  Lambda=-1.61885493D-01 EMin= 6.36572080D-03
 Quartic linear search produced a step of  1.62386.
 Iteration  1 RMS(Cart)=  0.06432752 RMS(Int)=  0.14461456
 Iteration  2 RMS(Cart)=  0.04161581 RMS(Int)=  0.10335895
 Iteration  3 RMS(Cart)=  0.04125583 RMS(Int)=  0.06210998
 Iteration  4 RMS(Cart)=  0.04125558 RMS(Int)=  0.02089211
 Iteration  5 RMS(Cart)=  0.02087843 RMS(Int)=  0.00030359
 Iteration  6 RMS(Cart)=  0.00000169 RMS(Int)=  0.00030359
 Iteration  7 RMS(Cart)=  0.00000000 RMS(Int)=  0.00030359
 ClnCor:  largest displacement from symmetrization is 1.29D-08 for atom     8.
 Variable       Old X    -DE/DX   Delta X   Delta X   Delta X     New X
                                 (Linear)    (Quad)   (Total)
    R1        2.68717  -0.03990   0.07189  -0.09372  -0.02220   2.66497
    R2        2.68197  -0.01865   0.03940  -0.01464   0.02431   2.70628
    R3        3.32661  -0.03865   0.04391  -0.17863  -0.13472   3.19189
    R4        2.69595  -0.04603   0.09093  -0.11381  -0.02283   2.67313
    R5        2.79876  -0.11768  -0.53361  -0.37482  -0.90843   1.89033
    R6        2.69158  -0.05253   0.09032  -0.13352  -0.04274   2.64884
    R7        3.32504  -0.04128   0.04152  -0.17975  -0.13823   3.18681
    R8        2.69991  -0.07140   0.12864  -0.21531  -0.08627   2.61364
    R9        2.69990  -0.04729   0.09809  -0.11846  -0.02044   2.67946
   R10        2.78623  -0.11795  -0.57397  -0.31866  -0.89262   1.89360
   R11        3.32574  -0.03942   0.04244  -0.17841  -0.13597   3.18977
    A1        2.10340  -0.00382   0.02005  -0.02114  -0.00199   2.10141
    A2        2.08951  -0.00321  -0.00245  -0.01428  -0.01627   2.07323
    A3        2.09028   0.00703  -0.01761   0.03542   0.01826   2.10854
    A4        2.09954  -0.00028  -0.00456   0.03117   0.02624   2.12577
    A5        2.09080   0.00054  -0.00033  -0.01216  -0.01231   2.07849
    A6        2.09285  -0.00025   0.00489  -0.01900  -0.01393   2.07892
    A7        2.07472  -0.00827  -0.00558  -0.06367  -0.06876   2.00596
    A8        2.10220   0.00318   0.00143   0.02725   0.02844   2.13065
    A9        2.10626   0.00509   0.00414   0.03641   0.04032   2.14658
   A10        2.11682   0.02094   0.00449   0.08418   0.08979   2.20661
   A11        2.07783  -0.00386  -0.02628   0.00500  -0.02102   2.05681
   A12        2.10271   0.00187   0.01288  -0.00177   0.01099   2.11370
   A13        2.10264   0.00199   0.01340  -0.00324   0.01003   2.11267
   A14        2.09407  -0.00471   0.01187  -0.03554  -0.02426   2.06980
   A15        2.09323   0.00811  -0.01667   0.04501   0.02863   2.12187
   A16        2.09589  -0.00340   0.00480  -0.00946  -0.00437   2.09151
    D1        0.00000  -0.00000   0.00000   0.00000   0.00000   0.00000
    D2        3.14159  -0.00000   0.00000  -0.00000   0.00000   3.14159
    D3        3.14159   0.00000   0.00000   0.00000   0.00000   3.14159
    D4       -0.00000  -0.00000   0.00000  -0.00000   0.00000   0.00000
    D5       -0.00000   0.00000   0.00000   0.00000   0.00000   0.00000
    D6        3.14159   0.00000   0.00000   0.00000   0.00000   3.14159
    D7        3.14159  -0.00000   0.00000   0.00000   0.00000   3.14159
    D8        0.00000   0.00000   0.00000   0.00000   0.00000   0.00000
    D9        0.00000   0.00000   0.00000  -0.00000   0.00000   0.00000
   D10        3.14159   0.00000   0.00000  -0.00000   0.00000   3.14159
   D11        3.14159   0.00000   0.00000   0.00000   0.00000   3.14159
   D12       -0.00000   0.00000   0.00000   0.00000   0.00000   0.00000
   D13       -0.00000   0.00000   0.00000   0.00000   0.00000   0.00000
   D14        3.14159   0.00000   0.00000   0.00000   0.00000   3.14159
   D15        0.00000  -0.00000   0.00000   0.00000   0.00000   0.00000
   D16        3.14159  -0.00000   0.00000  -0.00000   0.00000   3.14159
   D17        0.00000  -0.00000   0.00000  -0.00000  -0.00000   0.00000
   D18        3.14159  -0.00000   0.00000  -0.00000   0.00000   3.14159
   D19        3.14159   0.00000   0.00000   0.00000   0.00000   3.14159
   D20       -0.00000   0.00000   0.00000   0.00000   0.00000   0.00000
         Item               Value     Threshold  Converged?
 Maximum Force            0.117947     0.000450     NO 
 RMS     Force            0.031759     0.000300     NO 
 Maximum Displacement     0.935326     0.001800     NO 
 RMS     Displacement     0.196767     0.001200     NO 
 Predicted change in Energy=-2.295163D-01
 GradGradGradGradGradGradGradGradGradGradGradGradGradGradGradGradGradGrad

                          Input orientation:                          
 ---------------------------------------------------------------------
 Center     Atomic      Atomic             Coordinates (Angstroms)
 Number     Number       Type             X           Y           Z
 ---------------------------------------------------------------------
      1          6           0       -3.219816    0.205716    0.000000
      2          6           0       -2.013335    0.935914    0.000000
      3          6           0       -0.753163    0.293310    0.000000
      4          6           0       -0.804168   -1.107466   -0.000000
      5          6           0       -1.946127   -1.887748   -0.000000
      6          6           0       -3.200275   -1.226252   -0.000000
      7         17           0       -4.626159   -2.129602   -0.000000
      8         17           0       -4.682170    1.050990    0.000000
      9          1           0       -2.049902    1.935567    0.000000
     10         17           0        0.693800    1.159449    0.000000
     11          1           0       -1.889526   -2.888199   -0.000000
 ---------------------------------------------------------------------
                    Distance matrix (angstroms):
                    1          2          3          4          5
     1  C    0.000000
     2  C    1.410243   0.000000
     3  C    2.468208   1.414558   0.000000
     4  C    2.749509   2.374339   1.401704   0.000000
     5  C    2.450484   2.824461   2.485996   1.383079   0.000000
     6  C    1.432101   2.466533   2.880525   2.399049   1.417908
     7  Cl   2.726079   4.027931   4.568435   3.956308   2.690922
     8  Cl   1.689074   2.671315   4.001398   4.438224   4.015236
     9  H    2.088321   1.000322   2.092497   3.288146   3.824723
    10  Cl   4.028151   2.716349   1.686387   2.717134   4.031702
    11  H    3.367786   3.826116   3.378360   2.085428   1.002051
                    6          7          8          9         10
     6  C    0.000000
     7  Cl   1.687953   0.000000
     8  Cl   2.716955   3.181086   0.000000
     9  H    3.364588   4.812764   2.776925   0.000000
    10  Cl   4.566770   6.254584   5.377065   2.851362   0.000000
    11  H    2.116632   2.839829   4.828672   4.826431   4.801774
                   11
    11  H    0.000000
 Stoichiometry    C6H2Cl3(2)
 Framework group  CS[SG(C6H2Cl3)]
 Deg. of freedom    19
 Full point group                 CS      NOp   2
 Largest Abelian subgroup         CS      NOp   2
 Largest concise Abelian subgroup C1      NOp   1
                         Standard orientation:                         
 ---------------------------------------------------------------------
 Center     Atomic      Atomic             Coordinates (Angstroms)
 Number     Number       Type             X           Y           Z
 ---------------------------------------------------------------------
      1          6           0        0.000000    0.822995    0.000000
      2          6           0        1.213577    0.104654   -0.000000
      3          6           0        1.242602   -1.309607   -0.000000
      4          6           0       -0.016070   -1.926467    0.000000
      5          6           0       -1.243305   -1.288655    0.000000
      6          6           0       -1.252833    0.129221    0.000000
      7         17           0       -2.722678    0.959125    0.000000
      8         17           0        0.054075    2.511203   -0.000000
      9          1           0        2.077346    0.609181   -0.000000
     10         17           0        2.689611   -2.175670   -0.000000
     11          1           0       -2.098312   -1.811216    0.000000
 ---------------------------------------------------------------------
 Rotational constants (GHZ):           1.9010362           0.5986580           0.4552839
 Standard basis: VSTO-6G (5D, 7F)
 There are    29 symmetry adapted cartesian basis functions of A'  symmetry.
 There are     9 symmetry adapted cartesian basis functions of A"  symmetry.
 There are    29 symmetry adapted basis functions of A'  symmetry.
 There are     9 symmetry adapted basis functions of A"  symmetry.
    38 basis functions,   228 primitive gaussians,    38 cartesian basis functions
    24 alpha electrons       23 beta electrons
       nuclear repulsion energy       244.0253953747 Hartrees.
 Integral buffers will be    131072 words long.
 Regular integral format.
 Two-electron integral symmetry is turned off.
 Do NDO integrals.
 One-electron integrals computed using PRISM.
 NBasis=    38 RedAO= T EigKep=  1.00D+00  NBF=    29     9
 NBsUse=    38 1.00D-06 EigRej= -1.00D+00 NBFU=    29     9
 Initial guess from the checkpoint file:  "geometry_chks/1245-124_-ClBzNeutralRadical.chk"
 B after Tr=    -0.000000    0.000000   -0.000000
         Rot=    1.000000    0.000000   -0.000000   -0.000082 Ang=  -0.01 deg.
 Initial guess orbital symmetries:
 Alpha Orbitals:
       Occupied  (A') (A') (A') (A') (A') (A') (A') (A') (A') (A')
                 (A') (A") (A') (A') (A") (A') (A") (A') (A') (A')
                 (A") (A') (A") (A")
       Virtual   (A") (A") (A') (A') (A') (A') (A') (A") (A') (A')
                 (A') (A') (A') (A')
 Beta  Orbitals:
       Occupied  (A') (A') (A') (A') (A') (A') (A') (A') (A') (A')
                 (A') (A") (A') (A') (A") (A") (A') (A') (A') (A')
                 (A") (A") (A")
       Virtual   (A') (A") (A') (A") (A') (A') (A') (A') (A") (A')
                 (A') (A') (A') (A') (A')
 Initial guess <Sx>= 0.0000 <Sy>= 0.0000 <Sz>= 0.5000 <S**2>= 1.4604 S= 0.8078
 Keep J ints in memory in canonical form, NReq=863588.
 Overlap will be assumed to be unity.
 Requested convergence on RMS density matrix=1.00D-08 within  32 cycles.
 Requested convergence on MAX density matrix=1.00D-06.
 Requested convergence on             energy=1.00D-06.
 No special actions if energy rises.
 Fock symm off for IB=2 I1=    1 I=   30 J=   23 Cut=1.00D-07 Err=1.79D-03
 Fock matrix is not symmetric: symmetry in diagonalization turned off.
 SCF Done:  E(UAM1) =  0.104872477764     A.U. after   16 cycles
            NFock= 15  Conv=0.92D-08     -V/T= 1.0009
 <Sx>= 0.0000 <Sy>= 0.0000 <Sz>= 0.5000 <S**2>= 1.3745 S= 0.7745
 <L.S>=  0.00000000000    
 Annihilation of the first spin contaminant:
 S**2 before annihilation     1.3745,   after     1.1018
 QCSCF skips out because SCF is already converged.
 Calling FoFJK, ICntrl=      2127 FMM=F ISym2X=1 I1Cent= 0 IOpClX= 1 NMat=1 NMatS=1 NMatT=0.
 ***** Axes restored to original set *****
 -------------------------------------------------------------------
 Center     Atomic                   Forces (Hartrees/Bohr)
 Number     Number              X              Y              Z
 -------------------------------------------------------------------
      1        6           0.006612252   -0.021366525    0.000000000
      2        6           0.003666373   -0.075433161    0.000000000
      3        6          -0.001331725   -0.027063200    0.000000000
      4        6          -0.019952069    0.025485753   -0.000000000
      5        6           0.004089138    0.077905915    0.000000000
      6        6           0.006691372    0.019048720    0.000000000
      7       17           0.002866945    0.001961352   -0.000000000
      8       17           0.000548142   -0.001002922   -0.000000000
      9        1          -0.002817464    0.085899484   -0.000000000
     10       17          -0.005021774   -0.003332599   -0.000000000
     11        1           0.004648810   -0.082102816   -0.000000000
 -------------------------------------------------------------------
 Cartesian Forces:  Max     0.085899484 RMS     0.029479410

 GradGradGradGradGradGradGradGradGradGradGradGradGradGradGradGradGradGrad
 Berny optimization.
 Using GEDIIS/GDIIS optimizer.
 FormGI is forming the generalized inverse of G from B-inverse, IUseBI=4.
 Internal  Forces:  Max     0.085945065 RMS     0.018450299
 Search for a local minimum.
 Step number   4 out of a maximum of   57
 All quantities printed in internal units (Hartrees-Bohrs-Radians)
 Mixed Optimization -- RFO/linear search
 Update second derivatives using D2CorX and points    3    4
 DE= -1.14D-01 DEPred=-2.30D-01 R= 4.97D-01
 Trust test= 4.97D-01 RLast= 1.31D+00 DXMaxT set to 8.49D-01
 ITU=  0  1  1  0
 Use linear search instead of GDIIS.
     Eigenvalues ---    0.02011   0.02011   0.02011   0.02011   0.02011
     Eigenvalues ---    0.02011   0.02011   0.02011   0.06380   0.11821
     Eigenvalues ---    0.16000   0.16002   0.21574   0.24234   0.24343
     Eigenvalues ---    0.25000   0.25003   0.25070   0.26176   0.29034
     Eigenvalues ---    0.29051   0.38669   0.41212   0.43955   0.44655
     Eigenvalues ---    0.44774   0.55755
 RFO step:  Lambda=-1.92739018D-02 EMin= 2.01067219D-02
 Quartic linear search produced a step of -0.19749.
 Iteration  1 RMS(Cart)=  0.05742054 RMS(Int)=  0.01180343
 Iteration  2 RMS(Cart)=  0.01146875 RMS(Int)=  0.00023461
 Iteration  3 RMS(Cart)=  0.00002618 RMS(Int)=  0.00023383
 Iteration  4 RMS(Cart)=  0.00000000 RMS(Int)=  0.00023383
 ClnCor:  largest displacement from symmetrization is 1.00D-08 for atom     7.
 Variable       Old X    -DE/DX   Delta X   Delta X   Delta X     New X
                                 (Linear)    (Quad)   (Total)
    R1        2.66497  -0.00310   0.00438  -0.04213  -0.03806   2.62691
    R2        2.70628  -0.01686  -0.00480  -0.01289  -0.01803   2.68825
    R3        3.19189  -0.00098   0.02661  -0.11983  -0.09323   3.09866
    R4        2.67313  -0.00470   0.00451  -0.05459  -0.05008   2.62305
    R5        1.89033   0.08595   0.17941   0.06721   0.24662   2.13695
    R6        2.64884  -0.02537   0.00844  -0.10109  -0.09230   2.55654
    R7        3.18681  -0.00602   0.02730  -0.12841  -0.10111   3.08570
    R8        2.61364  -0.01525   0.01704  -0.14352  -0.12614   2.48750
    R9        2.67946  -0.00670   0.00404  -0.06102  -0.05699   2.62247
   R10        1.89360   0.08223   0.17629   0.08999   0.26628   2.15988
   R11        3.18977  -0.00347   0.02685  -0.12453  -0.09768   3.09209
    A1        2.10141   0.00361   0.00039  -0.00294  -0.00325   2.09816
    A2        2.07323  -0.00086   0.00321  -0.01092  -0.00736   2.06588
    A3        2.10854  -0.00275  -0.00361   0.01386   0.01061   2.11915
    A4        2.12577  -0.01159  -0.00518   0.00133  -0.00419   2.12158
    A5        2.07849   0.00610   0.00243   0.00241   0.00501   2.08350
    A6        2.07892   0.00549   0.00275  -0.00374  -0.00082   2.07810
    A7        2.00596   0.00310   0.01358  -0.04916  -0.03525   1.97071
    A8        2.13065  -0.00110  -0.00562   0.02215   0.01637   2.14702
    A9        2.14658  -0.00200  -0.00796   0.02700   0.01888   2.16546
   A10        2.20661   0.01139  -0.01773   0.09417   0.07728   2.28389
   A11        2.05681  -0.01066   0.00415  -0.02471  -0.02028   2.03653
   A12        2.11370   0.00533  -0.00217   0.01356   0.01125   2.12495
   A13        2.11267   0.00533  -0.00198   0.01115   0.00903   2.12171
   A14        2.06980   0.00416   0.00479  -0.01870  -0.01430   2.05551
   A15        2.12187  -0.00227  -0.00566   0.02417   0.01871   2.14057
   A16        2.09151  -0.00188   0.00086  -0.00547  -0.00441   2.08710
    D1       -0.00000  -0.00000   0.00000  -0.00000   0.00000   0.00000
    D2        3.14159  -0.00000   0.00000  -0.00000   0.00000   3.14159
    D3        3.14159  -0.00000   0.00000  -0.00000   0.00000   3.14159
    D4       -0.00000  -0.00000   0.00000  -0.00000   0.00000   0.00000
    D5        0.00000   0.00000   0.00000  -0.00000   0.00000   0.00000
    D6        3.14159   0.00000   0.00000   0.00000   0.00000   3.14159
    D7        3.14159  -0.00000   0.00000  -0.00000   0.00000   3.14159
    D8       -0.00000   0.00000   0.00000  -0.00000   0.00000   0.00000
    D9        0.00000   0.00000   0.00000   0.00000   0.00000   0.00000
   D10        3.14159  -0.00000   0.00000   0.00000   0.00000   3.14159
   D11        3.14159   0.00000   0.00000   0.00000   0.00000   3.14159
   D12        0.00000   0.00000   0.00000   0.00000   0.00000   0.00000
   D13       -0.00000  -0.00000   0.00000  -0.00000   0.00000   0.00000
   D14        3.14159   0.00000   0.00000   0.00000   0.00000   3.14159
   D15        0.00000  -0.00000   0.00000  -0.00000  -0.00000   0.00000
   D16        3.14159  -0.00000   0.00000  -0.00000   0.00000   3.14159
   D17       -0.00000   0.00000   0.00000   0.00000   0.00000   0.00000
   D18        3.14159  -0.00000   0.00000   0.00000   0.00000   3.14159
   D19        3.14159   0.00000   0.00000   0.00000   0.00000   3.14159
   D20        0.00000  -0.00000   0.00000   0.00000   0.00000   0.00000
         Item               Value     Threshold  Converged?
 Maximum Force            0.085945     0.000450     NO 
 RMS     Force            0.018450     0.000300     NO 
 Maximum Displacement     0.217893     0.001800     NO 
 RMS     Displacement     0.064401     0.001200     NO 
 Predicted change in Energy=-3.447673D-02
 GradGradGradGradGradGradGradGradGradGradGradGradGradGradGradGradGradGrad

                          Input orientation:                          
 ---------------------------------------------------------------------
 Center     Atomic      Atomic             Coordinates (Angstroms)
 Number     Number       Type             X           Y           Z
 ---------------------------------------------------------------------
      1          6           0       -3.208733    0.203711    0.000000
      2          6           0       -2.017699    0.920521    0.000000
      3          6           0       -0.785371    0.281712    0.000000
      4          6           0       -0.891230   -1.067002   -0.000000
      5          6           0       -1.951152   -1.847567   -0.000000
      6          6           0       -3.188235   -1.218701   -0.000000
      7         17           0       -4.553144   -2.121136   -0.000000
      8         17           0       -4.620230    1.038231    0.000000
      9          1           0       -2.050565    2.050871    0.000000
     10         17           0        0.634640    1.087855    0.000000
     11          1           0       -1.859121   -2.986816   -0.000000
 ---------------------------------------------------------------------
                    Distance matrix (angstroms):
                    1          2          3          4          5
     1  C    0.000000
     2  C    1.390100   0.000000
     3  C    2.424616   1.388059   0.000000
     4  C    2.643016   2.284553   1.352863   0.000000
     5  C    2.406086   2.768888   2.427525   1.316327   0.000000
     6  C    1.422560   2.438530   2.832843   2.302010   1.387749
     7  Cl   2.685584   3.959819   4.468758   3.810619   2.616334
     8  Cl   1.639740   2.605192   3.908767   4.282225   3.930879
     9  H    2.180218   1.130827   2.175002   3.326438   3.899705
    10  Cl   3.943757   2.657612   1.632880   2.640395   3.911908
    11  H    3.464233   3.910554   3.440380   2.150000   1.142960
                    6          7          8          9         10
     6  C    0.000000
     7  Cl   1.636266   0.000000
     8  Cl   2.672892   3.160080   0.000000
     9  H    3.461849   4.865033   2.761995   0.000000
    10  Cl   4.464816   6.100060   5.255104   2.852670   0.000000
    11  H    2.211961   2.829693   4.881058   5.041323   4.777215
                   11
    11  H    0.000000
 Stoichiometry    C6H2Cl3(2)
 Framework group  CS[SG(C6H2Cl3)]
 Deg. of freedom    19
 Full point group                 CS      NOp   2
 Largest Abelian subgroup         CS      NOp   2
 Largest concise Abelian subgroup C1      NOp   1
                         Standard orientation:                         
 ---------------------------------------------------------------------
 Center     Atomic      Atomic             Coordinates (Angstroms)
 Number     Number       Type             X           Y           Z
 ---------------------------------------------------------------------
      1          6           0        0.000000    0.823986    0.000000
      2          6           0        1.202113    0.125915   -0.000000
      3          6           0        1.236360   -1.261722   -0.000000
      4          6           0        0.003621   -1.819027   -0.000000
      5          6           0       -1.191160   -1.266562    0.000000
      6          6           0       -1.236412    0.120449    0.000000
      7         17           0       -2.684970    0.881399    0.000000
      8         17           0        0.050874    2.462937    0.000000
      9          1           0        2.176662    0.699520   -0.000000
     10         17           0        2.627108   -2.117362   -0.000000
     11          1           0       -2.144990   -1.896295    0.000000
 ---------------------------------------------------------------------
 Rotational constants (GHZ):           1.9519702           0.6303002           0.4764518
 Standard basis: VSTO-6G (5D, 7F)
 There are    29 symmetry adapted cartesian basis functions of A'  symmetry.
 There are     9 symmetry adapted cartesian basis functions of A"  symmetry.
 There are    29 symmetry adapted basis functions of A'  symmetry.
 There are     9 symmetry adapted basis functions of A"  symmetry.
    38 basis functions,   228 primitive gaussians,    38 cartesian basis functions
    24 alpha electrons       23 beta electrons
[...]
                                 (Linear)    (Quad)   (Total)
    R1        2.65918   0.00001  -0.00000   0.00002   0.00001   2.65920
    R2        2.67417  -0.00021  -0.00000  -0.00046  -0.00046   2.67371
    R3        3.20031  -0.00009  -0.00000  -0.00027  -0.00027   3.20004
    R4        2.66768  -0.00013   0.00000  -0.00029  -0.00028   2.66740
    R5        2.07942   0.00009   0.00001   0.00012   0.00013   2.07955
    R6        2.60164   0.00004   0.00000   0.00011   0.00011   2.60175
    R7        3.17649   0.00007   0.00000   0.00028   0.00028   3.17676
    R8        2.58348   0.00009   0.00000   0.00023   0.00023   2.58371
    R9        2.67329  -0.00001   0.00000   0.00004   0.00004   2.67333
   R10        2.07520  -0.00007   0.00000  -0.00023  -0.00023   2.07497
   R11        3.18895  -0.00004  -0.00000  -0.00011  -0.00011   3.18883
    A1        2.12202   0.00003   0.00000   0.00009   0.00009   2.12211
    A2        2.06116  -0.00002   0.00000  -0.00007  -0.00007   2.06108
    A3        2.10001  -0.00002  -0.00000  -0.00001  -0.00001   2.09999
    A4        2.08581  -0.00001   0.00000  -0.00010  -0.00010   2.08571
    A5        2.09970  -0.00002  -0.00000  -0.00011  -0.00011   2.09959
    A6        2.09767   0.00003  -0.00000   0.00022   0.00022   2.09789
    A7        2.01166   0.00004  -0.00000   0.00022   0.00022   2.01188
    A8        2.12687   0.00001   0.00000   0.00003   0.00003   2.12690
    A9        2.14466  -0.00006   0.00000  -0.00025  -0.00025   2.14441
   A10        2.25159  -0.00008   0.00000  -0.00026  -0.00025   2.25134
   A11        2.01060  -0.00002  -0.00000  -0.00007  -0.00007   2.01053
   A12        2.14152   0.00005  -0.00000   0.00033   0.00033   2.14185
   A13        2.13106  -0.00004   0.00000  -0.00025  -0.00025   2.13080
   A14        2.08468   0.00004   0.00000   0.00013   0.00013   2.08481
   A15        2.11916  -0.00002  -0.00000  -0.00003  -0.00003   2.11912
   A16        2.07935  -0.00002   0.00000  -0.00010  -0.00010   2.07925
    D1        0.00000  -0.00000   0.00000  -0.00000  -0.00000   0.00000
    D2        3.14159  -0.00000   0.00000  -0.00000   0.00000   3.14159
    D3        3.14159   0.00000   0.00000   0.00000   0.00000   3.14159
    D4        0.00000  -0.00000   0.00000  -0.00000  -0.00000   0.00000
    D5       -0.00000  -0.00000   0.00000  -0.00000   0.00000   0.00000
    D6        3.14159   0.00000   0.00000   0.00000   0.00000   3.14159
    D7        3.14159  -0.00000   0.00000  -0.00000   0.00000   3.14159
    D8        0.00000  -0.00000   0.00000  -0.00000   0.00000   0.00000
    D9       -0.00000   0.00000   0.00000   0.00000   0.00000   0.00000
   D10        3.14159  -0.00000   0.00000  -0.00000   0.00000   3.14159
   D11        3.14159   0.00000   0.00000   0.00000   0.00000   3.14159
   D12       -0.00000   0.00000   0.00000   0.00000   0.00000   0.00000
   D13        0.00000  -0.00000   0.00000  -0.00000  -0.00000   0.00000
   D14        3.14159   0.00000   0.00000   0.00000   0.00000   3.14159
   D15       -0.00000  -0.00000   0.00000  -0.00000   0.00000   0.00000
   D16        3.14159  -0.00000   0.00000  -0.00000   0.00000   3.14159
   D17        0.00000   0.00000   0.00000   0.00000  -0.00000   0.00000
   D18        3.14159  -0.00000   0.00000  -0.00000   0.00000   3.14159
   D19        3.14159   0.00000   0.00000   0.00000   0.00000   3.14159
   D20       -0.00000   0.00000   0.00000   0.00000   0.00000   0.00000
         Item               Value     Threshold  Converged?
 Maximum Force            0.000210     0.000450     YES
 RMS     Force            0.000051     0.000300     YES
 Maximum Displacement     0.000741     0.001800     YES
 RMS     Displacement     0.000182     0.001200     YES
 Predicted change in Energy=-1.657701D-07
 Optimization completed.
    -- Stationary point found.
                           ----------------------------
                           !   Optimized Parameters   !
                           ! (Angstroms and Degrees)  !
 --------------------------                            --------------------------
 ! Name  Definition              Value          Derivative Info.                !
 --------------------------------------------------------------------------------
 ! R1    R(1,2)                  1.4072         -DE/DX =    0.0                 !
 ! R2    R(1,6)                  1.4151         -DE/DX =   -0.0002              !
 ! R3    R(1,8)                  1.6935         -DE/DX =   -0.0001              !
 ! R4    R(2,3)                  1.4117         -DE/DX =   -0.0001              !
 ! R5    R(2,9)                  1.1004         -DE/DX =    0.0001              !
 ! R6    R(3,4)                  1.3767         -DE/DX =    0.0                 !
 ! R7    R(3,10)                 1.6809         -DE/DX =    0.0001              !
 ! R8    R(4,5)                  1.3671         -DE/DX =    0.0001              !
 ! R9    R(5,6)                  1.4146         -DE/DX =    0.0                 !
 ! R10   R(5,11)                 1.0982         -DE/DX =   -0.0001              !
 ! R11   R(6,7)                  1.6875         -DE/DX =    0.0                 !
 ! A1    A(2,1,6)              121.5828         -DE/DX =    0.0                 !
 ! A2    A(2,1,8)              118.0957         -DE/DX =    0.0                 !
 ! A3    A(6,1,8)              120.3215         -DE/DX =    0.0                 !
 ! A4    A(1,2,3)              119.5083         -DE/DX =    0.0                 !
 ! A5    A(1,2,9)              120.3039         -DE/DX =    0.0                 !
 ! A6    A(3,2,9)              120.1878         -DE/DX =    0.0                 !
 ! A7    A(2,3,4)              115.2597         -DE/DX =    0.0                 !
 ! A8    A(2,3,10)             121.8605         -DE/DX =    0.0                 !
 ! A9    A(4,3,10)             122.8798         -DE/DX =   -0.0001              !
 ! A10   A(3,4,5)              129.0066         -DE/DX =   -0.0001              !
 ! A11   A(4,5,6)              115.199          -DE/DX =    0.0                 !
 ! A12   A(4,5,11)             122.7003         -DE/DX =    0.0001              !
 ! A13   A(6,5,11)             122.1007         -DE/DX =    0.0                 !
 ! A14   A(1,6,5)              119.4435         -DE/DX =    0.0                 !
 ! A15   A(1,6,7)              121.4187         -DE/DX =    0.0                 !
 ! A16   A(5,6,7)              119.1378         -DE/DX =    0.0                 !
 ! D1    D(6,1,2,3)              0.0            -DE/DX =    0.0                 !
 ! D2    D(6,1,2,9)            180.0            -DE/DX =    0.0                 !
 ! D3    D(8,1,2,3)            180.0            -DE/DX =    0.0                 !
 ! D4    D(8,1,2,9)              0.0            -DE/DX =    0.0                 !
 ! D5    D(2,1,6,5)              0.0            -DE/DX =    0.0                 !
 ! D6    D(2,1,6,7)            180.0            -DE/DX =    0.0                 !
 ! D7    D(8,1,6,5)            180.0            -DE/DX =    0.0                 !
 ! D8    D(8,1,6,7)              0.0            -DE/DX =    0.0                 !
 ! D9    D(1,2,3,4)              0.0            -DE/DX =    0.0                 !
 ! D10   D(1,2,3,10)           180.0            -DE/DX =    0.0                 !
 ! D11   D(9,2,3,4)            180.0            -DE/DX =    0.0                 !
 ! D12   D(9,2,3,10)             0.0            -DE/DX =    0.0                 !
 ! D13   D(2,3,4,5)              0.0            -DE/DX =    0.0                 !
 ! D14   D(10,3,4,5)           180.0            -DE/DX =    0.0                 !
 ! D15   D(3,4,5,6)              0.0            -DE/DX =    0.0                 !
 ! D16   D(3,4,5,11)           180.0            -DE/DX =    0.0                 !
 ! D17   D(4,5,6,1)              0.0            -DE/DX =    0.0                 !
 ! D18   D(4,5,6,7)            180.0            -DE/DX =    0.0                 !
 ! D19   D(11,5,6,1)           180.0            -DE/DX =    0.0                 !
 ! D20   D(11,5,6,7)             0.0            -DE/DX =    0.0                 !
 --------------------------------------------------------------------------------
 GradGradGradGradGradGradGradGradGradGradGradGradGradGradGradGradGradGrad

                          Input orientation:                          
 ---------------------------------------------------------------------
 Center     Atomic      Atomic             Coordinates (Angstroms)
 Number     Number       Type             X           Y           Z
 ---------------------------------------------------------------------
      1          6           0       -3.203808    0.198234   -0.000000
      2          6           0       -2.015448    0.951863    0.000000
      3          6           0       -0.770283    0.286732    0.000000
      4          6           0       -0.838740   -1.088291    0.000000
      5          6           0       -1.942565   -1.894882   -0.000000
      6          6           0       -3.184074   -1.216738   -0.000000
      7         17           0       -4.611762   -2.116417   -0.000000
      8         17           0       -4.677456    1.032748    0.000000
      9          1           0       -2.055347    2.051520    0.000000
     10         17           0        0.685006    1.127948    0.000000
     11          1           0       -1.876364   -2.991035   -0.000000
 ---------------------------------------------------------------------
                    Distance matrix (angstroms):
                    1          2          3          4          5
     1  C    0.000000
     2  C    1.407180   0.000000
     3  C    2.435133   1.411678   0.000000
     4  C    2.692340   2.355180   1.376727   0.000000
     5  C    2.443741   2.847678   2.476628   1.367121   0.000000
     6  C    1.415110   2.463436   2.843731   2.348848   1.414645
     7  Cl   2.709234   4.019352   4.531234   3.910593   2.678374
     8  Cl   1.693532   2.663236   3.977755   4.385721   4.006325
     9  H    2.180282   1.100381   2.183086   3.367276   3.948013
    10  Cl   3.998405   2.706188   1.680925   2.689520   4.005201
    11  H    3.454497   3.945350   3.459360   2.167279   1.098151
                    6          7          8          9         10
     6  C    0.000000
     7  Cl   1.687518   0.000000
     8  Cl   2.700070   3.149851   0.000000
     9  H    3.457678   4.889474   2.813068   0.000000
    10  Cl   4.524083   6.211413   5.363306   2.891802   0.000000
    11  H    2.204141   2.871822   4.902749   5.045731   4.850427
                   11
    11  H    0.000000
 Stoichiometry    C6H2Cl3(2)
 Framework group  CS[SG(C6H2Cl3)]
 Deg. of freedom    19
 Full point group                 CS      NOp   2
 Largest Abelian subgroup         CS      NOp   2
 Largest concise Abelian subgroup C1      NOp   1
                         Standard orientation:                         
 ---------------------------------------------------------------------
 Center     Atomic      Atomic             Coordinates (Angstroms)
 Number     Number       Type             X           Y           Z
 ---------------------------------------------------------------------
      1          6           0        0.000000    0.808593    0.000000
      2          6           0        1.230090    0.125194    0.000000
      3          6           0        1.241255   -1.286439    0.000000
      4          6           0        0.000852   -1.883747   -0.000000
      5          6           0       -1.235336   -1.299917   -0.000000
      6          6           0       -1.233324    0.114727   -0.000000
      7         17           0       -2.706118    0.938495   -0.000000
      8         17           0        0.028359    2.501888    0.000000
      9          1           0        2.176833    0.686011    0.000000
     10         17           0        2.675898   -2.162402    0.000000
     11          1           0       -2.166426   -1.882159   -0.000000
 ---------------------------------------------------------------------
 Rotational constants (GHZ):           1.9218869           0.6056953           0.4605500

 **********************************************************************

            Population analysis using the SCF Density.

 **********************************************************************

 Orbital symmetries:
 Alpha Orbitals:
       Occupied  (A') (A') (A') (A') (A') (A') (A') (A') (A') (A')
                 (A') (A') (A") (A') (A") (A') (A") (A') (A') (A')
                 (A") (A') (A") (A")
       Virtual   (A") (A") (A') (A') (A') (A") (A') (A') (A') (A')
                 (A') (A') (A') (A')
 Beta  Orbitals:
       Occupied  (A') (A') (A') (A') (A') (A') (A') (A') (A') (A')
                 (A') (A") (A') (A') (A") (A') (A") (A') (A') (A')
                 (A") (A") (A")
       Virtual   (A') (A") (A") (A') (A') (A') (A") (A') (A') (A')
                 (A') (A') (A') (A') (A')
 The electronic state is 2-A'.
 Alpha  occ. eigenvalues --   -1.48273  -1.41400  -1.39961  -1.37913  -1.18194
 Alpha  occ. eigenvalues --   -1.14565  -0.89910  -0.87294  -0.69743  -0.64542
 Alpha  occ. eigenvalues --   -0.63882  -0.57732  -0.57389  -0.55561  -0.51471
 Alpha  occ. eigenvalues --   -0.51163  -0.48655  -0.46417  -0.45277  -0.44768
 Alpha  occ. eigenvalues --   -0.44580  -0.40534  -0.38965  -0.36781
 Alpha virt. eigenvalues --   -0.01482  -0.00736   0.02562   0.03249   0.04989
 Alpha virt. eigenvalues --    0.06786   0.11105   0.12343   0.12672   0.14472
 Alpha virt. eigenvalues --    0.15067   0.15477   0.16766   0.17574
  Beta  occ. eigenvalues --   -1.47695  -1.41414  -1.39940  -1.37540  -1.17854
  Beta  occ. eigenvalues --   -1.13206  -0.89578  -0.85093  -0.69760  -0.63937
  Beta  occ. eigenvalues --   -0.62626  -0.57267  -0.57165  -0.54767  -0.51924
  Beta  occ. eigenvalues --   -0.50813  -0.48820  -0.45534  -0.45112  -0.44582
  Beta  occ. eigenvalues --   -0.44194  -0.38383  -0.36348
  Beta virt. eigenvalues --   -0.01392  -0.01314   0.00607   0.02112   0.03296
  Beta virt. eigenvalues --    0.05181   0.07750   0.11384   0.12793   0.13462
  Beta virt. eigenvalues --    0.15070   0.15371   0.15734   0.17577   0.18945
          Condensed to atoms (all electrons):
               1          2          3          4          5          6
     1  C    4.070340   0.000000   0.000000   0.000000   0.000000   0.000000
     2  C    0.000000   4.109170   0.000000   0.000000   0.000000   0.000000
     3  C    0.000000   0.000000   4.055900   0.000000   0.000000   0.000000
     4  C    0.000000   0.000000   0.000000   4.047450   0.000000   0.000000
     5  C    0.000000   0.000000   0.000000   0.000000   4.100026   0.000000
     6  C    0.000000   0.000000   0.000000   0.000000   0.000000   4.062973
     7  Cl   0.000000   0.000000   0.000000   0.000000   0.000000   0.000000
     8  Cl   0.000000   0.000000   0.000000   0.000000   0.000000   0.000000
     9  H    0.000000   0.000000   0.000000   0.000000   0.000000   0.000000
    10  Cl   0.000000   0.000000   0.000000   0.000000   0.000000   0.000000
    11  H    0.000000   0.000000   0.000000   0.000000   0.000000   0.000000
               7          8          9         10         11
     1  C    0.000000   0.000000   0.000000   0.000000   0.000000
     2  C    0.000000   0.000000   0.000000   0.000000   0.000000
     3  C    0.000000   0.000000   0.000000   0.000000   0.000000
     4  C    0.000000   0.000000   0.000000   0.000000   0.000000
     5  C    0.000000   0.000000   0.000000   0.000000   0.000000
     6  C    0.000000   0.000000   0.000000   0.000000   0.000000
     7  Cl   6.968344   0.000000   0.000000   0.000000   0.000000
     8  Cl   0.000000   6.975923   0.000000   0.000000   0.000000
     9  H    0.000000   0.000000   0.830147   0.000000   0.000000
    10  Cl   0.000000   0.000000   0.000000   6.958160   0.000000
    11  H    0.000000   0.000000   0.000000   0.000000   0.821567
          Atomic-Atomic Spin Densities.
               1          2          3          4          5          6
     1  C   -0.473420   0.000000   0.000000   0.000000   0.000000   0.000000
     2  C    0.000000   0.518275   0.000000   0.000000   0.000000   0.000000
     3  C    0.000000   0.000000  -0.489311   0.000000   0.000000   0.000000
     4  C    0.000000   0.000000   0.000000   1.404957   0.000000   0.000000
     5  C    0.000000   0.000000   0.000000   0.000000  -0.508327   0.000000
     6  C    0.000000   0.000000   0.000000   0.000000   0.000000   0.522915
     7  Cl   0.000000   0.000000   0.000000   0.000000   0.000000   0.000000
     8  Cl   0.000000   0.000000   0.000000   0.000000   0.000000   0.000000
     9  H    0.000000   0.000000   0.000000   0.000000   0.000000   0.000000
    10  Cl   0.000000   0.000000   0.000000   0.000000   0.000000   0.000000
    11  H    0.000000   0.000000   0.000000   0.000000   0.000000   0.000000
               7          8          9         10         11
     1  C    0.000000   0.000000   0.000000   0.000000   0.000000
     2  C    0.000000   0.000000   0.000000   0.000000   0.000000
     3  C    0.000000   0.000000   0.000000   0.000000   0.000000
     4  C    0.000000   0.000000   0.000000   0.000000   0.000000
     5  C    0.000000   0.000000   0.000000   0.000000   0.000000
     6  C    0.000000   0.000000   0.000000   0.000000   0.000000
     7  Cl   0.014926   0.000000   0.000000   0.000000   0.000000
     8  Cl   0.000000  -0.002699   0.000000   0.000000   0.000000
     9  H    0.000000   0.000000  -0.020517   0.000000   0.000000
    10  Cl   0.000000   0.000000   0.000000  -0.001003   0.000000
    11  H    0.000000   0.000000   0.000000   0.000000   0.034204
 Mulliken charges and spin densities:
               1          2
     1  C   -0.070340  -0.473420
     2  C   -0.109170   0.518275
     3  C   -0.055900  -0.489311
     4  C   -0.047450   1.404957
     5  C   -0.100026  -0.508327
     6  C   -0.062973   0.522915
     7  Cl   0.031656   0.014926
     8  Cl   0.024077  -0.002699
     9  H    0.169853  -0.020517
    10  Cl   0.041840  -0.001003
    11  H    0.178433   0.034204
 Sum of Mulliken charges =  -0.00000   1.00000
 Mulliken charges and spin densities with hydrogens summed into heavy atoms:
               1          2
     1  C   -0.070340  -0.473420
     2  C    0.060683   0.497758
     3  C   -0.055900  -0.489311
     4  C   -0.047450   1.404957
     5  C    0.078407  -0.474123
     6  C   -0.062973   0.522915
     7  Cl   0.031656   0.014926
     8  Cl   0.024077  -0.002699
    10  Cl   0.041840  -0.001003
 Charge=             -0.0000 electrons
 Dipole moment (field-independent basis, Debye):
    X=              0.0335    Y=              0.0538    Z=              0.0000  Tot=              0.0633
 N-N= 2.443893175876D+02 E-N=-3.410445584765D+02  KE=-1.121728031466D+02
 Symmetry A'   KE=-8.620686792593D+01
 Symmetry A"   KE=-2.596593522069D+01
 Symmetry A'   SP= 1.000000000000D+00
 Symmetry A"   SP=-5.329070518201D-15
 1\1\GINC-SH02-01N47\FOpt\UAM1\ZDO\C6H2Cl3(2)\JLAPIER\10-Dec-2025\0\\# 
 opt am1 SCF=XQC\\Neutral Radical (removed 5) 124_\\0,2\C,-3.203807848,
 0.1982343273,0.\C,-2.0154478823,0.951862667,0.\C,-0.7702831885,0.28673
 20136,0.\C,-0.8387399208,-1.0882914756,0.\C,-1.9425652944,-1.894882164
 5,0.\C,-3.184073565,-1.2167384408,0.\Cl,-4.611761641,-2.116417473,0.\C
 l,-4.67745565,1.0327479002,0.\H,-2.05534722,2.0515200365,0.\Cl,0.68500
 57478,1.1279480562,0.\H,-1.8763635377,-2.9910354468,0.\\Version=ES64L-
 G16RevB.01\State=2-A'\HF=0.0880218\S2=1.302531\S2-1=0.\S2A=1.019707\RM
 SD=4.447e-09\RMSF=8.853e-05\Dipole=-0.0122823,0.0216799,0.\PG=CS [SG(C
 6H2Cl3)]\\@


 TRUST EVERYONE, BUT CUT THE CARDS.
 Job cpu time:       0 days  0 hours  0 minutes 10.7 seconds.
 Elapsed time:       0 days  0 hours  0 minutes 19.4 seconds.
 File lengths (MBytes):  RWF=     10 Int=      0 D2E=      0 Chk=      2 Scr=      1
 Normal termination of Gaussian 16 at Wed Dec 10 10:38:18 2025.
