 Entering Gaussian System, Link 0=g16
 Initial command:
 /share/software/user/restricted/gaussian/g16.B01/l1.exe "/home/users/jlapier/Chloroaromatics/Gau-20828.inp" -scrdir="/home/users/jlapier/Chloroaromatics/"
 Entering Link 1 = /share/software/user/restricted/gaussian/g16.B01/l1.exe PID=     20829.
  
 Copyright (c) 1988-2017, Gaussian, Inc.  All Rights Reserved.
  
 This is part of the Gaussian(R) 16 program.  It is based on
 the Gaussian(R) 09 system (copyright 2009, Gaussian, Inc.),
 the Gaussian(R) 03 system (copyright 2003, Gaussian, Inc.),
 the Gaussian(R) 98 system (copyright 1998, Gaussian, Inc.),
 the Gaussian(R) 94 system (copyright 1995, Gaussian, Inc.),
 the Gaussian 92(TM) system (copyright 1992, Gaussian, Inc.),
 the Gaussian 90(TM) system (copyright 1990, Gaussian, Inc.),
 the Gaussian 88(TM) system (copyright 1988, Gaussian, Inc.),
 the Gaussian 86(TM) system (copyright 1986, Carnegie Mellon
 University), and the Gaussian 82(TM) system (copyright 1983,
 Carnegie Mellon University). Gaussian is a federally registered
 trademark of Gaussian, Inc.
  
 This software contains proprietary and confidential information,
 including trade secrets, belonging to Gaussian, Inc.
  
 This software is provided under written license and may be
 used, copied, transmitted, or stored only in accord with that
 written license.
  
 The following legend is applicable only to US Government
 contracts under FAR:
  
                    RESTRICTED RIGHTS LEGEND
  
 Use, reproduction and disclosure by the US Government is
 subject to restrictions as set forth in subparagraphs (a)
 and (c) of the Commercial Computer Software - Restricted
 Rights clause in FAR 52.227-19.
  
 Gaussian, Inc.
 340 Quinnipiac St., Bldg. 40, Wallingford CT 06492
  
  
 ---------------------------------------------------------------
 Warning -- This program may not be used in any manner that
 competes with the business of Gaussian, Inc. or will provide
 assistance to any competitor of Gaussian, Inc.  The licensee
 of this program is prohibited from giving any competitor of
 Gaussian, Inc. access to this program.  By using this program,
 the user acknowledges that Gaussian, Inc. is engaged in the
 business of creating and licensing software in the field of
 computational chemistry and represents and warrants to the
 licensee that it is not a competitor of Gaussian, Inc. and that
 it will not use this program in any manner prohibited above.
 ---------------------------------------------------------------
  

 Cite this work as:
 Gaussian 16, Revision B.01,
 M. J. Frisch, G. W. Trucks, H. B. Schlegel, G. E. Scuseria, 
 M. A. Robb, J. R. Cheeseman, G. Scalmani, V. Barone, 
 G. A. Petersson, H. Nakatsuji, X. Li, M. Caricato, A. V. Marenich, 
 J. Bloino, B. G. Janesko, R. Gomperts, B. Mennucci, H. P. Hratchian, 
 J. V. Ortiz, A. F. Izmaylov, J. L. Sonnenberg, D. Williams-Young, 
 F. Ding, F. Lipparini, F. Egidi, J. Goings, B. Peng, A. Petrone, 
 T. Henderson, D. Ranasinghe, V. G. Zakrzewski, J. Gao, N. Rega, 
 G. Zheng, W. Liang, M. Hada, M. Ehara, K. Toyota, R. Fukuda, 
 J. Hasegawa, M. Ishida, T. Nakajima, Y. Honda, O. Kitao, H. Nakai, 
 T. Vreven, K. Throssell, J. A. Montgomery, Jr., J. E. Peralta, 
 F. Ogliaro, M. J. Bearpark, J. J. Heyd, E. N. Brothers, K. N. Kudin, 
 V. N. Staroverov, T. A. Keith, R. Kobayashi, J. Normand, 
 K. Raghavachari, A. P. Rendell, J. C. Burant, S. S. Iyengar, 
 J. Tomasi, M. Cossi, J. M. Millam, M. Klene, C. Adamo, R. Cammi, 
 J. W. Ochterski, R. L. Martin, K. Morokuma, O. Farkas, 
 J. B. Foresman, and D. J. Fox, Gaussian, Inc., Wallingford CT, 2016.
 
 ******************************************
 Gaussian 16:  ES64L-G16RevB.01 20-Dec-2017
                 9-Dec-2025 
 ******************************************
 %mem=2GB
 %nprocshare=1
 Will use up to    1 processors via shared memory.
 %chk=geometry_chks/1245ClBzAnionRadical.chk
 -----------------
 # opt am1 SCF=XQC
 -----------------
 1/18=20,19=15,26=1,38=1/1,3;
 2/9=110,12=2,17=6,18=5,40=1/2;
 3/5=2,25=1,41=700000,71=1/1,2,3;
 4/35=1/1;
 5/5=2,8=3,13=1,35=1,38=5/2,8;
 6/7=2,8=2,9=2,10=2,28=1/1;
 7//1,2,3,16;
 1/18=20,19=15,26=1/3(2);
 2/9=110/2;
 99//99;
 2/9=110/2;
 3/5=2,25=1,41=700000,71=1,135=20/1,2,3;
 4/5=5,16=3,35=1/1;
 5/5=2,8=3,13=1,35=1,38=5/2,8;
 7//1,2,3,16;
 1/18=20,19=15,26=1/3(-5);
 2/9=110/2;
 6/7=2,8=2,9=2,10=2,19=2,28=1/1;
 99/9=1/99;
 -------------------------------------
 4-Chloro-Benzene Anion Radical (1245)
 -------------------------------------
 Symbolic Z-matrix:
 Charge = -1 Multiplicity = 2
 C                    -3.20928   0.19943   0. 
 C                    -2.0115    0.93555   0. 
 C                    -0.77511   0.2663    0. 
 C                    -0.7365   -1.13907   0. 
 C                    -1.93429  -1.87519   0. 
 C                    -3.17067  -1.20594   0. 
 Cl                   -4.67483  -2.13035   0. 
 Cl                   -4.76193   1.03987   0. 
 H                    -2.05998   2.7004    0. 
 Cl                    0.72905   1.19071   0. 
 Cl                    0.81614  -1.97951   0. 
 H                    -1.8858   -3.64003   0. 
 
 Add virtual bond connecting atoms H12        and C5         Dist= 3.34D+00.
 Add virtual bond connecting atoms H9         and C2         Dist= 3.34D+00.

 GradGradGradGradGradGradGradGradGradGradGradGradGradGradGradGradGradGrad
 Berny optimization.
 Initialization pass.
                           ----------------------------
                           !    Initial Parameters    !
                           ! (Angstroms and Degrees)  !
 --------------------------                            --------------------------
 ! Name  Definition              Value          Derivative Info.                !
 --------------------------------------------------------------------------------
 ! R1    R(1,2)                  1.4059         estimate D2E/DX2                !
 ! R2    R(1,6)                  1.4059         estimate D2E/DX2                !
 ! R3    R(1,8)                  1.7655         estimate D2E/DX2                !
 ! R4    R(2,3)                  1.4059         estimate D2E/DX2                !
 ! R5    R(2,9)                  1.7655         estimate D2E/DX2                !
 ! R6    R(3,4)                  1.4059         estimate D2E/DX2                !
 ! R7    R(3,10)                 1.7655         estimate D2E/DX2                !
 ! R8    R(4,5)                  1.4059         estimate D2E/DX2                !
 ! R9    R(4,11)                 1.7655         estimate D2E/DX2                !
 ! R10   R(5,6)                  1.4059         estimate D2E/DX2                !
 ! R11   R(5,12)                 1.7655         estimate D2E/DX2                !
 ! R12   R(6,7)                  1.7655         estimate D2E/DX2                !
 ! A1    A(2,1,6)              119.9999         estimate D2E/DX2                !
 ! A2    A(2,1,8)              119.9999         estimate D2E/DX2                !
 ! A3    A(6,1,8)              120.0001         estimate D2E/DX2                !
 ! A4    A(1,2,3)              120.0            estimate D2E/DX2                !
 ! A5    A(1,2,9)              120.0001         estimate D2E/DX2                !
 ! A6    A(3,2,9)              119.9999         estimate D2E/DX2                !
 ! A7    A(2,3,4)              120.0001         estimate D2E/DX2                !
 ! A8    A(2,3,10)             120.0            estimate D2E/DX2                !
 ! A9    A(4,3,10)             119.9999         estimate D2E/DX2                !
 ! A10   A(3,4,5)              119.9997         estimate D2E/DX2                !
 ! A11   A(3,4,11)             120.0003         estimate D2E/DX2                !
 ! A12   A(5,4,11)             120.0            estimate D2E/DX2                !
 ! A13   A(4,5,6)              120.0            estimate D2E/DX2                !
 ! A14   A(4,5,12)             119.9996         estimate D2E/DX2                !
 ! A15   A(6,5,12)             120.0004         estimate D2E/DX2                !
 ! A16   A(1,6,5)              120.0003         estimate D2E/DX2                !
 ! A17   A(1,6,7)              119.9999         estimate D2E/DX2                !
 ! A18   A(5,6,7)              119.9998         estimate D2E/DX2                !
 ! D1    D(6,1,2,3)              0.0            estimate D2E/DX2                !
 ! D2    D(6,1,2,9)            180.0            estimate D2E/DX2                !
 ! D3    D(8,1,2,3)            180.0            estimate D2E/DX2                !
 ! D4    D(8,1,2,9)              0.0            estimate D2E/DX2                !
 ! D5    D(2,1,6,5)              0.0            estimate D2E/DX2                !
 ! D6    D(2,1,6,7)            180.0            estimate D2E/DX2                !
 ! D7    D(8,1,6,5)            180.0            estimate D2E/DX2                !
 ! D8    D(8,1,6,7)              0.0            estimate D2E/DX2                !
 ! D9    D(1,2,3,4)              0.0            estimate D2E/DX2                !
 ! D10   D(1,2,3,10)           180.0            estimate D2E/DX2                !
 ! D11   D(9,2,3,4)            180.0            estimate D2E/DX2                !
 ! D12   D(9,2,3,10)             0.0            estimate D2E/DX2                !
 ! D13   D(2,3,4,5)              0.0            estimate D2E/DX2                !
 ! D14   D(2,3,4,11)           180.0            estimate D2E/DX2                !
 ! D15   D(10,3,4,5)           180.0            estimate D2E/DX2                !
 ! D16   D(10,3,4,11)            0.0            estimate D2E/DX2                !
 ! D17   D(3,4,5,6)              0.0            estimate D2E/DX2                !
 ! D18   D(3,4,5,12)           180.0            estimate D2E/DX2                !
 ! D19   D(11,4,5,6)           180.0            estimate D2E/DX2                !
 ! D20   D(11,4,5,12)            0.0            estimate D2E/DX2                !
 ! D21   D(4,5,6,1)              0.0            estimate D2E/DX2                !
 ! D22   D(4,5,6,7)            180.0            estimate D2E/DX2                !
 ! D23   D(12,5,6,1)           180.0            estimate D2E/DX2                !
 ! D24   D(12,5,6,7)             0.0            estimate D2E/DX2                !
 --------------------------------------------------------------------------------
 Trust Radius=3.00D-01 FncErr=1.00D-07 GrdErr=1.00D-07 EigMax=2.50D+02 EigMin=1.00D-04
 Number of steps in this run=     64 maximum allowed number of steps=    100.
 GradGradGradGradGradGradGradGradGradGradGradGradGradGradGradGradGradGrad

                          Input orientation:                          
 ---------------------------------------------------------------------
 Center     Atomic      Atomic             Coordinates (Angstroms)
 Number     Number       Type             X           Y           Z
 ---------------------------------------------------------------------
      1          6           0       -3.209280    0.199430    0.000000
      2          6           0       -2.011500    0.935550    0.000000
      3          6           0       -0.775110    0.266300    0.000000
      4          6           0       -0.736500   -1.139070    0.000000
      5          6           0       -1.934290   -1.875190    0.000000
      6          6           0       -3.170670   -1.205940    0.000000
      7         17           0       -4.674830   -2.130350    0.000000
      8         17           0       -4.761930    1.039870    0.000000
      9          1           0       -2.059980    2.700400    0.000000
     10         17           0        0.729050    1.190710    0.000000
     11         17           0        0.816140   -1.979510    0.000000
     12          1           0       -1.885800   -3.640030    0.000000
 ---------------------------------------------------------------------
                    Distance matrix (angstroms):
                    1          2          3          4          5
     1  C    0.000000
     2  C    1.405898   0.000000
     3  C    2.435088   1.405900   0.000000
     4  C    2.811801   2.435092   1.405900   0.000000
     5  C    2.435087   2.811800   2.435093   1.405907   0.000000
     6  C    1.405900   2.435088   2.811796   2.435088   1.405892
     7  Cl   2.752401   4.061166   4.577308   4.061167   2.752393
     8  Cl   1.765520   2.752408   4.061175   4.577321   4.061173
     9  H    2.752406   1.765516   2.752405   4.061173   4.577316
    10  Cl   4.061167   2.752403   1.765512   2.752401   4.061173
    11  Cl   4.577312   4.061173   2.752406   1.765511   2.752408
    12  H    4.061164   4.577306   4.061163   2.752397   1.765506
                    6          7          8          9         10
     6  C    0.000000
     7  Cl   1.765512   0.000000
     8  Cl   2.752412   3.171416   0.000000
     9  H    4.061173   5.493049   3.171418   0.000000
    10  Cl   4.577308   6.342819   5.493051   3.171412   0.000000
    11  Cl   4.061165   5.493041   6.342832   5.493052   3.171416
    12  H    2.752396   3.171407   5.493049   6.342822   5.493040
                   11         12
    11  Cl   0.000000
    12  H    3.171404   0.000000
 Stoichiometry    C6H2Cl4(1-,2)
 Framework group  CS[SG(C6H2Cl4)]
 Deg. of freedom    21
 Full point group                 CS      NOp   2
 Largest Abelian subgroup         CS      NOp   2
 Largest concise Abelian subgroup C1      NOp   1
                         Standard orientation:                         
 ---------------------------------------------------------------------
 Center     Atomic      Atomic             Coordinates (Angstroms)
 Number     Number       Type             X           Y           Z
 ---------------------------------------------------------------------
      1          6           0        0.000001   -1.405898    0.000000
      2          6           0        1.217545   -0.702950   -0.000000
      3          6           0        1.217545    0.702950   -0.000000
      4          6           0        0.000001    1.405902   -0.000000
      5          6           0       -1.217548    0.702945    0.000000
      6          6           0       -1.217543   -0.702946    0.000000
      7         17           0       -2.746521   -1.585702    0.000000
      8         17           0        0.000001   -3.171419    0.000000
      9          1           0        2.746528   -1.585706   -0.000000
     10         17           0        2.746523    1.585706   -0.000000
     11         17           0       -0.000004    3.171414   -0.000000
     12          1           0       -2.746517    1.585705    0.000000
 ---------------------------------------------------------------------
 Rotational constants (GHZ):           1.1404458           0.4487110           0.3220139
 Standard basis: VSTO-6G (5D, 7F)
 There are    32 symmetry adapted cartesian basis functions of A'  symmetry.
 There are    10 symmetry adapted cartesian basis functions of A"  symmetry.
 There are    32 symmetry adapted basis functions of A'  symmetry.
 There are    10 symmetry adapted basis functions of A"  symmetry.
    42 basis functions,   252 primitive gaussians,    42 cartesian basis functions
    28 alpha electrons       27 beta electrons
       nuclear repulsion energy       298.9459600070 Hartrees.
 Integral buffers will be    131072 words long.
 Regular integral format.
 Two-electron integral symmetry is turned off.
 Do NDO integrals.
 One-electron integrals computed using PRISM.
 NBasis=    42 RedAO= T EigKep=  1.00D+00  NBF=    32    10
 NBsUse=    42 1.00D-06 EigRej= -1.00D+00 NBFU=    32    10
 Simple Huckel Guess.
 Initial guess orbital symmetries:
 Alpha Orbitals:
       Occupied  (A') (A') (A') (A') (A') (A') (A') (A') (A') (A')
                 (A") (A') (A') (A') (A") (A') (A") (A') (A') (A")
                 (A') (A") (A') (A') (A') (A") (A") (A')
       Virtual   (A") (A') (A") (A") (A') (A') (A') (A') (A') (A')
                 (A') (A') (A') (A')
 Beta  Orbitals:
       Occupied  (A') (A') (A') (A') (A') (A') (A') (A') (A') (A')
                 (A") (A') (A') (A') (A") (A') (A") (A') (A') (A")
                 (A') (A") (A') (A') (A') (A") (A")
       Virtual   (A') (A") (A') (A") (A") (A') (A') (A') (A') (A')
                 (A') (A') (A') (A') (A')
 The electronic state of the initial guess is 2-A'.
 Initial guess <Sx>= 0.0000 <Sy>= 0.0000 <Sz>= 0.5000 <S**2>= 0.7500 S= 0.5000
 Keep J ints in memory in canonical form, NReq=864594.
 Overlap will be assumed to be unity.
 Requested convergence on RMS density matrix=1.00D-08 within  32 cycles.
 Requested convergence on MAX density matrix=1.00D-06.
 Requested convergence on             energy=1.00D-06.
 No special actions if energy rises.
 Fock symm off for IB=2 I1=    1 I=   33 J=   13 Cut=1.00D-07 Err=3.84D-03
 Fock matrix is not symmetric: symmetry in diagonalization turned off.
 SCF Done:  E(UAM1) =  0.217394477290     A.U. after   28 cycles
            NFock= 27  Conv=0.12D-08     -V/T= 1.0016
 <Sx>= 0.0000 <Sy>= 0.0000 <Sz>= 0.5000 <S**2>= 1.0209 S= 0.6274
 <L.S>=  0.00000000000    
 Annihilation of the first spin contaminant:
 S**2 before annihilation     1.0209,   after     0.7566
 QCSCF skips out because SCF is already converged.

 **********************************************************************

            Population analysis using the SCF Density.

 **********************************************************************

 Orbital symmetries:
 Alpha Orbitals:
       Occupied  (A') (A') (A') (A') (A') (A') (A') (A') (A') (A')
                 (A') (A') (A') (A") (A") (A') (A") (A") (A') (A')
                 (A') (A') (A") (A') (A') (A") (A") (A')
       Virtual   (A') (A") (A') (A") (A') (A') (A') (A") (A') (A')
                 (A') (A') (A') (A')
 Beta  Orbitals:
       Occupied  (A') (A') (A') (A') (A') (A') (A') (A') (A') (A')
                 (A') (A') (A') (A") (A") (A') (A") (A") (A') (A')
                 (A') (A') (A") (A') (A') (A") (A")
       Virtual   (A") (A") (A') (A') (A') (A') (A') (A') (A") (A')
                 (A') (A') (A') (A') (A')
 The electronic state is 2-A'.
 Alpha  occ. eigenvalues --   -1.28359  -1.24137  -1.22811  -1.22708  -1.19858
 Alpha  occ. eigenvalues --   -0.97824  -0.94506  -0.70296  -0.67769  -0.49110
 Alpha  occ. eigenvalues --   -0.46722  -0.46445  -0.42646  -0.40304  -0.35991
 Alpha  occ. eigenvalues --   -0.34703  -0.33448  -0.32702  -0.32355  -0.30864
 Alpha  occ. eigenvalues --   -0.29676  -0.29408  -0.27801  -0.27475  -0.24427
 Alpha  occ. eigenvalues --   -0.20198  -0.19013  -0.04952
 Alpha virt. eigenvalues --    0.09240   0.13659   0.17388   0.17483   0.17925
 Alpha virt. eigenvalues --    0.18150   0.20048   0.24299   0.29114   0.31156
 Alpha virt. eigenvalues --    0.31327   0.33855   0.34113   0.35111
  Beta  occ. eigenvalues --   -1.28475  -1.24233  -1.22925  -1.22818  -1.20003
  Beta  occ. eigenvalues --   -0.97833  -0.94896  -0.70240  -0.68289  -0.49219
  Beta  occ. eigenvalues --   -0.46941  -0.46661  -0.42734  -0.40286  -0.35952
  Beta  occ. eigenvalues --   -0.34836  -0.33462  -0.32719  -0.32489  -0.30555
  Beta  occ. eigenvalues --   -0.29829  -0.29414  -0.27874  -0.24801  -0.21094
  Beta  occ. eigenvalues --   -0.19967  -0.19314
  Beta virt. eigenvalues --    0.14128   0.17019   0.17063   0.17228   0.17751
  Beta virt. eigenvalues --    0.20216   0.23177   0.24156   0.24324   0.30276
  Beta virt. eigenvalues --    0.31168   0.31712   0.33749   0.34095   0.34820
          Condensed to atoms (all electrons):
               1          2          3          4          5          6
     1  C    4.053502   0.000000   0.000000   0.000000   0.000000   0.000000
     2  C    0.000000   4.170524   0.000000   0.000000   0.000000   0.000000
     3  C    0.000000   0.000000   4.053503   0.000000   0.000000   0.000000
     4  C    0.000000   0.000000   0.000000   4.053504   0.000000   0.000000
     5  C    0.000000   0.000000   0.000000   0.000000   4.170523   0.000000
     6  C    0.000000   0.000000   0.000000   0.000000   0.000000   4.053504
     7  Cl   0.000000   0.000000   0.000000   0.000000   0.000000   0.000000
     8  Cl   0.000000   0.000000   0.000000   0.000000   0.000000   0.000000
     9  H    0.000000   0.000000   0.000000   0.000000   0.000000   0.000000
    10  Cl   0.000000   0.000000   0.000000   0.000000   0.000000   0.000000
    11  Cl   0.000000   0.000000   0.000000   0.000000   0.000000   0.000000
    12  H    0.000000   0.000000   0.000000   0.000000   0.000000   0.000000
               7          8          9         10         11         12
     1  C    0.000000   0.000000   0.000000   0.000000   0.000000   0.000000
     2  C    0.000000   0.000000   0.000000   0.000000   0.000000   0.000000
     3  C    0.000000   0.000000   0.000000   0.000000   0.000000   0.000000
     4  C    0.000000   0.000000   0.000000   0.000000   0.000000   0.000000
     5  C    0.000000   0.000000   0.000000   0.000000   0.000000   0.000000
     6  C    0.000000   0.000000   0.000000   0.000000   0.000000   0.000000
     7  Cl   7.089721   0.000000   0.000000   0.000000   0.000000   0.000000
     8  Cl   0.000000   7.089725   0.000000   0.000000   0.000000   0.000000
     9  H    0.000000   0.000000   1.043025   0.000000   0.000000   0.000000
    10  Cl   0.000000   0.000000   0.000000   7.089721   0.000000   0.000000
    11  Cl   0.000000   0.000000   0.000000   0.000000   7.089719   0.000000
    12  H    0.000000   0.000000   0.000000   0.000000   0.000000   1.043029
          Atomic-Atomic Spin Densities.
               1          2          3          4          5          6
     1  C    0.027975   0.000000   0.000000   0.000000   0.000000   0.000000
     2  C    0.000000  -0.173564   0.000000   0.000000   0.000000   0.000000
     3  C    0.000000   0.000000   0.027974   0.000000   0.000000   0.000000
     4  C    0.000000   0.000000   0.000000   0.027904   0.000000   0.000000
     5  C    0.000000   0.000000   0.000000   0.000000  -0.173482   0.000000
     6  C    0.000000   0.000000   0.000000   0.000000   0.000000   0.027907
     7  Cl   0.000000   0.000000   0.000000   0.000000   0.000000   0.000000
     8  Cl   0.000000   0.000000   0.000000   0.000000   0.000000   0.000000
     9  H    0.000000   0.000000   0.000000   0.000000   0.000000   0.000000
    10  Cl   0.000000   0.000000   0.000000   0.000000   0.000000   0.000000
    11  Cl   0.000000   0.000000   0.000000   0.000000   0.000000   0.000000
    12  H    0.000000   0.000000   0.000000   0.000000   0.000000   0.000000
               7          8          9         10         11         12
     1  C    0.000000   0.000000   0.000000   0.000000   0.000000   0.000000
     2  C    0.000000   0.000000   0.000000   0.000000   0.000000   0.000000
     3  C    0.000000   0.000000   0.000000   0.000000   0.000000   0.000000
     4  C    0.000000   0.000000   0.000000   0.000000   0.000000   0.000000
     5  C    0.000000   0.000000   0.000000   0.000000   0.000000   0.000000
     6  C    0.000000   0.000000   0.000000   0.000000   0.000000   0.000000
     7  Cl  -0.013632   0.000000   0.000000   0.000000   0.000000   0.000000
     8  Cl   0.000000  -0.013632   0.000000   0.000000   0.000000   0.000000
     9  H    0.000000   0.000000   0.644911   0.000000   0.000000   0.000000
    10  Cl   0.000000   0.000000   0.000000  -0.013632   0.000000   0.000000
    11  Cl   0.000000   0.000000   0.000000   0.000000  -0.013630   0.000000
    12  H    0.000000   0.000000   0.000000   0.000000   0.000000   0.644900
 Mulliken charges and spin densities:
               1          2
     1  C   -0.053502   0.027975
     2  C   -0.170524  -0.173564
     3  C   -0.053503   0.027974
     4  C   -0.053504   0.027904
     5  C   -0.170523  -0.173482
     6  C   -0.053504   0.027907
     7  Cl  -0.089721  -0.013632
     8  Cl  -0.089725  -0.013632
     9  H   -0.043025   0.644911
    10  Cl  -0.089721  -0.013632
    11  Cl  -0.089719  -0.013630
    12  H   -0.043029   0.644900
 Sum of Mulliken charges =  -1.00000   1.00000
 Mulliken charges and spin densities with hydrogens summed into heavy atoms:
               1          2
     1  C   -0.053502   0.027975
     2  C   -0.213549   0.471348
     3  C   -0.053503   0.027974
     4  C   -0.053504   0.027904
     5  C   -0.213552   0.471418
     6  C   -0.053504   0.027907
     7  Cl  -0.089721  -0.013632
     8  Cl  -0.089725  -0.013632
    10  Cl  -0.089721  -0.013632
    11  Cl  -0.089719  -0.013630
 Charge=             -1.0000 electrons
 Dipole moment (field-independent basis, Debye):
    X=              0.0001    Y=              0.0000    Z=              0.0000  Tot=              0.0001
 N-N= 2.989459600070D+02 E-N=-4.305562184048D+02  KE=-1.358572710151D+02
 Symmetry A'   KE=-1.041885545269D+02
 Symmetry A"   KE=-3.166871648829D+01
 Symmetry A'   SP= 1.000000000000D+00
 Symmetry A"   SP=-1.776356839400D-15
 Calling FoFJK, ICntrl=      2127 FMM=F ISym2X=1 I1Cent= 0 IOpClX= 1 NMat=1 NMatS=1 NMatT=0.
 ***** Axes restored to original set *****
 -------------------------------------------------------------------
 Center     Atomic                   Forces (Hartrees/Bohr)
 Number     Number              X              Y              Z
 -------------------------------------------------------------------
      1        6           0.005670836    0.032492345   -0.000000000
      2        6          -0.000623637    0.022676814   -0.000000000
      3        6          -0.007446986    0.032126294   -0.000000000
      4        6          -0.005677540   -0.032489754   -0.000000000
      5        6           0.000633702   -0.022677586    0.000000000
      6        6           0.007442291   -0.032127464   -0.000000000
      7       17           0.026699801    0.013523684    0.000000000
      8       17           0.027405996   -0.012039489    0.000000000
      9        1           0.001581105   -0.057558194    0.000000000
     10       17          -0.026700616   -0.013523661    0.000000000
     11       17          -0.027403421    0.012038037    0.000000000
     12        1          -0.001581533    0.057558974    0.000000000
 -------------------------------------------------------------------
 Cartesian Forces:  Max     0.057558974 RMS     0.020813065

 GradGradGradGradGradGradGradGradGradGradGradGradGradGradGradGradGradGrad
 Berny optimization.
 FormGI is forming the generalized inverse of G from B-inverse, IUseBI=4.
 Internal  Forces:  Max     0.057580698 RMS     0.017246672
 Search for a local minimum.
 Step number   1 out of a maximum of   64
 All quantities printed in internal units (Hartrees-Bohrs-Radians)
 Mixed Optimization -- RFO/linear search
 Second derivative matrix not updated -- first step.
 ITU=  0
     Eigenvalues ---    0.02011   0.02011   0.02011   0.02011   0.02011
     Eigenvalues ---    0.02011   0.02011   0.02011   0.02011   0.06524
     Eigenvalues ---    0.06524   0.16000   0.16000   0.23000   0.23979
     Eigenvalues ---    0.25000   0.25000   0.25000   0.25000   0.25000
     Eigenvalues ---    0.29033   0.29033   0.29033   0.29033   0.40882
     Eigenvalues ---    0.41211   0.44656   0.44657   0.44657   0.44657
 RFO step:  Lambda=-7.03093379D-02 EMin= 2.01065826D-02
 Linear search not attempted -- first point.
 Maximum step size (   0.300) exceeded in Quadratic search.
    -- Step size scaled by   0.468
 Iteration  1 RMS(Cart)=  0.04667964 RMS(Int)=  0.00003151
 Iteration  2 RMS(Cart)=  0.00006452 RMS(Int)=  0.00000000
 Iteration  3 RMS(Cart)=  0.00000000 RMS(Int)=  0.00000000
 ClnCor:  largest displacement from symmetrization is 3.39D-12 for atom     9.
 Variable       Old X    -DE/DX   Delta X   Delta X   Delta X     New X
                                 (Linear)    (Quad)   (Total)
    R1        2.65676  -0.03784   0.00000  -0.03426  -0.03426   2.62250
    R2        2.65677   0.00209   0.00000   0.00189   0.00189   2.65866
    R3        3.33635  -0.02983   0.00000  -0.03871  -0.03871   3.29764
    R4        2.65677  -0.03784   0.00000  -0.03426  -0.03426   2.62251
    R5        3.33634  -0.05758   0.00000  -0.19877  -0.19877   3.13757
    R6        2.65677   0.00209   0.00000   0.00189   0.00189   2.65866
    R7        3.33633  -0.02983   0.00000  -0.03870  -0.03870   3.29763
    R8        2.65678  -0.03785   0.00000  -0.03426  -0.03426   2.62251
    R9        3.33633  -0.02983   0.00000  -0.03870  -0.03870   3.29763
   R10        2.65675  -0.03784   0.00000  -0.03425  -0.03425   2.62250
   R11        3.33632  -0.05758   0.00000  -0.19877  -0.19877   3.13755
   R12        3.33633  -0.02983   0.00000  -0.03870  -0.03870   3.29763
    A1        2.09439   0.00009   0.00000   0.00015   0.00015   2.09454
    A2        2.09439  -0.00415   0.00000  -0.00606  -0.00606   2.08833
    A3        2.09440   0.00405   0.00000   0.00592   0.00592   2.10031
    A4        2.09439  -0.00019   0.00000  -0.00029  -0.00029   2.09410
    A5        2.09440   0.00009   0.00000   0.00015   0.00015   2.09454
    A6        2.09439   0.00009   0.00000   0.00015   0.00015   2.09454
    A7        2.09440   0.00009   0.00000   0.00015   0.00015   2.09454
    A8        2.09440  -0.00415   0.00000  -0.00606  -0.00606   2.08833
    A9        2.09439   0.00405   0.00000   0.00592   0.00592   2.10031
   A10        2.09439   0.00010   0.00000   0.00015   0.00015   2.09454
   A11        2.09440   0.00405   0.00000   0.00592   0.00592   2.10032
   A12        2.09440  -0.00415   0.00000  -0.00606  -0.00606   2.08833
   A13        2.09439  -0.00019   0.00000  -0.00029  -0.00029   2.09410
   A14        2.09439   0.00009   0.00000   0.00015   0.00015   2.09453
   A15        2.09440   0.00009   0.00000   0.00015   0.00015   2.09455
   A16        2.09440   0.00009   0.00000   0.00014   0.00014   2.09454
   A17        2.09439   0.00405   0.00000   0.00592   0.00592   2.10031
   A18        2.09439  -0.00415   0.00000  -0.00606  -0.00606   2.08833
    D1       -0.00000   0.00000   0.00000   0.00000   0.00000   0.00000
    D2        3.14159   0.00000   0.00000   0.00000   0.00000   3.14159
    D3        3.14159  -0.00000   0.00000  -0.00000   0.00000   3.14159
    D4        0.00000   0.00000   0.00000  -0.00000  -0.00000   0.00000
    D5        0.00000  -0.00000   0.00000   0.00000   0.00000   0.00000
    D6        3.14159  -0.00000   0.00000  -0.00000   0.00000   3.14159
    D7        3.14159   0.00000   0.00000   0.00000   0.00000   3.14159
    D8       -0.00000   0.00000   0.00000   0.00000   0.00000   0.00000
    D9        0.00000  -0.00000   0.00000  -0.00000   0.00000   0.00000
   D10        3.14159   0.00000   0.00000   0.00000   0.00000   3.14159
   D11        3.14159  -0.00000   0.00000  -0.00000   0.00000   3.14159
   D12       -0.00000  -0.00000   0.00000  -0.00000   0.00000   0.00000
   D13       -0.00000  -0.00000   0.00000   0.00000   0.00000   0.00000
   D14        3.14159   0.00000   0.00000   0.00000   0.00000   3.14159
   D15        3.14159  -0.00000   0.00000  -0.00000   0.00000   3.14159
   D16        0.00000  -0.00000   0.00000   0.00000  -0.00000   0.00000
   D17        0.00000   0.00000   0.00000   0.00000  -0.00000   0.00000
   D18        3.14159   0.00000   0.00000   0.00000   0.00000   3.14159
   D19        3.14159  -0.00000   0.00000  -0.00000   0.00000   3.14159
   D20       -0.00000   0.00000   0.00000  -0.00000   0.00000   0.00000
   D21       -0.00000  -0.00000   0.00000  -0.00000   0.00000   0.00000
   D22        3.14159   0.00000   0.00000   0.00000   0.00000   3.14159
   D23        3.14159  -0.00000   0.00000  -0.00000   0.00000   3.14159
   D24        0.00000  -0.00000   0.00000   0.00000  -0.00000   0.00000
         Item               Value     Threshold  Converged?
 Maximum Force            0.057581     0.000450     NO 
 RMS     Force            0.017247     0.000300     NO 
 Maximum Displacement     0.214541     0.001800     NO 
 RMS     Displacement     0.046673     0.001200     NO 
 Predicted change in Energy=-2.836595D-02
 GradGradGradGradGradGradGradGradGradGradGradGradGradGradGradGradGradGrad

                          Input orientation:                          
 ---------------------------------------------------------------------
 Center     Atomic      Atomic             Coordinates (Angstroms)
 Number     Number       Type             X           Y           Z
 ---------------------------------------------------------------------
      1          6           0       -3.193498    0.200365   -0.000000
      2          6           0       -2.011270    0.927164   -0.000000
      3          6           0       -0.790920    0.266365    0.000000
      4          6           0       -0.752283   -1.140004    0.000000
      5          6           0       -1.934518   -1.866805   -0.000000
      6          6           0       -3.154862   -1.206006   -0.000000
      7         17           0       -4.636141   -2.128474   -0.000000
      8         17           0       -4.723192    1.040121   -0.000000
      9          1           0       -2.056861    2.586870   -0.000000
     10         17           0        0.690359    1.188834    0.000000
     11         17           0        0.777403   -1.979761    0.000000
     12          1           0       -1.888916   -3.526500    0.000000
 ---------------------------------------------------------------------
                    Distance matrix (angstroms):
                    1          2          3          4          5
     1  C    0.000000
     2  C    1.387769   0.000000
     3  C    2.403485   1.387771   0.000000
     4  C    2.784981   2.420379   1.406900   0.000000
     5  C    2.420376   2.795023   2.420378   1.387775   0.000000
     6  C    1.406901   2.420376   2.784977   2.403485   1.387766
     7  Cl   2.739472   4.028260   4.530009   4.007671   2.714266
     8  Cl   1.745037   2.714274   4.007675   4.530018   4.028265
     9  H    2.643360   1.660332   2.643359   3.948609   4.455355
    10  Cl   4.007670   2.714271   1.745031   2.739471   4.028263
    11  Cl   4.530012   4.028264   2.739474   1.745031   2.714273
    12  H    3.948601   4.455344   3.948597   2.643349   1.660321
                    6          7          8          9         10
     6  C    0.000000
     7  Cl   1.745032   0.000000
     8  Cl   2.739479   3.169791   0.000000
     9  H    3.948609   5.374677   3.082492   0.000000
    10  Cl   4.530009   6.275040   5.415593   3.082486   0.000000
    11  Cl   4.007668   5.415587   6.275049   5.374678   3.169790
    12  H    2.643352   3.082487   5.374677   6.115676   5.374665
                   11         12
    11  Cl   0.000000
    12  H    3.082476   0.000000
 Stoichiometry    C6H2Cl4(1-,2)
 Framework group  CS[SG(C6H2Cl4)]
 Deg. of freedom    21
 Full point group                 CS      NOp   2
 Largest Abelian subgroup         CS      NOp   2
 Largest concise Abelian subgroup C1      NOp   1
                         Standard orientation:                         
 ---------------------------------------------------------------------
 Center     Atomic      Atomic             Coordinates (Angstroms)
 Number     Number       Type             X           Y           Z
 ---------------------------------------------------------------------
      1          6           0       -0.416875   -1.328624    0.000000
      2          6           0        0.939405   -1.034677    0.000000
      3          6           0        1.362593    0.286997    0.000000
      4          6           0        0.416878    1.328626    0.000000
      5          6           0       -0.939408    1.034675    0.000000
      6          6           0       -1.362592   -0.286994    0.000000
      7         17           0       -3.070134   -0.646767    0.000000
      8         17           0       -0.939408   -2.993590    0.000000
      9          1           0        2.055481   -2.263935    0.000000
     10         17           0        3.070135    0.646769    0.000000
     11         17           0        0.939405    2.993587    0.000000
     12          1           0       -2.055468    2.263934    0.000000
 ---------------------------------------------------------------------
 Rotational constants (GHZ):           1.1464406           0.4615718           0.3290799
 Standard basis: VSTO-6G (5D, 7F)
 There are    32 symmetry adapted cartesian basis functions of A'  symmetry.
 There are    10 symmetry adapted cartesian basis functions of A"  symmetry.
 There are    32 symmetry adapted basis functions of A'  symmetry.
 There are    10 symmetry adapted basis functions of A"  symmetry.
    42 basis functions,   252 primitive gaussians,    42 cartesian basis functions
    28 alpha electrons       27 beta electrons
       nuclear repulsion energy       301.0197108276 Hartrees.
 Integral buffers will be    131072 words long.
 Regular integral format.
 Two-electron integral symmetry is turned off.
 Do NDO integrals.
 One-electron integrals computed using PRISM.
 NBasis=    42 RedAO= T EigKep=  1.00D+00  NBF=    32    10
 NBsUse=    42 1.00D-06 EigRej= -1.00D+00 NBFU=    32    10
 Initial guess from the checkpoint file:  "geometry_chks/1245ClBzAnionRadical.chk"
 B after Tr=    -0.000000    0.000000   -0.000000
         Rot=    0.988010   -0.000000   -0.000000    0.154391 Ang=  17.76 deg.
 Initial guess orbital symmetries:
 Alpha Orbitals:
       Occupied  (A') (A') (A') (A') (A') (A') (A') (A') (A') (A')
                 (A') (A') (A') (A") (A") (A') (A") (A") (A') (A')
                 (A') (A') (A") (A') (A') (A") (A") (A')
       Virtual   (A') (A") (A') (A") (A') (A') (A') (A") (A') (A')
                 (A') (A') (A') (A')
 Beta  Orbitals:
       Occupied  (A') (A') (A') (A') (A') (A') (A') (A') (A') (A')
                 (A') (A') (A') (A") (A") (A') (A") (A") (A') (A')
                 (A') (A') (A") (A') (A') (A") (A")
       Virtual   (A") (A") (A') (A') (A') (A') (A') (A') (A") (A')
                 (A') (A') (A') (A') (A')
 Initial guess <Sx>= 0.0000 <Sy>= 0.0000 <Sz>= 0.5000 <S**2>= 1.0209 S= 0.6274
 Keep J ints in memory in canonical form, NReq=864594.
 Overlap will be assumed to be unity.
 Requested convergence on RMS density matrix=1.00D-08 within  32 cycles.
 Requested convergence on MAX density matrix=1.00D-06.
 Requested convergence on             energy=1.00D-06.
 No special actions if energy rises.
 Fock symm off for IB=2 I1=    1 I=   33 J=    2 Cut=1.00D-07 Err=9.74D-04
 Fock matrix is not symmetric: symmetry in diagonalization turned off.
 SCF Done:  E(UAM1) =  0.185110929919     A.U. after   21 cycles
            NFock= 20  Conv=0.66D-08     -V/T= 1.0014
 <Sx>= 0.0000 <Sy>= 0.0000 <Sz>= 0.5000 <S**2>= 0.8845 S= 0.5651
 <L.S>=  0.00000000000    
 Annihilation of the first spin contaminant:
 S**2 before annihilation     0.8845,   after     0.7518
 QCSCF skips out because SCF is already converged.
 Calling FoFJK, ICntrl=      2127 FMM=F ISym2X=1 I1Cent= 0 IOpClX= 1 NMat=1 NMatS=1 NMatT=0.
 ***** Axes restored to original set *****
 -------------------------------------------------------------------
 Center     Atomic                   Forces (Hartrees/Bohr)
 Number     Number              X              Y              Z
 -------------------------------------------------------------------
      1        6          -0.008106238    0.021654131   -0.000000000
      2        6          -0.001437368    0.052340855   -0.000000000
      3        6           0.006903807    0.022064259   -0.000000000
      4        6           0.008100849   -0.021653392   -0.000000000
      5        6           0.001444641   -0.052340542    0.000000000
      6        6          -0.006906969   -0.022063834    0.000000000
      7       17           0.016802251    0.008957352    0.000000000
      8       17           0.017271174   -0.008022711    0.000000000
      9        1           0.001825768   -0.066466584    0.000000000
     10       17          -0.016802482   -0.008957076    0.000000000
     11       17          -0.017269066    0.008021547    0.000000000
     12        1          -0.001826368    0.066465994    0.000000000
 -------------------------------------------------------------------
 Cartesian Forces:  Max     0.066466584 RMS     0.022307136

 GradGradGradGradGradGradGradGradGradGradGradGradGradGradGradGradGradGrad
 Berny optimization.
 Using GEDIIS/GDIIS optimizer.
 FormGI is forming the generalized inverse of G from B-inverse, IUseBI=4.
 Internal  Forces:  Max     0.066491656 RMS     0.014263131
 Search for a local minimum.
 Step number   2 out of a maximum of   64
 All quantities printed in internal units (Hartrees-Bohrs-Radians)
 Mixed Optimization -- RFO/linear search
 Update second derivatives using D2CorX and points    1    2
 DE= -3.23D-02 DEPred=-2.84D-02 R= 1.14D+00
 TightC=F SS=  1.41D+00  RLast= 3.00D-01 DXNew= 5.0454D-01 9.0000D-01
 Trust test= 1.14D+00 RLast= 3.00D-01 DXMaxT set to 5.05D-01
 ITU=  1  0
 Use linear search instead of GDIIS.
 Linear search step of   0.600 exceeds DXMaxT=   0.505 but not scaled.
 Quartic linear search produced a step of  2.00000.
 Iteration  1 RMS(Cart)=  0.06225127 RMS(Int)=  0.03801674
 Iteration  2 RMS(Cart)=  0.03802075 RMS(Int)=  0.00000005
 Iteration  3 RMS(Cart)=  0.00000008 RMS(Int)=  0.00000002
 ClnCor:  largest displacement from symmetrization is 6.78D-15 for atom    10.
 Variable       Old X    -DE/DX   Delta X   Delta X   Delta X     New X
                                 (Linear)    (Quad)   (Total)
    R1        2.62250  -0.01179  -0.06852   0.00000  -0.06852   2.55398
    R2        2.65866   0.00631   0.00378   0.00000   0.00378   2.66244
    R3        3.29764  -0.01900  -0.07742   0.00000  -0.07742   3.22023
    R4        2.62251  -0.01179  -0.06852   0.00000  -0.06852   2.55399
    R5        3.13757  -0.06649  -0.39754   0.00000  -0.39754   2.74003
    R6        2.65866   0.00631   0.00378   0.00000   0.00378   2.66243
    R7        3.29763  -0.01900  -0.07740   0.00000  -0.07740   3.22023
    R8        2.62251  -0.01179  -0.06853   0.00000  -0.06853   2.55399
    R9        3.29763  -0.01900  -0.07741   0.00000  -0.07741   3.22022
   R10        2.62250  -0.01179  -0.06851   0.00000  -0.06851   2.55399
   R11        3.13755  -0.06649  -0.39754   0.00000  -0.39754   2.74001
   R12        3.29763  -0.01900  -0.07740   0.00000  -0.07740   3.22023
    A1        2.09454  -0.00125   0.00029   0.00000   0.00029   2.09483
    A2        2.08833  -0.00148  -0.01213   0.00000  -0.01213   2.07620
    A3        2.10031   0.00274   0.01183   0.00000   0.01183   2.11215
    A4        2.09410   0.00251  -0.00059   0.00000  -0.00059   2.09352
    A5        2.09454  -0.00126   0.00029   0.00000   0.00029   2.09484
    A6        2.09454  -0.00125   0.00029   0.00000   0.00029   2.09483
    A7        2.09454  -0.00125   0.00029   0.00000   0.00029   2.09484
    A8        2.08833  -0.00148  -0.01213   0.00000  -0.01213   2.07620
    A9        2.10031   0.00274   0.01184   0.00000   0.01184   2.11215
   A10        2.09454  -0.00125   0.00030   0.00000   0.00030   2.09483
   A11        2.10032   0.00274   0.01183   0.00000   0.01183   2.11215
   A12        2.08833  -0.00148  -0.01213   0.00000  -0.01213   2.07620
   A13        2.09410   0.00251  -0.00059   0.00000  -0.00059   2.09352
   A14        2.09453  -0.00125   0.00029   0.00000   0.00029   2.09483
   A15        2.09455  -0.00126   0.00029   0.00000   0.00029   2.09484
   A16        2.09454  -0.00126   0.00029   0.00000   0.00029   2.09483
   A17        2.10031   0.00274   0.01184   0.00000   0.01184   2.11215
   A18        2.08833  -0.00148  -0.01212   0.00000  -0.01212   2.07620
    D1        0.00000   0.00000   0.00000   0.00000   0.00000   0.00000
    D2        3.14159   0.00000   0.00000   0.00000   0.00000   3.14159
    D3        3.14159  -0.00000   0.00000   0.00000   0.00000   3.14159
    D4        0.00000   0.00000   0.00000   0.00000   0.00000   0.00000
    D5        0.00000  -0.00000   0.00000   0.00000   0.00000   0.00000
    D6        3.14159  -0.00000   0.00000   0.00000   0.00000   3.14159
    D7        3.14159   0.00000   0.00000   0.00000   0.00000   3.14159
    D8        0.00000   0.00000   0.00000   0.00000   0.00000   0.00000
    D9        0.00000  -0.00000   0.00000   0.00000   0.00000   0.00000
   D10        3.14159   0.00000   0.00000   0.00000   0.00000   3.14159
   D11        3.14159  -0.00000   0.00000   0.00000   0.00000   3.14159
   D12        0.00000  -0.00000   0.00000   0.00000   0.00000   0.00000
   D13        0.00000  -0.00000   0.00000   0.00000   0.00000   0.00000
   D14        3.14159   0.00000   0.00000   0.00000   0.00000   3.14159
   D15        3.14159  -0.00000   0.00000   0.00000   0.00000   3.14159
   D16        0.00000  -0.00000   0.00000   0.00000   0.00000   0.00000
   D17        0.00000   0.00000   0.00000   0.00000   0.00000   0.00000
   D18        3.14159   0.00000   0.00000   0.00000   0.00000   3.14159
   D19        3.14159  -0.00000   0.00000   0.00000   0.00000   3.14159
   D20        0.00000   0.00000   0.00000   0.00000   0.00000   0.00000
   D21        0.00000  -0.00000   0.00000   0.00000   0.00000   0.00000
   D22        3.14159   0.00000   0.00000   0.00000   0.00000   3.14159
   D23        3.14159  -0.00000   0.00000   0.00000   0.00000   3.14159
   D24        0.00000  -0.00000   0.00000   0.00000   0.00000   0.00000
         Item               Value     Threshold  Converged?
 Maximum Force            0.066492     0.000450     NO 
 RMS     Force            0.014263     0.000300     NO 
 Maximum Displacement     0.429109     0.001800     NO 
 RMS     Displacement     0.093306     0.001200     NO 
 Predicted change in Energy=-5.864797D-02
 GradGradGradGradGradGradGradGradGradGradGradGradGradGradGradGradGradGrad

                          Input orientation:                          
 ---------------------------------------------------------------------
 Center     Atomic      Atomic             Coordinates (Angstroms)
 Number     Number       Type             X           Y           Z
 ---------------------------------------------------------------------
      1          6           0       -3.161943    0.202233   -0.000000
      2          6           0       -2.010809    0.910379   -0.000000
      3          6           0       -0.822533    0.266496   -0.000000
      4          6           0       -0.783842   -1.141872   -0.000000
      5          6           0       -1.934975   -1.850020   -0.000000
      6          6           0       -3.123254   -1.206138   -0.000000
      7         17           0       -4.559003   -2.124009   -0.000000
      8         17           0       -4.645915    1.039898   -0.000000
      9          1           0       -2.050622    2.359796   -0.000000
     10         17           0        0.613214    1.184368   -0.000000
     11         17           0        0.700129   -1.979537   -0.000000
     12          1           0       -1.895148   -3.299425   -0.000000
 ---------------------------------------------------------------------
                    Distance matrix (angstroms):
                    1          2          3          4          5
     1  C    0.000000
     2  C    1.351510   0.000000
     3  C    2.340293   1.351513   0.000000
     4  C    2.731663   2.391064   1.408899   0.000000
     5  C    2.391066   2.761441   2.391060   1.351511   0.000000
     6  C    1.408903   2.391062   2.731660   2.340294   1.351514
     7  Cl   2.713518   3.962424   4.435733   3.900825   2.638294
     8  Cl   1.704071   2.638287   3.900821   4.435734   3.962427
     9  H    2.426955   1.449963   2.426955   3.723763   4.211404
    10  Cl   3.900821   2.638289   1.704071   2.713514   3.962421
    11  Cl   4.435732   3.962424   2.713514   1.704069   2.638285
    12  H    3.723759   4.211393   3.723747   2.426940   1.449952
                    6          7          8          9         10
     6  C    0.000000
     7  Cl   1.704073   0.000000
     8  Cl   2.713518   3.165101   0.000000
     9  H    3.723765   5.137751   2.911645   0.000000
    10  Cl   4.435731   6.139804   5.261114   2.911642   0.000000
    11  Cl   3.900821   5.261116   6.139803   5.137747   3.165098
    12  H    2.426952   2.911654   5.137748   5.661356   5.137731
                   11         12
    11  Cl   0.000000
    12  H    2.911626   0.000000
 Stoichiometry    C6H2Cl4(1-,2)
 Framework group  CS[SG(C6H2Cl4)]
 Deg. of freedom    21
 Full point group                 CS      NOp   2
 Largest Abelian subgroup         CS      NOp   2
 Largest concise Abelian subgroup C1      NOp   1
                         Standard orientation:                         
 ---------------------------------------------------------------------
 Center     Atomic      Atomic             Coordinates (Angstroms)
 Number     Number       Type             X           Y           Z
 ---------------------------------------------------------------------
      1          6           0       -0.407417   -1.303651   -0.000000
      2          6           0        0.916626   -1.032562   -0.000000
      3          6           0        1.342752    0.250015   -0.000000
      4          6           0        0.407419    1.303651    0.000000
      5          6           0       -0.916625    1.032564    0.000000
      6          6           0       -1.342753   -0.250013    0.000000
      7         17           0       -3.017861   -0.562867    0.000000
      8         17           0       -0.916625   -2.929863   -0.000000
      9          1           0        1.879224   -2.116904   -0.000000
     10         17           0        3.017859    0.562866   -0.000000
     11         17           0        0.916626    2.929862    0.000000
     12          1           0       -1.879205    2.116907    0.000000
 ---------------------------------------------------------------------
 Rotational constants (GHZ):           1.1590274           0.4889322           0.3438712
 Standard basis: VSTO-6G (5D, 7F)
 There are    32 symmetry adapted cartesian basis functions of A'  symmetry.
 There are    10 symmetry adapted cartesian basis functions of A"  symmetry.
 There are    32 symmetry adapted basis functions of A'  symmetry.
 There are    10 symmetry adapted basis functions of A"  symmetry.
    42 basis functions,   252 primitive gaussians,    42 cartesian basis functions
    28 alpha electrons       27 beta electrons
       nuclear repulsion energy       305.3538283483 Hartrees.
 Integral buffers will be    131072 words long.
 Regular integral format.
 Two-electron integral symmetry is turned off.
 Do NDO integrals.
 One-electron integrals computed using PRISM.
 NBasis=    42 RedAO= T EigKep=  1.00D+00  NBF=    32    10
 NBsUse=    42 1.00D-06 EigRej= -1.00D+00 NBFU=    32    10
 Initial guess from the checkpoint file:  "geometry_chks/1245ClBzAnionRadical.chk"
 B after Tr=     0.000000    0.000000    0.000000
         Rot=    0.999984    0.000000    0.000000    0.005593 Ang=   0.64 deg.
 Initial guess orbital symmetries:
 Alpha Orbitals:
       Occupied  (A') (A') (A') (A') (A') (A') (A') (A') (A') (A')
                 (A') (A') (A') (A") (A") (A') (A") (A") (A') (A')
                 (A') (A') (A') (A") (A') (A") (A") (A')
       Virtual   (A') (A") (A") (A') (A') (A') (A') (A") (A') (A')
                 (A') (A') (A') (A')
 Beta  Orbitals:
       Occupied  (A') (A') (A') (A') (A') (A') (A') (A') (A') (A')
                 (A') (A') (A') (A") (A") (A') (A") (A") (A') (A')
                 (A') (A') (A") (A') (A') (A") (A")
       Virtual   (A") (A') (A") (A') (A') (A') (A') (A") (A') (A')
                 (A') (A') (A') (A') (A')
 Initial guess <Sx>= 0.0000 <Sy>= 0.0000 <Sz>= 0.5000 <S**2>= 0.8845 S= 0.5651
 Keep J ints in memory in canonical form, NReq=864594.
 Overlap will be assumed to be unity.
 Requested convergence on RMS density matrix=1.00D-08 within  32 cycles.
 Requested convergence on MAX density matrix=1.00D-06.
 Requested convergence on             energy=1.00D-06.
 No special actions if energy rises.
 Fock symm off for IB=2 I1=    1 I=   33 J=    2 Cut=1.00D-07 Err=1.96D-03
 Fock matrix is not symmetric: symmetry in diagonalization turned off.
 Rare condition: small coef for last iteration:  0.000D+00
 Rare condition: small coef for last iteration:  0.000D+00
 Rare condition: small coef for last iteration:  0.000D+00
 Rare condition: small coef for last iteration:  0.000D+00
 Rare condition: small coef for last iteration:  0.000D+00
 Rare condition: small coef for last iteration:  0.000D+00
 Rare condition: small coef for last iteration:  0.000D+00
 Rare condition: small coef for last iteration:  0.000D+00
 Rare condition: small coef for last iteration:  0.000D+00
 Rare condition: small coef for last iteration:  0.000D+00
 Rare condition: small coef for last iteration:  0.000D+00
 >>>>>>>>>> Convergence criterion not met.
 SCF Done:  E(UAM1) =  0.135368008423     A.U. after   33 cycles
            NFock= 32  Conv=0.28D-04     -V/T= 1.0010
 <Sx>= 0.0000 <Sy>= 0.0000 <Sz>= 0.5000 <S**2>= 0.7881 S= 0.5189
 <L.S>=  0.00000000000    
 Annihilation of the first spin contaminant:
 S**2 before annihilation     0.7881,   after     0.7502
 Keep J ints in memory in canonical form, NReq=864994.
 LinEq1:  Iter=  0 NonCon=     1 RMS=1.91D-04 Max=5.32D-03 NDo=     1
 AX will form     1 AO Fock derivatives at one time.
 LinEq1:  Iter=  1 NonCon=     1 RMS=1.69D-06 Max=1.70D-05 NDo=     1
 LinEq1:  Iter=  2 NonCon=     1 RMS=3.15D-07 Max=2.77D-06 NDo=     1
 LinEq1:  Iter=  3 NonCon=     1 RMS=2.79D-07 Max=7.18D-06 NDo=     1
 LinEq1:  Iter=  4 NonCon=     1 RMS=1.18D-07 Max=1.03D-06 NDo=     1
 LinEq1:  Iter=  5 NonCon=     1 RMS=2.46D-08 Max=2.84D-07 NDo=     1
 LinEq1:  Iter=  6 NonCon=     1 RMS=5.19D-09 Max=5.65D-08 NDo=     1
 LinEq1:  Iter=  7 NonCon=     0 RMS=1.20D-09 Max=1.07D-08 NDo=     1
 Linear equations converged to 2.823D-09 2.823D-08 after     7 iterations.
 Incorrect curvature in search direction -- initial direction reversed.
     Accept linear search using points  3 and  4.
 Gradient too large for Newton-Raphson -- use scaled steepest descent instead.
 LinEq1:  Iter=  0 NonCon=     1 RMS=1.05D-03 Max=2.62D-02 NDo=     1
 LinEq1:  Iter=  1 NonCon=     1 RMS=3.15D-04 Max=3.29D-03 NDo=     1
 LinEq1:  Iter=  2 NonCon=     1 RMS=6.52D-05 Max=1.00D-03 NDo=     1
 LinEq1:  Iter=  3 NonCon=     1 RMS=6.48D-06 Max=5.20D-05 NDo=     1
 LinEq1:  Iter=  4 NonCon=     1 RMS=1.35D-06 Max=1.19D-05 NDo=     1
 LinEq1:  Iter=  5 NonCon=     1 RMS=3.31D-07 Max=2.58D-06 NDo=     1
 LinEq1:  Iter=  6 NonCon=     1 RMS=1.08D-07 Max=1.26D-06 NDo=     1
 LinEq1:  Iter=  7 NonCon=     1 RMS=6.29D-08 Max=1.34D-06 NDo=     1
 LinEq1:  Iter=  8 NonCon=     1 RMS=1.95D-08 Max=2.12D-07 NDo=     1
 LinEq1:  Iter=  9 NonCon=     1 RMS=4.72D-09 Max=5.92D-08 NDo=     1
 LinEq1:  Iter= 10 NonCon=     0 RMS=1.80D-09 Max=1.61D-08 NDo=     1
 Linear equations converged to 2.823D-09 2.823D-08 after    10 iterations.
 Incorrect curvature in search direction -- initial direction reversed.
     Minimum is close to point  4 DX=  9.65D-03 DF= -5.11D-07 DXR=  4.80D-03 DFR=  5.72D-05 which will be used.
 Gradient too large for Newton-Raphson -- use scaled steepest descent instead.
     Minimum is close to point  3 DX=  7.24D-02 DF= -4.77D-06 DXR=  4.92D-02 DFR=  2.42D-03 which will be used.
 Gradient too large for Newton-Raphson -- use scaled steepest descent instead.
     Accept linear search using points  2 and  3.
     Minimum is close to point  3 DX= -2.03D-01 DF= -3.38D-06 DXR=  7.25D-02 DFR=  6.81D-03 which will be used.
 LinEq1:  Iter=  0 NonCon=     1 RMS=5.49D-04 Max=6.20D-03 NDo=     1
 LinEq1:  Iter=  1 NonCon=     1 RMS=1.75D-04 Max=3.01D-03 NDo=     1
 LinEq1:  Iter=  2 NonCon=     1 RMS=2.95D-05 Max=3.48D-04 NDo=     1
 LinEq1:  Iter=  3 NonCon=     1 RMS=1.26D-05 Max=2.09D-04 NDo=     1
 LinEq1:  Iter=  4 NonCon=     1 RMS=7.55D-06 Max=1.09D-04 NDo=     1
 LinEq1:  Iter=  5 NonCon=     1 RMS=2.99D-06 Max=3.16D-05 NDo=     1
 LinEq1:  Iter=  6 NonCon=     1 RMS=8.93D-07 Max=1.06D-05 NDo=     1
 LinEq1:  Iter=  7 NonCon=     1 RMS=1.51D-07 Max=1.37D-06 NDo=     1
 LinEq1:  Iter=  8 NonCon=     1 RMS=4.80D-08 Max=3.93D-07 NDo=     1
 LinEq1:  Iter=  9 NonCon=     1 RMS=1.60D-08 Max=2.05D-07 NDo=     1
 LinEq1:  Iter= 10 NonCon=     1 RMS=6.36D-09 Max=8.51D-08 NDo=     1
 LinEq1:  Iter= 11 NonCon=     0 RMS=1.49D-09 Max=1.36D-08 NDo=     1
 Linear equations converged to 2.823D-09 2.823D-08 after    11 iterations.
     Accept linear search using points  1 and  2.
     Minimum is close to point  2 DX= -5.90D-04 DF= -9.58D-11 DXR=  5.90D-04 DFR=  3.48D-07 which will be used.
 LinEq1:  Iter=  0 NonCon=     1 RMS=1.02D-05 Max=1.17D-04 NDo=     1
 LinEq1:  Iter=  1 NonCon=     1 RMS=2.32D-06 Max=2.76D-05 NDo=     1
 LinEq1:  Iter=  2 NonCon=     1 RMS=7.91D-07 Max=1.00D-05 NDo=     1
 LinEq1:  Iter=  3 NonCon=     1 RMS=4.65D-07 Max=7.41D-06 NDo=     1
 LinEq1:  Iter=  4 NonCon=     1 RMS=2.70D-07 Max=4.29D-06 NDo=     1
 LinEq1:  Iter=  5 NonCon=     1 RMS=1.12D-07 Max=1.44D-06 NDo=     1
 LinEq1:  Iter=  6 NonCon=     1 RMS=4.09D-08 Max=3.73D-07 NDo=     1
 LinEq1:  Iter=  7 NonCon=     1 RMS=1.23D-08 Max=1.45D-07 NDo=     1
 LinEq1:  Iter=  8 NonCon=     1 RMS=4.40D-09 Max=6.93D-08 NDo=     1
 LinEq1:  Iter=  9 NonCon=     1 RMS=1.73D-09 Max=2.36D-08 NDo=     1
 LinEq1:  Iter= 10 NonCon=     0 RMS=5.93D-10 Max=7.11D-09 NDo=     1
 Linear equations converged to 1.830D-09 1.830D-08 after    10 iterations.
     Accept linear search using points  1 and  2.
     Minimum is close to point  2 DX= -4.80D-02 DF= -1.95D-10 DXR=  5.05D-02 DFR=  2.55D-03 which will be used.
 LinEq1:  Iter=  0 NonCon=     1 RMS=3.49D-06 Max=4.19D-05 NDo=     1
 LinEq1:  Iter=  1 NonCon=     1 RMS=1.85D-06 Max=2.99D-05 NDo=     1
 LinEq1:  Iter=  2 NonCon=     1 RMS=5.88D-07 Max=6.22D-06 NDo=     1
 LinEq1:  Iter=  3 NonCon=     1 RMS=2.57D-07 Max=3.92D-06 NDo=     1
 LinEq1:  Iter=  4 NonCon=     1 RMS=8.74D-08 Max=7.93D-07 NDo=     1
 LinEq1:  Iter=  5 NonCon=     1 RMS=3.02D-08 Max=4.69D-07 NDo=     1
 LinEq1:  Iter=  6 NonCon=     1 RMS=1.04D-08 Max=9.69D-08 NDo=     1
 LinEq1:  Iter=  7 NonCon=     1 RMS=4.96D-09 Max=8.40D-08 NDo=     1
 LinEq1:  Iter=  8 NonCon=     1 RMS=3.41D-09 Max=5.80D-08 NDo=     1
 LinEq1:  Iter=  9 NonCon=     1 RMS=1.56D-09 Max=1.88D-08 NDo=     1
 LinEq1:  Iter= 10 NonCon=     0 RMS=3.63D-10 Max=5.12D-09 NDo=     1
 Linear equations converged to 5.264D-10 5.264D-09 after    10 iterations.
 LinEq1:  Iter=  0 NonCon=     1 RMS=8.70D-07 Max=1.23D-05 NDo=     1
 LinEq1:  Iter=  1 NonCon=     1 RMS=2.72D-07 Max=4.79D-06 NDo=     1
 LinEq1:  Iter=  2 NonCon=     1 RMS=1.22D-07 Max=1.57D-06 NDo=     1
 LinEq1:  Iter=  3 NonCon=     1 RMS=8.26D-08 Max=1.12D-06 NDo=     1
 LinEq1:  Iter=  4 NonCon=     1 RMS=3.78D-08 Max=5.95D-07 NDo=     1
 LinEq1:  Iter=  5 NonCon=     1 RMS=1.65D-08 Max=2.02D-07 NDo=     1
 LinEq1:  Iter=  6 NonCon=     1 RMS=5.81D-09 Max=7.30D-08 NDo=     1
 LinEq1:  Iter=  7 NonCon=     1 RMS=2.01D-09 Max=2.40D-08 NDo=     1
 LinEq1:  Iter=  8 NonCon=     1 RMS=7.53D-10 Max=9.93D-09 NDo=     1
 LinEq1:  Iter=  9 NonCon=     1 RMS=2.78D-10 Max=4.53D-09 NDo=     1
 LinEq1:  Iter= 10 NonCon=     0 RMS=1.07D-10 Max=9.86D-10 NDo=     1
 Linear equations converged to 1.674D-10 1.674D-09 after    10 iterations.
 LinEq1:  Iter=  0 NonCon=     1 RMS=8.59D-07 Max=1.19D-05 NDo=     1
 LinEq1:  Iter=  1 NonCon=     1 RMS=2.71D-07 Max=4.63D-06 NDo=     1
 LinEq1:  Iter=  2 NonCon=     1 RMS=1.22D-07 Max=1.53D-06 NDo=     1
 LinEq1:  Iter=  3 NonCon=     1 RMS=8.14D-08 Max=1.08D-06 NDo=     1
 LinEq1:  Iter=  4 NonCon=     1 RMS=3.75D-08 Max=5.85D-07 NDo=     1
 LinEq1:  Iter=  5 NonCon=     1 RMS=1.63D-08 Max=2.08D-07 NDo=     1
 LinEq1:  Iter=  6 NonCon=     1 RMS=6.37D-09 Max=7.48D-08 NDo=     1
 LinEq1:  Iter=  7 NonCon=     1 RMS=2.51D-09 Max=3.25D-08 NDo=     1
 LinEq1:  Iter=  8 NonCon=     1 RMS=8.01D-10 Max=7.80D-09 NDo=     1
 LinEq1:  Iter=  9 NonCon=     1 RMS=2.31D-10 Max=3.66D-09 NDo=     1
 LinEq1:  Iter= 10 NonCon=     0 RMS=9.77D-11 Max=8.66D-10 NDo=     1
 Linear equations converged to 1.692D-10 1.692D-09 after    10 iterations.
 LinEq1:  Iter=  0 NonCon=     1 RMS=5.26D-07 Max=4.66D-06 NDo=     1
 LinEq1:  Iter=  1 NonCon=     1 RMS=3.00D-07 Max=5.55D-06 NDo=     1
 LinEq1:  Iter=  2 NonCon=     1 RMS=9.01D-08 Max=8.03D-07 NDo=     1
 LinEq1:  Iter=  3 NonCon=     1 RMS=4.28D-08 Max=4.78D-07 NDo=     1
 LinEq1:  Iter=  4 NonCon=     1 RMS=1.84D-08 Max=2.56D-07 NDo=     1
 LinEq1:  Iter=  5 NonCon=     1 RMS=7.18D-09 Max=9.28D-08 NDo=     1
 LinEq1:  Iter=  6 NonCon=     1 RMS=3.51D-09 Max=3.76D-08 NDo=     1
 LinEq1:  Iter=  7 NonCon=     1 RMS=1.41D-09 Max=2.69D-08 NDo=     1
 LinEq1:  Iter=  8 NonCon=     1 RMS=7.63D-10 Max=1.20D-08 NDo=     1
 LinEq1:  Iter=  9 NonCon=     1 RMS=2.45D-10 Max=3.07D-09 NDo=     1
 LinEq1:  Iter= 10 NonCon=     0 RMS=7.51D-11 Max=7.35D-10 NDo=     1
 Linear equations converged to 8.808D-11 8.808D-10 after    10 iterations.
 LinEq1:  Iter=  0 NonCon=     1 RMS=1.57D-07 Max=1.54D-06 NDo=     1
 LinEq1:  Iter=  1 NonCon=     1 RMS=8.76D-08 Max=1.73D-06 NDo=     1
 LinEq1:  Iter=  2 NonCon=     1 RMS=3.49D-08 Max=3.20D-07 NDo=     1
 LinEq1:  Iter=  3 NonCon=     1 RMS=1.61D-08 Max=2.35D-07 NDo=     1
 LinEq1:  Iter=  4 NonCon=     1 RMS=9.22D-09 Max=1.64D-07 NDo=     1
 LinEq1:  Iter=  5 NonCon=     1 RMS=3.75D-09 Max=3.91D-08 NDo=     1
 LinEq1:  Iter=  6 NonCon=     1 RMS=1.36D-09 Max=1.54D-08 NDo=     1
 LinEq1:  Iter=  7 NonCon=     1 RMS=6.12D-10 Max=8.48D-09 NDo=     1
 LinEq1:  Iter=  8 NonCon=     1 RMS=2.62D-10 Max=3.54D-09 NDo=     1
 LinEq1:  Iter=  9 NonCon=     1 RMS=7.86D-11 Max=1.18D-09 NDo=     1
 LinEq1:  Iter= 10 NonCon=     0 RMS=2.41D-11 Max=2.39D-10 NDo=     1
 Linear equations converged to 2.727D-11 2.727D-10 after    10 iterations.
 LinEq1:  Iter=  0 NonCon=     1 RMS=2.43D-08 Max=2.41D-07 NDo=     1
 LinEq1:  Iter=  1 NonCon=     1 RMS=1.00D-08 Max=1.78D-07 NDo=     1
 LinEq1:  Iter=  2 NonCon=     1 RMS=3.20D-09 Max=2.99D-08 NDo=     1
 LinEq1:  Iter=  3 NonCon=     1 RMS=1.08D-09 Max=1.36D-08 NDo=     1
 LinEq1:  Iter=  4 NonCon=     1 RMS=5.59D-10 Max=6.70D-09 NDo=     1
 LinEq1:  Iter=  5 NonCon=     1 RMS=2.75D-10 Max=2.57D-09 NDo=     1
 LinEq1:  Iter=  6 NonCon=     1 RMS=1.05D-10 Max=1.25D-09 NDo=     1
 LinEq1:  Iter=  7 NonCon=     1 RMS=5.05D-11 Max=9.80D-10 NDo=     1
 LinEq1:  Iter=  8 NonCon=     1 RMS=2.99D-11 Max=3.42D-10 NDo=     1
 LinEq1:  Iter=  9 NonCon=     1 RMS=1.07D-11 Max=1.19D-10 NDo=     1
 LinEq1:  Iter= 10 NonCon=     0 RMS=3.98D-12 Max=3.58D-11 NDo=     1
 Linear equations converged to 4.405D-12 4.405D-11 after    10 iterations.
 SCF Done:  E(UAM1) =  0.121067342747     a.u. after   14 cycles
            Convg  =    0.2117D-06                   129 Fock formations.
              S**2 =  0.7550                  -V/T =  1.0009
 <Sx>= 0.0000 <Sy>= 0.0000 <Sz>= 0.5000 <S**2>= 0.7550 S= 0.5025
 <L.S>=  0.00000000000    
 Annihilation of the first spin contaminant:
 S**2 before annihilation     0.7550,   after     0.7500
 Calling FoFJK, ICntrl=      2127 FMM=F ISym2X=1 I1Cent= 0 IOpClX= 1 NMat=1 NMatS=1 NMatT=0.
 ***** Axes restored to original set *****
 -------------------------------------------------------------------
 Center     Atomic                   Forces (Hartrees/Bohr)
 Number     Number              X              Y              Z
 -------------------------------------------------------------------
      1        6          -0.038908572   -0.018034790   -0.000000000
      2        6          -0.003934526    0.143343012   -0.000000000
      3        6           0.039838013   -0.015865997    0.000000000
      4        6           0.038906234    0.018032470    0.000000000
      5        6           0.003933931   -0.143340933   -0.000000000
      6        6          -0.039835818    0.015868682    0.000000000
      7       17          -0.023280806   -0.013146110   -0.000000000
      8       17          -0.023967424    0.011847982   -0.000000000
      9        1           0.003130981   -0.113988344    0.000000000
     10       17           0.023280543    0.013146103   -0.000000000
     11       17           0.023970194   -0.011849367   -0.000000000
     12        1          -0.003132750    0.113987292    0.000000000
 -------------------------------------------------------------------
 Cartesian Forces:  Max     0.143343012 RMS     0.046351846

 GradGradGradGradGradGradGradGradGradGradGradGradGradGradGradGradGradGrad
 Berny optimization.
 Using GEDIIS/GDIIS optimizer.
 FormGI is forming the generalized inverse of G from B-inverse, IUseBI=4.
 Internal  Forces:  Max     0.114031337 RMS     0.029281466
 Search for a local minimum.
 Step number   3 out of a maximum of   64
 All quantities printed in internal units (Hartrees-Bohrs-Radians)
 Mixed Optimization -- RFO/linear search
 Update second derivatives using D2CorX and points    2    3
 ITU=  0  1  0
 Use linear search instead of GDIIS.
     Eigenvalues ---  -11.78944   0.00018   0.02011   0.02011   0.02011
     Eigenvalues ---    0.02011   0.02011   0.02011   0.02011   0.02011
     Eigenvalues ---    0.02011   0.06524   0.16000   0.16000   0.22928
     Eigenvalues ---    0.23951   0.25000   0.25000   0.25000   0.25000
     Eigenvalues ---    0.25070   0.29033   0.29033   0.29033   0.33943
     Eigenvalues ---    0.40818   0.40978   0.44612   0.44657   0.44657
 RFO step:  Lambda=-1.17924327D+01 EMin=-1.17894374D+01
 I=     1 Eig=   -1.18D+01 Dot1=  1.13D-01
 I=     1 Stepn=  6.00D-01 RXN=   6.00D-01 EDone=F
 Mixed    1 eigenvectors in step.  Raw Step.Grad=  1.13D-01.
 RFO eigenvector is Hessian eigenvector with negative curvature.
 Taking step of  6.00D-01 in eigenvector direction(s).  Step.Grad= -4.55D-02.
 Skip linear search -- no minimum in search direction.
 Maximum step size (   0.505) exceeded in Quadratic search.
    -- Step size not scaled.
 Iteration  1 RMS(Cart)=  0.11174977 RMS(Int)=  0.00834302
 Iteration  2 RMS(Cart)=  0.01158438 RMS(Int)=  0.00001367
 Iteration  3 RMS(Cart)=  0.00001826 RMS(Int)=  0.00000012
 Iteration  4 RMS(Cart)=  0.00000000 RMS(Int)=  0.00000012
 ClnCor:  largest displacement from symmetrization is 1.01D-09 for atom    12.
 Variable       Old X    -DE/DX   Delta X   Delta X   Delta X     New X
                                 (Linear)    (Quad)   (Total)
    R1        2.55398   0.06191   0.00000   0.23125   0.23125   2.78524
    R2        2.66244   0.01023   0.00000   0.01204   0.01204   2.67448
    R3        3.22023   0.02670   0.00000   0.14550   0.14550   3.36573
    R4        2.55399   0.06191   0.00000   0.23124   0.23124   2.78523
    R5        2.74003  -0.11403   0.00000  -0.15036  -0.15036   2.58968
    R6        2.66243   0.01023   0.00000   0.01205   0.01205   2.67448
    R7        3.22023   0.02670   0.00000   0.14549   0.14549   3.36572
    R8        2.55399   0.06191   0.00000   0.23127   0.23127   2.78525
    R9        3.22022   0.02670   0.00000   0.14551   0.14551   3.36573
   R10        2.55399   0.06191   0.00000   0.23123   0.23123   2.78522
   R11        2.74001  -0.11403   0.00000  -0.15035  -0.15035   2.58966
   R12        3.22023   0.02670   0.00000   0.14550   0.14550   3.36573
    A1        2.09483  -0.01016   0.00000  -0.02816  -0.02816   2.06668
    A2        2.07620   0.00744   0.00000   0.02841   0.02841   2.10461
    A3        2.11215   0.00272   0.00000  -0.00025  -0.00025   2.11190
    A4        2.09352   0.02032   0.00000   0.05631   0.05631   2.14983
    A5        2.09484  -0.01016   0.00000  -0.02816  -0.02816   2.06668
    A6        2.09483  -0.01016   0.00000  -0.02816  -0.02816   2.06668
    A7        2.09484  -0.01016   0.00000  -0.02816  -0.02816   2.06668
    A8        2.07620   0.00744   0.00000   0.02841   0.02841   2.10461
    A9        2.11215   0.00272   0.00000  -0.00025  -0.00025   2.11190
   A10        2.09483  -0.01016   0.00000  -0.02816  -0.02816   2.06667
   A11        2.11215   0.00272   0.00000  -0.00025  -0.00025   2.11190
   A12        2.07620   0.00744   0.00000   0.02841   0.02841   2.10461
   A13        2.09352   0.02032   0.00000   0.05632   0.05632   2.14983
   A14        2.09483  -0.01016   0.00000  -0.02816  -0.02816   2.06667
   A15        2.09484  -0.01016   0.00000  -0.02816  -0.02816   2.06668
   A16        2.09483  -0.01016   0.00000  -0.02815  -0.02815   2.06668
   A17        2.11215   0.00272   0.00000  -0.00025  -0.00025   2.11190
   A18        2.07620   0.00744   0.00000   0.02840   0.02840   2.10461
    D1       -0.00000   0.00000   0.00000  -0.00000   0.00000   0.00000
    D2        3.14159   0.00000   0.00000  -0.00000   0.00000   3.14159
    D3        3.14159   0.00000   0.00000   0.00000   0.00000   3.14159
    D4       -0.00000   0.00000   0.00000  -0.00000   0.00000   0.00000
    D5        0.00000   0.00000   0.00000   0.00000  -0.00000   0.00000
    D6        3.14159  -0.00000   0.00000   0.00000   0.00000   3.14159
    D7        3.14159   0.00000   0.00000  -0.00000   0.00000   3.14159
    D8       -0.00000   0.00000   0.00000  -0.00000   0.00000   0.00000
    D9       -0.00000  -0.00000   0.00000  -0.00000   0.00000   0.00000
   D10        3.14159  -0.00000   0.00000  -0.00000   0.00000   3.14159
   D11        3.14159  -0.00000   0.00000   0.00000   0.00000   3.14159
   D12        0.00000  -0.00000   0.00000   0.00000   0.00000   0.00000
   D13        0.00000  -0.00000   0.00000   0.00000   0.00000   0.00000
   D14        3.14159   0.00000   0.00000  -0.00000   0.00000   3.14159
   D15        3.14159  -0.00000   0.00000   0.00000   0.00000   3.14159
   D16        0.00000  -0.00000   0.00000   0.00000   0.00000   0.00000
   D17        0.00000   0.00000   0.00000  -0.00000   0.00000   0.00000
   D18        3.14159   0.00000   0.00000  -0.00000   0.00000   3.14159
   D19        3.14159   0.00000   0.00000   0.00000   0.00000   3.14159
   D20       -0.00000   0.00000   0.00000   0.00000   0.00000   0.00000
   D21       -0.00000  -0.00000   0.00000  -0.00000   0.00000   0.00000
   D22        3.14159  -0.00000   0.00000  -0.00000   0.00000   3.14159
   D23        3.14159  -0.00000   0.00000   0.00000   0.00000   3.14159
   D24        0.00000  -0.00000   0.00000  -0.00000   0.00000   0.00000
         Item               Value     Threshold  Converged?
 Maximum Force            0.114031     0.000450     NO 
 RMS     Force            0.029281     0.000300     NO 
 Maximum Displacement     0.365701     0.001800     NO 
 RMS     Displacement     0.122237     0.001200     NO 
 Predicted change in Energy=-2.234859D+00
 GradGradGradGradGradGradGradGradGradGradGradGradGradGradGradGradGradGrad

                          Input orientation:                          
 ---------------------------------------------------------------------
 Center     Atomic      Atomic             Coordinates (Angstroms)
 Number     Number       Type             X           Y           Z
 ---------------------------------------------------------------------
      1          6           0       -3.288188    0.201949   -0.000000
      2          6           0       -2.011581    0.938569    0.000000
      3          6           0       -0.696457    0.273151    0.000000
      4          6           0       -0.657592   -1.141590    0.000000
      5          6           0       -1.934209   -1.878207   -0.000000
      6          6           0       -3.249322   -1.212790   -0.000000
      7         17           0       -4.750179   -2.171759   -0.000000
      8         17           0       -4.839432    1.077074   -0.000000
      9          1           0       -2.049212    2.308450    0.000000
     10         17           0        0.804397    1.232122    0.000000
     11         17           0        0.893650   -2.016721    0.000000
     12          1           0       -1.896574   -3.248078   -0.000000
 ---------------------------------------------------------------------
                    Distance matrix (angstroms):
                    1          2          3          4          5
     1  C    0.000000
     2  C    1.473884   0.000000
     3  C    2.592708   1.473882   0.000000
     4  C    2.953834   2.482005   1.415275   0.000000
     5  C    2.481997   2.817838   2.482010   1.473891   0.000000
     6  C    1.415272   2.482005   2.953834   2.592708   1.473873
     7  Cl   2.787814   4.144160   4.733946   4.220251   2.831230
     8  Cl   1.781068   2.831242   4.220253   4.733948   4.144154
     9  H    2.443851   1.370398   2.443847   3.720132   4.188236
    10  Cl   4.220249   2.831237   1.781064   2.787816   4.144165
    11  Cl   4.733947   4.144164   2.787822   1.781068   2.831249
    12  H    3.720117   4.188226   3.720125   2.443843   1.370387
                    6          7          8          9         10
     6  C    0.000000
     7  Cl   1.781065   0.000000
     8  Cl   2.787817   3.250058   0.000000
     9  H    3.720133   5.231395   3.049855   0.000000
    10  Cl   4.733944   6.514577   5.645959   3.049847   0.000000
    11  Cl   4.220251   5.645958   6.514583   5.231399   3.250068
    12  H    2.443834   3.049840   5.231381   5.558624   5.231389
                   11         12
    11  Cl   0.000000
    12  H    3.049851   0.000000
 Stoichiometry    C6H2Cl4(1-,2)
 Framework group  CS[SG(C6H2Cl4)]
 Deg. of freedom    21
 Full point group                 CS      NOp   2
 Largest Abelian subgroup         CS      NOp   2
 Largest concise Abelian subgroup C1      NOp   1
                         Standard orientation:                         
 ---------------------------------------------------------------------
 Center     Atomic      Atomic             Coordinates (Angstroms)
 Number     Number       Type             X           Y           Z
 ---------------------------------------------------------------------
      1          6           0       -1.296352   -0.707636    0.000000
      2          6           0        0.000002   -1.408920    0.000000
      3          6           0        1.296356   -0.707638    0.000000
      4          6           0        1.296356    0.707637    0.000000
      5          6           0       -0.000009    1.408918    0.000000
      6          6           0       -1.296352    0.707636    0.000000
      7         17           0       -2.822979    1.625027    0.000000
      8         17           0       -2.822980   -1.625031    0.000000
      9          1           0        0.000004   -2.779318    0.000000
     10         17           0        2.822979   -1.625031    0.000000
     11         17           0        2.822979    1.625037    0.000000
     12          1           0       -0.000008    2.779305    0.000000
 ---------------------------------------------------------------------
 Rotational constants (GHZ):           1.1067821           0.4227831           0.3059227
 Standard basis: VSTO-6G (5D, 7F)
 There are    32 symmetry adapted cartesian basis functions of A'  symmetry.
 There are    10 symmetry adapted cartesian basis functions of A"  symmetry.
 There are    32 symmetry adapted basis functions of A'  symmetry.
 There are    10 symmetry adapted basis functions of A"  symmetry.
    42 basis functions,   252 primitive gaussians,    42 cartesian basis functions
    28 alpha electrons       27 beta electrons
       nuclear repulsion energy       295.8710429912 Hartrees.
 Integral buffers will be    131072 words long.
 Regular integral format.
 Two-electron integral symmetry is turned off.
 Do NDO integrals.
 One-electron integrals computed using PRISM.
 NBasis=    42 RedAO= T EigKep=  1.00D+00  NBF=    32    10
 NBsUse=    42 1.00D-06 EigRej= -1.00D+00 NBFU=    32    10
 Initial guess from the checkpoint file:  "geometry_chks/1245ClBzAnionRadical.chk"
 B after Tr=    -0.000000   -0.000000   -0.000000
         Rot=    0.934838   -0.000000   -0.000000    0.355075 Ang=  41.60 deg.
 Initial guess orbital symmetries:
 Alpha Orbitals:
       Occupied  (A') (A') (A') (A') (A') (A') (A') (A') (A') (A')
                 (A') (A') (A') (A") (A') (A") (A') (A") (A') (A")
                 (A') (A') (A') (A') (A") (A") (A") (A')
       Virtual   (A") (A') (A') (A") (A') (A') (A') (A") (A') (A')
                 (A') (A') (A') (A')
 Beta  Orbitals:
       Occupied  (A') (A') (A') (A') (A') (A') (A') (A') (A') (A')
                 (A') (A') (A") (A') (A') (A") (A') (A") (A') (A")
                 (A') (A') (A') (A') (A") (A") (A")
       Virtual   (A") (A") (A') (A') (A') (A') (A') (A') (A") (A')
                 (A') (A') (A') (A') (A')
 Initial guess <Sx>= 0.0000 <Sy>= 0.0000 <Sz>= 0.5000 <S**2>= 0.7550 S= 0.5025
 Keep J ints in memory in canonical form, NReq=864594.
 Overlap will be assumed to be unity.
 Requested convergence on RMS density matrix=1.00D-08 within  32 cycles.
 Requested convergence on MAX density matrix=1.00D-06.
 Requested convergence on             energy=1.00D-06.
 No special actions if energy rises.
 Fock symm off for IB=2 I1=    1 I=   33 J=    2 Cut=1.00D-07 Err=3.44D-03
 Fock matrix is not symmetric: symmetry in diagonalization turned off.
 SCF Done:  E(UAM1) =  0.107441606745     A.U. after   30 cycles
            NFock= 29  Conv=0.96D-08     -V/T= 1.0008
 <Sx>= 0.0000 <Sy>= 0.0000 <Sz>= 0.5000 <S**2>= 0.7571 S= 0.5035
 <L.S>=  0.00000000000    
 Annihilation of the first spin contaminant:
 S**2 before annihilation     0.7571,   after     0.7500
 QCSCF skips out because SCF is already converged.
 Calling FoFJK, ICntrl=      2127 FMM=F ISym2X=1 I1Cent= 0 IOpClX= 1 NMat=1 NMatS=1 NMatT=0.
 ***** Axes restored to original set *****
 -------------------------------------------------------------------
 Center     Atomic                   Forces (Hartrees/Bohr)
 Number     Number              X              Y              Z
 -------------------------------------------------------------------
      1        6           0.061502712    0.017918441   -0.000000000
      2        6          -0.000821917    0.029841217    0.000000000
      3        6          -0.062391845    0.014506258    0.000000000
      4        6          -0.061504770   -0.017913052    0.000000000
      5        6           0.000828746   -0.029841268    0.000000000
      6        6           0.062389144   -0.014510543    0.000000000
      7       17           0.019735612    0.008579516   -0.000000000
      8       17           0.020177815   -0.007483577   -0.000000000
      9        1           0.002925886   -0.106514899    0.000000000
     10       17          -0.019735695   -0.008579741   -0.000000000
     11       17          -0.020179489    0.007484604   -0.000000000
     12        1          -0.002926200    0.106513044    0.000000000
 -------------------------------------------------------------------
 Cartesian Forces:  Max     0.106514899 RMS     0.034462553

 GradGradGradGradGradGradGradGradGradGradGradGradGradGradGradGradGradGrad
 Berny optimization.
 Using GEDIIS/GDIIS optimizer.
 FormGI is forming the generalized inverse of G from B-inverse, IUseBI=4.
 Internal  Forces:  Max     0.106555078 RMS     0.033136207
 Search for a local minimum.
 Step number   4 out of a maximum of   64
 All quantities printed in internal units (Hartrees-Bohrs-Radians)
 Mixed Optimization -- RFO/linear search
 Update second derivatives using D2CorX and points    3    4
 ITU=  0  0  1  0
 Use linear search instead of GDIIS.
     Eigenvalues ---    0.00016   0.02011   0.02011   0.02011   0.02011
     Eigenvalues ---    0.02011   0.02011   0.02011   0.02011   0.02011
     Eigenvalues ---    0.06524   0.16000   0.16000   0.22917   0.23973
     Eigenvalues ---    0.25000   0.25000   0.25000   0.25000   0.25060
     Eigenvalues ---    0.28346   0.29033   0.29033   0.29033   0.40809
     Eigenvalues ---    0.41636   0.43007   0.44657   0.44657   0.67799
 RFO step:  Lambda=-1.50432197D-01 EMin= 1.59892699D-04
 Quartic linear search produced a step of -0.44952.
 Maximum step size (   0.505) exceeded in Quadratic search.
    -- Step size scaled by   0.512
 Iteration  1 RMS(Cart)=  0.08265032 RMS(Int)=  0.01637223
[...]
    D1       -0.00000   0.00000   0.00000  -0.00000   0.00000   0.00000
    D2        3.14159   0.00000   0.00000  -0.00000   0.00000   3.14159
    D3        3.14159  -0.00000   0.00000   0.00000   0.00000   3.14159
    D4        0.00000   0.00000   0.00000   0.00000   0.00000   0.00000
    D5        0.00000   0.00000   0.00000   0.00000   0.00000   0.00000
    D6        3.14159  -0.00000   0.00000   0.00000   0.00000   3.14159
    D7        3.14159   0.00000   0.00000  -0.00000   0.00000   3.14159
    D8       -0.00000  -0.00000   0.00000  -0.00000   0.00000   0.00000
    D9        0.00000  -0.00000   0.00000   0.00000  -0.00000   0.00000
   D10        3.14159   0.00000   0.00000   0.00000   0.00000   3.14159
   D11        3.14159  -0.00000   0.00000   0.00000   0.00000   3.14159
   D12       -0.00000   0.00000   0.00000   0.00000   0.00000   0.00000
   D13        0.00000   0.00000   0.00000   0.00000   0.00000   0.00000
   D14        3.14159   0.00000   0.00000   0.00000   0.00000   3.14159
   D15        3.14159  -0.00000   0.00000  -0.00000   0.00000   3.14159
   D16        0.00000   0.00000   0.00000  -0.00000  -0.00000   0.00000
   D17       -0.00000   0.00000   0.00000  -0.00000   0.00000   0.00000
   D18        3.14159   0.00000   0.00000  -0.00000   0.00000   3.14159
   D19        3.14159  -0.00000   0.00000  -0.00000   0.00000   3.14159
   D20        0.00000  -0.00000   0.00000  -0.00000   0.00000   0.00000
   D21       -0.00000  -0.00000   0.00000   0.00000   0.00000   0.00000
   D22        3.14159   0.00000   0.00000  -0.00000   0.00000   3.14159
   D23        3.14159  -0.00000   0.00000   0.00000   0.00000   3.14159
   D24       -0.00000   0.00000   0.00000  -0.00000   0.00000   0.00000
         Item               Value     Threshold  Converged?
 Maximum Force            0.000082     0.000450     YES
 RMS     Force            0.000030     0.000300     YES
 Maximum Displacement     0.000519     0.001800     YES
 RMS     Displacement     0.000124     0.001200     YES
 Predicted change in Energy=-6.783988D-08
 Optimization completed.
    -- Stationary point found.
                           ----------------------------
                           !   Optimized Parameters   !
                           ! (Angstroms and Degrees)  !
 --------------------------                            --------------------------
 ! Name  Definition              Value          Derivative Info.                !
 --------------------------------------------------------------------------------
 ! R1    R(1,2)                  1.3913         -DE/DX =    0.0001              !
 ! R2    R(1,6)                  1.4255         -DE/DX =    0.0                 !
 ! R3    R(1,8)                  1.7105         -DE/DX =    0.0001              !
 ! R4    R(2,3)                  1.3913         -DE/DX =    0.0001              !
 ! R5    R(2,9)                  1.1004         -DE/DX =    0.0                 !
 ! R6    R(3,4)                  1.4255         -DE/DX =    0.0                 !
 ! R7    R(3,10)                 1.7105         -DE/DX =    0.0001              !
 ! R8    R(4,5)                  1.3913         -DE/DX =    0.0001              !
 ! R9    R(4,11)                 1.7106         -DE/DX =    0.0                 !
 ! R10   R(5,6)                  1.3913         -DE/DX =    0.0001              !
 ! R11   R(5,12)                 1.1004         -DE/DX =    0.0                 !
 ! R12   R(6,7)                  1.7106         -DE/DX =    0.0                 !
 ! A1    A(2,1,6)              119.8575         -DE/DX =    0.0                 !
 ! A2    A(2,1,8)              119.3194         -DE/DX =    0.0                 !
 ! A3    A(6,1,8)              120.8231         -DE/DX =    0.0                 !
 ! A4    A(1,2,3)              120.2924         -DE/DX =    0.0001              !
 ! A5    A(1,2,9)              119.8537         -DE/DX =    0.0                 !
 ! A6    A(3,2,9)              119.8539         -DE/DX =    0.0                 !
 ! A7    A(2,3,4)              119.858          -DE/DX =   -0.0001              !
 ! A8    A(2,3,10)             119.3193         -DE/DX =    0.0                 !
 ! A9    A(4,3,10)             120.8227         -DE/DX =    0.0                 !
 ! A10   A(3,4,5)              119.8414         -DE/DX =    0.0                 !
 ! A11   A(3,4,11)             120.8289         -DE/DX =    0.0                 !
 ! A12   A(5,4,11)             119.3296         -DE/DX =    0.0                 !
 ! A13   A(4,5,6)              120.3088         -DE/DX =    0.0                 !
 ! A14   A(4,5,12)             119.8454         -DE/DX =    0.0                 !
 ! A15   A(6,5,12)             119.8457         -DE/DX =    0.0                 !
 ! A16   A(1,6,5)              119.8418         -DE/DX =    0.0                 !
 ! A17   A(1,6,7)              120.8287         -DE/DX =    0.0                 !
 ! A18   A(5,6,7)              119.3295         -DE/DX =    0.0                 !
 ! D1    D(6,1,2,3)              0.0            -DE/DX =    0.0                 !
 ! D2    D(6,1,2,9)            180.0            -DE/DX =    0.0                 !
 ! D3    D(8,1,2,3)            180.0            -DE/DX =    0.0                 !
 ! D4    D(8,1,2,9)              0.0            -DE/DX =    0.0                 !
 ! D5    D(2,1,6,5)              0.0            -DE/DX =    0.0                 !
 ! D6    D(2,1,6,7)            180.0            -DE/DX =    0.0                 !
 ! D7    D(8,1,6,5)            180.0            -DE/DX =    0.0                 !
 ! D8    D(8,1,6,7)              0.0            -DE/DX =    0.0                 !
 ! D9    D(1,2,3,4)              0.0            -DE/DX =    0.0                 !
 ! D10   D(1,2,3,10)           180.0            -DE/DX =    0.0                 !
 ! D11   D(9,2,3,4)            180.0            -DE/DX =    0.0                 !
 ! D12   D(9,2,3,10)             0.0            -DE/DX =    0.0                 !
 ! D13   D(2,3,4,5)              0.0            -DE/DX =    0.0                 !
 ! D14   D(2,3,4,11)           180.0            -DE/DX =    0.0                 !
 ! D15   D(10,3,4,5)           180.0            -DE/DX =    0.0                 !
 ! D16   D(10,3,4,11)            0.0            -DE/DX =    0.0                 !
 ! D17   D(3,4,5,6)              0.0            -DE/DX =    0.0                 !
 ! D18   D(3,4,5,12)           180.0            -DE/DX =    0.0                 !
 ! D19   D(11,4,5,6)           180.0            -DE/DX =    0.0                 !
 ! D20   D(11,4,5,12)            0.0            -DE/DX =    0.0                 !
 ! D21   D(4,5,6,1)              0.0            -DE/DX =    0.0                 !
 ! D22   D(4,5,6,7)            180.0            -DE/DX =    0.0                 !
 ! D23   D(12,5,6,1)           180.0            -DE/DX =    0.0                 !
 ! D24   D(12,5,6,7)             0.0            -DE/DX =    0.0                 !
 --------------------------------------------------------------------------------
 GradGradGradGradGradGradGradGradGradGradGradGradGradGradGradGradGradGrad

                          Input orientation:                          
 ---------------------------------------------------------------------
 Center     Atomic      Atomic             Coordinates (Angstroms)
 Number     Number       Type             X           Y           Z
 ---------------------------------------------------------------------
      1          6           0       -3.198707    0.209503   -0.000000
      2          6           0       -2.011482    0.934964   -0.000000
      3          6           0       -0.786225    0.275774    0.000000
      4          6           0       -0.746977   -1.149188    0.000000
      5          6           0       -1.934304   -1.874480    0.000000
      6          6           0       -3.159657   -1.215466   -0.000000
      7         17           0       -4.603994   -2.132016   -0.000000
      8         17           0       -4.691052    1.045371   -0.000000
      9          1           0       -2.041699    2.034922   -0.000000
     10         17           0        0.657979    1.192308    0.000000
     11         17           0        0.745501   -1.985059    0.000000
     12          1           0       -1.904085   -2.974462    0.000000
 ---------------------------------------------------------------------
                    Distance matrix (angstroms):
                    1          2          3          4          5
     1  C    0.000000
     2  C    1.391329   0.000000
     3  C    2.413392   1.391326   0.000000
     4  C    2.803037   2.437757   1.425502   0.000000
     5  C    2.437559   2.810503   2.437555   1.391328   0.000000
     6  C    1.425504   2.437756   2.803030   2.413590   1.391326
     7  Cl   2.730850   4.015904   4.513625   3.980267   2.682082
     8  Cl   1.710488   2.681844   3.979944   4.513515   4.015618
     9  H    2.161209   1.100373   2.161207   3.437275   3.910876
    10  Cl   3.979942   2.681837   1.710485   2.730661   4.015610
    11  Cl   4.513633   4.015904   2.730851   1.710606   2.682086
    12  H    3.437103   3.910901   3.437098   2.161139   1.100398
                    6          7          8          9         10
     6  C    0.000000
     7  Cl   1.710606   0.000000
     8  Cl   2.730670   3.178580   0.000000
     9  H    3.437274   4.891700   2.828124   0.000000
    10  Cl   4.513505   6.224106   5.351049   2.828119   0.000000
    11  Cl   3.980268   5.351513   6.224116   4.891700   3.178572
    12  H    2.161141   2.828290   4.891446   5.011274   4.891436
                   11         12
    11  Cl   0.000000
    12  H    2.828290   0.000000
 Stoichiometry    C6H2Cl4(1-,2)
 Framework group  CS[SG(C6H2Cl4)]
 Deg. of freedom    21
 Full point group                 CS      NOp   2
 Largest Abelian subgroup         CS      NOp   2
 Largest concise Abelian subgroup C1      NOp   1
                         Standard orientation:                         
 ---------------------------------------------------------------------
 Center     Atomic      Atomic             Coordinates (Angstroms)
 Number     Number       Type             X           Y           Z
 ---------------------------------------------------------------------
      1          6           0       -1.227377    0.676514    0.000000
      2          6           0       -1.210019   -0.714707    0.000000
      3          6           0        0.000000   -1.401468   -0.000000
      4          6           0        1.227440   -0.676591   -0.000000
      5          6           0        1.209885    0.714626   -0.000000
      6          6           0       -0.000035    1.401562    0.000000
      7         17           0        0.007620    3.112151    0.000000
      8         17           0       -2.729091    1.495430    0.000000
      9          1           0       -2.157464   -1.274322    0.000000
     10         17           0       -0.007712   -3.111936   -0.000000
     11         17           0        2.729228   -1.495619   -0.000000
     12          1           0        2.157352    1.274252   -0.000000
 ---------------------------------------------------------------------
 Rotational constants (GHZ):           1.1545308           0.4717548           0.3349076

 **********************************************************************

            Population analysis using the SCF Density.

 **********************************************************************

 Orbital symmetries:
 Alpha Orbitals:
       Occupied  (A') (A') (A') (A') (A') (A') (A') (A') (A') (A')
                 (A') (A') (A') (A") (A') (A") (A') (A') (A") (A")
                 (A') (A') (A') (A') (A") (A") (A") (A")
       Virtual   (A") (A') (A') (A') (A") (A') (A') (A') (A') (A')
                 (A') (A') (A') (A')
 Beta  Orbitals:
       Occupied  (A') (A') (A') (A') (A') (A') (A') (A') (A') (A')
                 (A') (A') (A') (A') (A") (A") (A') (A') (A") (A")
                 (A') (A') (A') (A') (A") (A") (A")
       Virtual   (A") (A") (A') (A') (A') (A') (A") (A') (A') (A')
                 (A') (A') (A') (A') (A')
 The electronic state is 2-A".
 Alpha  occ. eigenvalues --   -1.28597  -1.23238  -1.22033  -1.21677  -1.18532
 Alpha  occ. eigenvalues --   -0.99381  -0.95017  -0.71034  -0.70067  -0.52218
 Alpha  occ. eigenvalues --   -0.47693  -0.45909  -0.40566  -0.39729  -0.38348
 Alpha  occ. eigenvalues --   -0.35156  -0.33707  -0.33665  -0.32822  -0.31815
 Alpha  occ. eigenvalues --   -0.28892  -0.27926  -0.27719  -0.27449  -0.26318
 Alpha  occ. eigenvalues --   -0.20552  -0.19235  -0.07759
 Alpha virt. eigenvalues --    0.18645   0.20038   0.20455   0.21374   0.22772
 Alpha virt. eigenvalues --    0.23089   0.29069   0.31304   0.32707   0.34305
 Alpha virt. eigenvalues --    0.34572   0.35107   0.36050   0.37266
  Beta  occ. eigenvalues --   -1.27850  -1.23084  -1.22012  -1.21669  -1.18452
  Beta  occ. eigenvalues --   -0.99557  -0.93165  -0.70059  -0.69388  -0.52020
  Beta  occ. eigenvalues --   -0.47253  -0.45664  -0.40230  -0.38374  -0.38365
  Beta  occ. eigenvalues --   -0.34086  -0.33650  -0.33640  -0.32181  -0.31235
  Beta  occ. eigenvalues --   -0.28921  -0.27873  -0.27705  -0.27386  -0.25783
  Beta  occ. eigenvalues --   -0.19839  -0.13961
  Beta virt. eigenvalues --    0.17323   0.19897   0.20986   0.21655   0.22110
  Beta virt. eigenvalues --    0.24426   0.27296   0.29295   0.30869   0.34279
  Beta virt. eigenvalues --    0.34628   0.35010   0.35520   0.36579   0.38150
          Condensed to atoms (all electrons):
               1          2          3          4          5          6
     1  C    4.186166   0.000000   0.000000   0.000000   0.000000   0.000000
     2  C    0.000000   4.038073   0.000000   0.000000   0.000000   0.000000
     3  C    0.000000   0.000000   4.186158   0.000000   0.000000   0.000000
     4  C    0.000000   0.000000   0.000000   4.186182   0.000000   0.000000
     5  C    0.000000   0.000000   0.000000   0.000000   4.038015   0.000000
     6  C    0.000000   0.000000   0.000000   0.000000   0.000000   4.186174
     7  Cl   0.000000   0.000000   0.000000   0.000000   0.000000   0.000000
     8  Cl   0.000000   0.000000   0.000000   0.000000   0.000000   0.000000
     9  H    0.000000   0.000000   0.000000   0.000000   0.000000   0.000000
    10  Cl   0.000000   0.000000   0.000000   0.000000   0.000000   0.000000
    11  Cl   0.000000   0.000000   0.000000   0.000000   0.000000   0.000000
    12  H    0.000000   0.000000   0.000000   0.000000   0.000000   0.000000
               7          8          9         10         11         12
     1  C    0.000000   0.000000   0.000000   0.000000   0.000000   0.000000
     2  C    0.000000   0.000000   0.000000   0.000000   0.000000   0.000000
     3  C    0.000000   0.000000   0.000000   0.000000   0.000000   0.000000
     4  C    0.000000   0.000000   0.000000   0.000000   0.000000   0.000000
     5  C    0.000000   0.000000   0.000000   0.000000   0.000000   0.000000
     6  C    0.000000   0.000000   0.000000   0.000000   0.000000   0.000000
     7  Cl   7.100687   0.000000   0.000000   0.000000   0.000000   0.000000
     8  Cl   0.000000   7.100686   0.000000   0.000000   0.000000   0.000000
     9  H    0.000000   0.000000   0.888217   0.000000   0.000000   0.000000
    10  Cl   0.000000   0.000000   0.000000   7.100686   0.000000   0.000000
    11  Cl   0.000000   0.000000   0.000000   0.000000   7.100685   0.000000
    12  H    0.000000   0.000000   0.000000   0.000000   0.000000   0.888269
          Atomic-Atomic Spin Densities.
               1          2          3          4          5          6
     1  C    0.385594   0.000000   0.000000   0.000000   0.000000   0.000000
     2  C    0.000000  -0.267886   0.000000   0.000000   0.000000   0.000000
     3  C    0.000000   0.000000   0.385567   0.000000   0.000000   0.000000
     4  C    0.000000   0.000000   0.000000   0.385497   0.000000   0.000000
     5  C    0.000000   0.000000   0.000000   0.000000  -0.267779   0.000000
     6  C    0.000000   0.000000   0.000000   0.000000   0.000000   0.385476
     7  Cl   0.000000   0.000000   0.000000   0.000000   0.000000   0.000000
     8  Cl   0.000000   0.000000   0.000000   0.000000   0.000000   0.000000
     9  H    0.000000   0.000000   0.000000   0.000000   0.000000   0.000000
    10  Cl   0.000000   0.000000   0.000000   0.000000   0.000000   0.000000
    11  Cl   0.000000   0.000000   0.000000   0.000000   0.000000   0.000000
    12  H    0.000000   0.000000   0.000000   0.000000   0.000000   0.000000
               7          8          9         10         11         12
     1  C    0.000000   0.000000   0.000000   0.000000   0.000000   0.000000
     2  C    0.000000   0.000000   0.000000   0.000000   0.000000   0.000000
     3  C    0.000000   0.000000   0.000000   0.000000   0.000000   0.000000
     4  C    0.000000   0.000000   0.000000   0.000000   0.000000   0.000000
     5  C    0.000000   0.000000   0.000000   0.000000   0.000000   0.000000
     6  C    0.000000   0.000000   0.000000   0.000000   0.000000   0.000000
     7  Cl  -0.007651   0.000000   0.000000   0.000000   0.000000   0.000000
     8  Cl   0.000000  -0.007639   0.000000   0.000000   0.000000   0.000000
     9  H    0.000000   0.000000   0.012058   0.000000   0.000000   0.000000
    10  Cl   0.000000   0.000000   0.000000  -0.007639   0.000000   0.000000
    11  Cl   0.000000   0.000000   0.000000   0.000000  -0.007651   0.000000
    12  H    0.000000   0.000000   0.000000   0.000000   0.000000   0.012052
 Mulliken charges and spin densities:
               1          2
     1  C   -0.186166   0.385594
     2  C   -0.038073  -0.267886
     3  C   -0.186158   0.385567
     4  C   -0.186182   0.385497
     5  C   -0.038015  -0.267779
     6  C   -0.186174   0.385476
     7  Cl  -0.100687  -0.007651
     8  Cl  -0.100686  -0.007639
     9  H    0.111783   0.012058
    10  Cl  -0.100686  -0.007639
    11  Cl  -0.100685  -0.007651
    12  H    0.111731   0.012052
 Sum of Mulliken charges =  -1.00000   1.00000
 Mulliken charges and spin densities with hydrogens summed into heavy atoms:
               1          2
     1  C   -0.186166   0.385594
     2  C    0.073709  -0.255828
     3  C   -0.186158   0.385567
     4  C   -0.186182   0.385497
     5  C    0.073715  -0.255726
     6  C   -0.186174   0.385476
     7  Cl  -0.100687  -0.007651
     8  Cl  -0.100686  -0.007639
    10  Cl  -0.100686  -0.007639
    11  Cl  -0.100685  -0.007651
 Charge=             -1.0000 electrons
 Dipole moment (field-independent basis, Debye):
    X=             -0.0002    Y=             -0.0002    Z=              0.0000  Tot=              0.0003
 N-N= 3.041884409013D+02 E-N=-4.407258915146D+02  KE=-1.366573966947D+02
 Symmetry A'   KE=-1.035815339682D+02
 Symmetry A"   KE=-3.307586272642D+01
 Symmetry A'   SP=-8.548717289614D-15
 Symmetry A"   SP= 1.000000000000D+00
 1\1\GINC-SH02-01N43\FOpt\UAM1\ZDO\C6H2Cl4(1-,2)\JLAPIER\09-Dec-2025\0\
 \# opt am1 SCF=XQC\\4-Chloro-Benzene Anion Radical (1245)\\-1,2\C,-3.1
 987068758,0.2095027473,0.\C,-2.0114817133,0.934963891,0.\C,-0.78622451
 45,0.2757737562,0.\C,-0.7469773847,-1.1491882218,0.\C,-1.934304322,-1.
 8744795271,0.\C,-3.1596568469,-1.2154662042,0.\Cl,-4.6039936673,-2.132
 0164307,0.\Cl,-4.6910520624,1.045371056,0.\H,-2.0416985149,2.034921876
 ,0.\Cl,0.6579794273,1.1923083154,0.\Cl,0.7455012696,-1.9850589895,0.\H
 ,-1.9040847953,-2.9744622685,0.\\Version=ES64L-G16RevB.01\State=2-A"\H
 F=-0.055486\S2=0.848849\S2-1=0.\S2A=0.755149\RMSD=1.736e-09\RMSF=3.032
 e-05\Dipole=0.0000038,0.0001113,0.\PG=CS [SG(C6H2Cl4)]\\@


 WOE UNTO THEM THAT CALL EVIL GOOD, AND GOOD EVIL      
 Job cpu time:       0 days  0 hours  0 minutes 34.1 seconds.
 Elapsed time:       0 days  0 hours  1 minutes 10.8 seconds.
 File lengths (MBytes):  RWF=     15 Int=      0 D2E=      0 Chk=      2 Scr=      1
 Normal termination of Gaussian 16 at Tue Dec  9 10:00:09 2025.
