 Entering Gaussian System, Link 0=g16
 Initial command:
 /share/software/user/restricted/gaussian/g16.B01/l1.exe "/home/users/jlapier/Chloroaromatics/Gau-7483.inp" -scrdir="/home/users/jlapier/Chloroaromatics/"
 Entering Link 1 = /share/software/user/restricted/gaussian/g16.B01/l1.exe PID=      7484.
  
 Copyright (c) 1988-2017, Gaussian, Inc.  All Rights Reserved.
  
 This is part of the Gaussian(R) 16 program.  It is based on
 the Gaussian(R) 09 system (copyright 2009, Gaussian, Inc.),
 the Gaussian(R) 03 system (copyright 2003, Gaussian, Inc.),
 the Gaussian(R) 98 system (copyright 1998, Gaussian, Inc.),
 the Gaussian(R) 94 system (copyright 1995, Gaussian, Inc.),
 the Gaussian 92(TM) system (copyright 1992, Gaussian, Inc.),
 the Gaussian 90(TM) system (copyright 1990, Gaussian, Inc.),
 the Gaussian 88(TM) system (copyright 1988, Gaussian, Inc.),
 the Gaussian 86(TM) system (copyright 1986, Carnegie Mellon
 University), and the Gaussian 82(TM) system (copyright 1983,
 Carnegie Mellon University). Gaussian is a federally registered
 trademark of Gaussian, Inc.
  
 This software contains proprietary and confidential information,
 including trade secrets, belonging to Gaussian, Inc.
  
 This software is provided under written license and may be
 used, copied, transmitted, or stored only in accord with that
 written license.
  
 The following legend is applicable only to US Government
 contracts under FAR:
  
                    RESTRICTED RIGHTS LEGEND
  
 Use, reproduction and disclosure by the US Government is
 subject to restrictions as set forth in subparagraphs (a)
 and (c) of the Commercial Computer Software - Restricted
 Rights clause in FAR 52.227-19.
  
 Gaussian, Inc.
 340 Quinnipiac St., Bldg. 40, Wallingford CT 06492
  
  
 ---------------------------------------------------------------
 Warning -- This program may not be used in any manner that
 competes with the business of Gaussian, Inc. or will provide
 assistance to any competitor of Gaussian, Inc.  The licensee
 of this program is prohibited from giving any competitor of
 Gaussian, Inc. access to this program.  By using this program,
 the user acknowledges that Gaussian, Inc. is engaged in the
 business of creating and licensing software in the field of
 computational chemistry and represents and warrants to the
 licensee that it is not a competitor of Gaussian, Inc. and that
 it will not use this program in any manner prohibited above.
 ---------------------------------------------------------------
  

 Cite this work as:
 Gaussian 16, Revision B.01,
 M. J. Frisch, G. W. Trucks, H. B. Schlegel, G. E. Scuseria, 
 M. A. Robb, J. R. Cheeseman, G. Scalmani, V. Barone, 
 G. A. Petersson, H. Nakatsuji, X. Li, M. Caricato, A. V. Marenich, 
 J. Bloino, B. G. Janesko, R. Gomperts, B. Mennucci, H. P. Hratchian, 
 J. V. Ortiz, A. F. Izmaylov, J. L. Sonnenberg, D. Williams-Young, 
 F. Ding, F. Lipparini, F. Egidi, J. Goings, B. Peng, A. Petrone, 
 T. Henderson, D. Ranasinghe, V. G. Zakrzewski, J. Gao, N. Rega, 
 G. Zheng, W. Liang, M. Hada, M. Ehara, K. Toyota, R. Fukuda, 
 J. Hasegawa, M. Ishida, T. Nakajima, Y. Honda, O. Kitao, H. Nakai, 
 T. Vreven, K. Throssell, J. A. Montgomery, Jr., J. E. Peralta, 
 F. Ogliaro, M. J. Bearpark, J. J. Heyd, E. N. Brothers, K. N. Kudin, 
 V. N. Staroverov, T. A. Keith, R. Kobayashi, J. Normand, 
 K. Raghavachari, A. P. Rendell, J. C. Burant, S. S. Iyengar, 
 J. Tomasi, M. Cossi, J. M. Millam, M. Klene, C. Adamo, R. Cammi, 
 J. W. Ochterski, R. L. Martin, K. Morokuma, O. Farkas, 
 J. B. Foresman, and D. J. Fox, Gaussian, Inc., Wallingford CT, 2016.
 
 ******************************************
 Gaussian 16:  ES64L-G16RevB.01 20-Dec-2017
                 8-Dec-2025 
 ******************************************
 %mem=2GB
 %nprocshare=1
 Will use up to    1 processors via shared memory.
 %chk=geometry_chks/1245ClBz.chk
 ---------------------------
 # opt am1 SCF(maxcyc=10000)
 ---------------------------
 1/18=20,19=15,26=1,38=1/1,3;
 2/9=110,12=2,17=6,18=5,40=1/2;
 3/5=2,25=1,41=700000,71=1/1,2,3;
 4/35=1/1;
 5/5=2,7=10000,35=1,38=5/2;
 6/7=2,8=2,9=2,10=2,28=1/1;
 7//1,2,3,16;
 1/18=20,19=15,26=1/3(2);
 2/9=110/2;
 99//99;
 2/9=110/2;
 3/5=2,25=1,41=700000,71=1,135=20/1,2,3;
 4/5=5,16=3,35=1/1;
 5/5=2,7=10000,35=1,38=5/2;
 7//1,2,3,16;
 1/18=20,19=15,26=1/3(-5);
 2/9=110/2;
 6/7=2,8=2,9=2,10=2,19=2,28=1/1;
 99/9=1/99;
 -----------------------
 4-Chloro-Benzene (1245)
 -----------------------
 Symbolic Z-matrix:
 Charge =  0 Multiplicity = 1
 C                    -3.20928   0.19943   0. 
 C                    -2.0115    0.93555   0. 
 C                    -0.77511   0.2663    0. 
 C                    -0.7365   -1.13907   0. 
 C                    -1.93429  -1.87519   0. 
 C                    -3.17067  -1.20594   0. 
 Cl                   -4.67483  -2.13035   0. 
 Cl                   -4.76193   1.03987   0. 
 H                     0.81614  -1.97951   0. 
 Cl                   -1.8858   -3.64003   0. 
 Cl                   -2.05998   2.7004    0. 
 H                     0.72905   1.19071   0. 
 
 Add virtual bond connecting atoms H9         and C4         Dist= 3.34D+00.
 Add virtual bond connecting atoms H12        and C3         Dist= 3.34D+00.

 GradGradGradGradGradGradGradGradGradGradGradGradGradGradGradGradGradGrad
 Berny optimization.
 Initialization pass.
                           ----------------------------
                           !    Initial Parameters    !
                           ! (Angstroms and Degrees)  !
 --------------------------                            --------------------------
 ! Name  Definition              Value          Derivative Info.                !
 --------------------------------------------------------------------------------
 ! R1    R(1,2)                  1.4059         estimate D2E/DX2                !
 ! R2    R(1,6)                  1.4059         estimate D2E/DX2                !
 ! R3    R(1,8)                  1.7655         estimate D2E/DX2                !
 ! R4    R(2,3)                  1.4059         estimate D2E/DX2                !
 ! R5    R(2,11)                 1.7655         estimate D2E/DX2                !
 ! R6    R(3,4)                  1.4059         estimate D2E/DX2                !
 ! R7    R(3,12)                 1.7655         estimate D2E/DX2                !
 ! R8    R(4,5)                  1.4059         estimate D2E/DX2                !
 ! R9    R(4,9)                  1.7655         estimate D2E/DX2                !
 ! R10   R(5,6)                  1.4059         estimate D2E/DX2                !
 ! R11   R(5,10)                 1.7655         estimate D2E/DX2                !
 ! R12   R(6,7)                  1.7655         estimate D2E/DX2                !
 ! A1    A(2,1,6)              119.9999         estimate D2E/DX2                !
 ! A2    A(2,1,8)              119.9999         estimate D2E/DX2                !
 ! A3    A(6,1,8)              120.0001         estimate D2E/DX2                !
 ! A4    A(1,2,3)              120.0            estimate D2E/DX2                !
 ! A5    A(1,2,11)             120.0001         estimate D2E/DX2                !
 ! A6    A(3,2,11)             119.9999         estimate D2E/DX2                !
 ! A7    A(2,3,4)              120.0001         estimate D2E/DX2                !
 ! A8    A(2,3,12)             120.0            estimate D2E/DX2                !
 ! A9    A(4,3,12)             119.9999         estimate D2E/DX2                !
 ! A10   A(3,4,5)              119.9997         estimate D2E/DX2                !
 ! A11   A(3,4,9)              120.0003         estimate D2E/DX2                !
 ! A12   A(5,4,9)              120.0            estimate D2E/DX2                !
 ! A13   A(4,5,6)              120.0            estimate D2E/DX2                !
 ! A14   A(4,5,10)             119.9996         estimate D2E/DX2                !
 ! A15   A(6,5,10)             120.0004         estimate D2E/DX2                !
 ! A16   A(1,6,5)              120.0003         estimate D2E/DX2                !
 ! A17   A(1,6,7)              119.9999         estimate D2E/DX2                !
 ! A18   A(5,6,7)              119.9998         estimate D2E/DX2                !
 ! D1    D(6,1,2,3)              0.0            estimate D2E/DX2                !
 ! D2    D(6,1,2,11)           180.0            estimate D2E/DX2                !
 ! D3    D(8,1,2,3)            180.0            estimate D2E/DX2                !
 ! D4    D(8,1,2,11)             0.0            estimate D2E/DX2                !
 ! D5    D(2,1,6,5)              0.0            estimate D2E/DX2                !
 ! D6    D(2,1,6,7)            180.0            estimate D2E/DX2                !
 ! D7    D(8,1,6,5)            180.0            estimate D2E/DX2                !
 ! D8    D(8,1,6,7)              0.0            estimate D2E/DX2                !
 ! D9    D(1,2,3,4)              0.0            estimate D2E/DX2                !
 ! D10   D(1,2,3,12)           180.0            estimate D2E/DX2                !
 ! D11   D(11,2,3,4)           180.0            estimate D2E/DX2                !
 ! D12   D(11,2,3,12)            0.0            estimate D2E/DX2                !
 ! D13   D(2,3,4,5)              0.0            estimate D2E/DX2                !
 ! D14   D(2,3,4,9)            180.0            estimate D2E/DX2                !
 ! D15   D(12,3,4,5)           180.0            estimate D2E/DX2                !
 ! D16   D(12,3,4,9)             0.0            estimate D2E/DX2                !
 ! D17   D(3,4,5,6)              0.0            estimate D2E/DX2                !
 ! D18   D(3,4,5,10)           180.0            estimate D2E/DX2                !
 ! D19   D(9,4,5,6)            180.0            estimate D2E/DX2                !
 ! D20   D(9,4,5,10)             0.0            estimate D2E/DX2                !
 ! D21   D(4,5,6,1)              0.0            estimate D2E/DX2                !
 ! D22   D(4,5,6,7)            180.0            estimate D2E/DX2                !
 ! D23   D(10,5,6,1)           180.0            estimate D2E/DX2                !
 ! D24   D(10,5,6,7)             0.0            estimate D2E/DX2                !
 --------------------------------------------------------------------------------
 Trust Radius=3.00D-01 FncErr=1.00D-07 GrdErr=1.00D-07 EigMax=2.50D+02 EigMin=1.00D-04
 Number of steps in this run=     64 maximum allowed number of steps=    100.
 GradGradGradGradGradGradGradGradGradGradGradGradGradGradGradGradGradGrad

                          Input orientation:                          
 ---------------------------------------------------------------------
 Center     Atomic      Atomic             Coordinates (Angstroms)
 Number     Number       Type             X           Y           Z
 ---------------------------------------------------------------------
      1          6           0       -3.209280    0.199430    0.000000
      2          6           0       -2.011500    0.935550    0.000000
      3          6           0       -0.775110    0.266300    0.000000
      4          6           0       -0.736500   -1.139070    0.000000
      5          6           0       -1.934290   -1.875190    0.000000
      6          6           0       -3.170670   -1.205940    0.000000
      7         17           0       -4.674830   -2.130350    0.000000
      8         17           0       -4.761930    1.039870    0.000000
      9          1           0        0.816140   -1.979510    0.000000
     10         17           0       -1.885800   -3.640030    0.000000
     11         17           0       -2.059980    2.700400    0.000000
     12          1           0        0.729050    1.190710    0.000000
 ---------------------------------------------------------------------
                    Distance matrix (angstroms):
                    1          2          3          4          5
     1  C    0.000000
     2  C    1.405898   0.000000
     3  C    2.435088   1.405900   0.000000
     4  C    2.811801   2.435092   1.405900   0.000000
     5  C    2.435087   2.811800   2.435093   1.405907   0.000000
     6  C    1.405900   2.435088   2.811796   2.435088   1.405892
     7  Cl   2.752401   4.061166   4.577308   4.061167   2.752393
     8  Cl   1.765520   2.752408   4.061175   4.577321   4.061173
     9  H    4.577312   4.061173   2.752406   1.765511   2.752408
    10  Cl   4.061164   4.577306   4.061163   2.752397   1.765506
    11  Cl   2.752406   1.765516   2.752405   4.061173   4.577316
    12  H    4.061167   2.752403   1.765512   2.752401   4.061173
                    6          7          8          9         10
     6  C    0.000000
     7  Cl   1.765512   0.000000
     8  Cl   2.752412   3.171416   0.000000
     9  H    4.061165   5.493041   6.342832   0.000000
    10  Cl   2.752396   3.171407   5.493049   3.171404   0.000000
    11  Cl   4.061173   5.493049   3.171418   5.493052   6.342822
    12  H    4.577308   6.342819   5.493051   3.171416   5.493040
                   11         12
    11  Cl   0.000000
    12  H    3.171412   0.000000
 Stoichiometry    C6H2Cl4
 Framework group  CS[SG(C6H2Cl4)]
 Deg. of freedom    21
 Full point group                 CS      NOp   2
 Largest Abelian subgroup         CS      NOp   2
 Largest concise Abelian subgroup C1      NOp   1
                         Standard orientation:                         
 ---------------------------------------------------------------------
 Center     Atomic      Atomic             Coordinates (Angstroms)
 Number     Number       Type             X           Y           Z
 ---------------------------------------------------------------------
      1          6           0       -0.414568   -0.687842    0.000000
      2          6           0       -1.632112    0.015106    0.000000
      3          6           0       -1.632112    1.421006    0.000000
      4          6           0       -0.414568    2.123958    0.000000
      5          6           0        0.802981    1.421001    0.000000
      6          6           0        0.802976    0.015110    0.000000
      7         17           0        2.331954   -0.867646    0.000000
      8         17           0       -0.414569   -2.453363    0.000000
      9          1           0       -0.414563    3.889470    0.000000
     10         17           0        2.331950    2.303761    0.000000
     11         17           0       -3.161095   -0.867650    0.000000
     12          1           0       -3.161090    2.303762    0.000000
 ---------------------------------------------------------------------
 Rotational constants (GHZ):           1.1200143           0.5289139           0.3592583
 Standard basis: VSTO-6G (5D, 7F)
 There are    32 symmetry adapted cartesian basis functions of A'  symmetry.
 There are    10 symmetry adapted cartesian basis functions of A"  symmetry.
 There are    32 symmetry adapted basis functions of A'  symmetry.
 There are    10 symmetry adapted basis functions of A"  symmetry.
    42 basis functions,   252 primitive gaussians,    42 cartesian basis functions
    27 alpha electrons       27 beta electrons
       nuclear repulsion energy       301.7401241028 Hartrees.
 Integral buffers will be    131072 words long.
 Regular integral format.
 Two-electron integral symmetry is turned off.
 Do NDO integrals.
 One-electron integrals computed using PRISM.
 NBasis=    42 RedAO= T EigKep=  1.00D+00  NBF=    32    10
 NBsUse=    42 1.00D-06 EigRej= -1.00D+00 NBFU=    32    10
 Simple Huckel Guess.
 Initial guess orbital symmetries:
       Occupied  (A') (A') (A') (A') (A') (A') (A') (A') (A') (A')
                 (A") (A') (A') (A') (A') (A") (A") (A') (A') (A")
                 (A") (A') (A') (A') (A') (A") (A")
       Virtual   (A') (A") (A") (A') (A") (A') (A') (A') (A') (A')
                 (A') (A') (A') (A') (A')
 The electronic state of the initial guess is 1-A'.
 Keep J ints in memory in canonical form, NReq=864594.
 Overlap will be assumed to be unity.
 Requested convergence on RMS density matrix=1.00D-08 within**** cycles.
 Requested convergence on MAX density matrix=1.00D-06.
 Requested convergence on             energy=1.00D-06.
 No special actions if energy rises.
 Fock symm off for IB=2 I1=    1 I=   33 J=   25 Cut=1.00D-07 Err=3.32D-03
 Fock matrix is not symmetric: symmetry in diagonalization turned off.
 SCF Done:  E(RAM1) =  0.252808945800     A.U. after   15 cycles
            NFock= 14  Conv=0.29D-08     -V/T= 1.0019

 **********************************************************************

            Population analysis using the SCF Density.

 **********************************************************************

 Orbital symmetries:
       Occupied  (A') (A') (A') (A') (A') (A') (A') (A') (A') (A')
                 (A') (A') (A") (A') (A') (A") (A") (A') (A') (A")
                 (A') (A") (A') (A') (A') (A") (A")
       Virtual   (A") (A') (A") (A') (A') (A') (A') (A') (A") (A')
                 (A') (A') (A') (A') (A')
 The electronic state is 1-A'.
 Alpha  occ. eigenvalues --   -1.45194  -1.38820  -1.37895  -1.37109  -1.35449
 Alpha  occ. eigenvalues --   -1.13810  -1.12681  -0.86319  -0.85184  -0.66626
 Alpha  occ. eigenvalues --   -0.63482  -0.61213  -0.56581  -0.56416  -0.53065
 Alpha  occ. eigenvalues --   -0.49988  -0.47809  -0.46401  -0.46140  -0.46034
 Alpha  occ. eigenvalues --   -0.44743  -0.43292  -0.43223  -0.43037  -0.40672
 Alpha  occ. eigenvalues --   -0.36193  -0.35728
 Alpha virt. eigenvalues --   -0.01751  -0.01620  -0.01214  -0.00419   0.01630
 Alpha virt. eigenvalues --    0.02240   0.03875   0.04453   0.07372   0.13227
 Alpha virt. eigenvalues --    0.13429   0.15067   0.15315   0.16860   0.18019
          Condensed to atoms (all electrons):
               1          2          3          4          5          6
     1  C    4.040685   0.000000   0.000000   0.000000   0.000000   0.000000
     2  C    0.000000   4.034896   0.000000   0.000000   0.000000   0.000000
     3  C    0.000000   0.000000   4.138535   0.000000   0.000000   0.000000
     4  C    0.000000   0.000000   0.000000   4.138533   0.000000   0.000000
     5  C    0.000000   0.000000   0.000000   0.000000   4.034901   0.000000
     6  C    0.000000   0.000000   0.000000   0.000000   0.000000   4.040686
     7  Cl   0.000000   0.000000   0.000000   0.000000   0.000000   0.000000
     8  Cl   0.000000   0.000000   0.000000   0.000000   0.000000   0.000000
     9  H    0.000000   0.000000   0.000000   0.000000   0.000000   0.000000
    10  Cl   0.000000   0.000000   0.000000   0.000000   0.000000   0.000000
    11  Cl   0.000000   0.000000   0.000000   0.000000   0.000000   0.000000
    12  H    0.000000   0.000000   0.000000   0.000000   0.000000   0.000000
               7          8          9         10         11         12
     1  C    0.000000   0.000000   0.000000   0.000000   0.000000   0.000000
     2  C    0.000000   0.000000   0.000000   0.000000   0.000000   0.000000
     3  C    0.000000   0.000000   0.000000   0.000000   0.000000   0.000000
     4  C    0.000000   0.000000   0.000000   0.000000   0.000000   0.000000
     5  C    0.000000   0.000000   0.000000   0.000000   0.000000   0.000000
     6  C    0.000000   0.000000   0.000000   0.000000   0.000000   0.000000
     7  Cl   6.991310   0.000000   0.000000   0.000000   0.000000   0.000000
     8  Cl   0.000000   6.991312   0.000000   0.000000   0.000000   0.000000
     9  H    0.000000   0.000000   0.782603   0.000000   0.000000   0.000000
    10  Cl   0.000000   0.000000   0.000000   7.011965   0.000000   0.000000
    11  Cl   0.000000   0.000000   0.000000   0.000000   7.011969   0.000000
    12  H    0.000000   0.000000   0.000000   0.000000   0.000000   0.782605
 Mulliken charges:
               1
     1  C   -0.040685
     2  C   -0.034896
     3  C   -0.138535
     4  C   -0.138533
     5  C   -0.034901
     6  C   -0.040686
     7  Cl   0.008690
     8  Cl   0.008688
     9  H    0.217397
    10  Cl  -0.011965
    11  Cl  -0.011969
    12  H    0.217395
 Sum of Mulliken charges =   0.00000
 Mulliken charges with hydrogens summed into heavy atoms:
               1
     1  C   -0.040685
     2  C   -0.034896
     3  C    0.078860
     4  C    0.078864
     5  C   -0.034901
     6  C   -0.040686
     7  Cl   0.008690
     8  Cl   0.008688
    10  Cl  -0.011965
    11  Cl  -0.011969
 Charge=              0.0000 electrons
 Dipole moment (field-independent basis, Debye):
    X=             -1.9063    Y=              3.3020    Z=              0.0000  Tot=              3.8128
 N-N= 3.017401241028D+02 E-N=-4.289674219958D+02  KE=-1.345451071245D+02
 Symmetry A'   KE=-1.029088566760D+02
 Symmetry A"   KE=-3.163625044854D+01
 Calling FoFJK, ICntrl=      2127 FMM=F ISym2X=1 I1Cent= 0 IOpClX= 0 NMat=1 NMatS=1 NMatT=0.
 ***** Axes restored to original set *****
 -------------------------------------------------------------------
 Center     Atomic                   Forces (Hartrees/Bohr)
 Number     Number              X              Y              Z
 -------------------------------------------------------------------
      1        6          -0.022656205    0.011585800    0.000000000
      2        6           0.018087587    0.020667316    0.000000000
      3        6           0.069495212    0.020913677    0.000000000
      4        6           0.070533192   -0.017068936    0.000000000
      5        6           0.019206368   -0.019640097    0.000000000
      6        6          -0.021990400   -0.012806860    0.000000000
      7       17           0.032811620    0.020492924   -0.000000000
      8       17           0.033891490   -0.018662699   -0.000000000
      9        1          -0.103754680    0.055019403   -0.000000000
     10       17           0.001423161    0.038414627   -0.000000000
     11       17           0.003530283   -0.038282920   -0.000000000
     12        1          -0.100577628   -0.060632236   -0.000000000
 -------------------------------------------------------------------
 Cartesian Forces:  Max     0.103754680 RMS     0.036082787

 GradGradGradGradGradGradGradGradGradGradGradGradGradGradGradGradGradGrad
 Berny optimization.
 FormGI is forming the generalized inverse of G from B-inverse, IUseBI=4.
 Internal  Forces:  Max     0.117435763 RMS     0.026982824
 Search for a local minimum.
 Step number   1 out of a maximum of   64
 All quantities printed in internal units (Hartrees-Bohrs-Radians)
 Mixed Optimization -- RFO/linear search
 Second derivative matrix not updated -- first step.
 ITU=  0
     Eigenvalues ---    0.02011   0.02011   0.02011   0.02011   0.02011
     Eigenvalues ---    0.02011   0.02011   0.02011   0.02011   0.06524
     Eigenvalues ---    0.06524   0.16000   0.16000   0.22488   0.24492
     Eigenvalues ---    0.25000   0.25000   0.25000   0.25000   0.25000
     Eigenvalues ---    0.29033   0.29033   0.29033   0.29034   0.40957
     Eigenvalues ---    0.41136   0.44656   0.44657   0.44657   0.44657
 RFO step:  Lambda=-1.50991867D-01 EMin= 2.01065826D-02
 Linear search not attempted -- first point.
 Maximum step size (   0.300) exceeded in Quadratic search.
    -- Step size scaled by   0.376
 Iteration  1 RMS(Cart)=  0.04500043 RMS(Int)=  0.00077653
 Iteration  2 RMS(Cart)=  0.00071931 RMS(Int)=  0.00000973
 Iteration  3 RMS(Cart)=  0.00000003 RMS(Int)=  0.00000973
 ClnCor:  largest displacement from symmetrization is 5.06D-09 for atom     8.
 Variable       Old X    -DE/DX   Delta X   Delta X   Delta X     New X
                                 (Linear)    (Quad)   (Total)
    R1        2.65676  -0.01250   0.00000  -0.00743  -0.00744   2.64932
    R2        2.65677  -0.01326   0.00000  -0.00749  -0.00751   2.64926
    R3        3.33635  -0.03869   0.00000  -0.03293  -0.03293   3.30342
    R4        2.65677  -0.03401   0.00000  -0.02181  -0.02180   2.63497
    R5        3.33634  -0.03837   0.00000  -0.03266  -0.03266   3.30368
    R6        2.65677  -0.05117   0.00000  -0.03302  -0.03300   2.62377
    R7        3.33633  -0.11744   0.00000  -0.20403  -0.20403   3.13230
    R8        2.65678  -0.03402   0.00000  -0.02181  -0.02180   2.63498
    R9        3.33633  -0.11744   0.00000  -0.20403  -0.20403   3.13230
   R10        2.65675  -0.01249   0.00000  -0.00743  -0.00744   2.64931
   R11        3.33632  -0.03836   0.00000  -0.03265  -0.03265   3.30367
   R12        3.33633  -0.03868   0.00000  -0.03293  -0.03293   3.30340
    A1        2.09439  -0.00487   0.00000  -0.00277  -0.00280   2.09159
    A2        2.09439   0.00290   0.00000   0.00182   0.00184   2.09623
    A3        2.09440   0.00197   0.00000   0.00095   0.00096   2.09536
    A4        2.09439  -0.00318   0.00000  -0.00312  -0.00312   2.09127
    A5        2.09440   0.00572   0.00000   0.00543   0.00543   2.09983
    A6        2.09439  -0.00255   0.00000  -0.00231  -0.00231   2.09208
    A7        2.09440   0.00804   0.00000   0.00590   0.00592   2.10032
    A8        2.09440  -0.00570   0.00000  -0.00497  -0.00499   2.08941
    A9        2.09439  -0.00235   0.00000  -0.00092  -0.00094   2.09346
   A10        2.09439   0.00805   0.00000   0.00590   0.00592   2.10031
   A11        2.09440  -0.00235   0.00000  -0.00092  -0.00094   2.09346
   A12        2.09440  -0.00570   0.00000  -0.00497  -0.00499   2.08941
   A13        2.09439  -0.00318   0.00000  -0.00312  -0.00312   2.09127
   A14        2.09439  -0.00255   0.00000  -0.00231  -0.00231   2.09208
   A15        2.09440   0.00572   0.00000   0.00543   0.00543   2.09984
   A16        2.09440  -0.00487   0.00000  -0.00277  -0.00280   2.09160
   A17        2.09439   0.00197   0.00000   0.00095   0.00096   2.09536
   A18        2.09439   0.00290   0.00000   0.00182   0.00184   2.09623
    D1        0.00000  -0.00000   0.00000  -0.00000   0.00000   0.00000
    D2        3.14159  -0.00000   0.00000  -0.00000   0.00000   3.14159
    D3        3.14159   0.00000   0.00000   0.00000   0.00000   3.14159
    D4        0.00000   0.00000   0.00000   0.00000   0.00000   0.00000
    D5        0.00000   0.00000   0.00000   0.00000   0.00000   0.00000
    D6        3.14159   0.00000   0.00000   0.00000   0.00000   3.14159
    D7        3.14159  -0.00000   0.00000  -0.00000   0.00000   3.14159
    D8        0.00000  -0.00000   0.00000  -0.00000   0.00000   0.00000
    D9        0.00000  -0.00000   0.00000  -0.00000   0.00000   0.00000
   D10        3.14159  -0.00000   0.00000  -0.00000   0.00000   3.14159
   D11        3.14159   0.00000   0.00000   0.00000   0.00000   3.14159
   D12        0.00000   0.00000   0.00000   0.00000   0.00000   0.00000
   D13        0.00000   0.00000   0.00000   0.00000   0.00000   0.00000
   D14        3.14159  -0.00000   0.00000  -0.00000   0.00000   3.14159
   D15        3.14159   0.00000   0.00000   0.00000   0.00000   3.14159
   D16        0.00000  -0.00000   0.00000  -0.00000   0.00000   0.00000
   D17        0.00000   0.00000   0.00000   0.00000   0.00000   0.00000
   D18        3.14159  -0.00000   0.00000  -0.00000   0.00000   3.14159
   D19        3.14159   0.00000   0.00000   0.00000   0.00000   3.14159
   D20        0.00000   0.00000   0.00000   0.00000   0.00000   0.00000
   D21        0.00000  -0.00000   0.00000  -0.00000   0.00000   0.00000
   D22        3.14159  -0.00000   0.00000  -0.00000   0.00000   3.14159
   D23        3.14159   0.00000   0.00000   0.00000   0.00000   3.14159
   D24        0.00000  -0.00000   0.00000  -0.00000   0.00000   0.00000
         Item               Value     Threshold  Converged?
 Maximum Force            0.117436     0.000450     NO 
 RMS     Force            0.026983     0.000300     NO 
 Maximum Displacement     0.177565     0.001800     NO 
 RMS     Displacement     0.045687     0.001200     NO 
 Predicted change in Energy=-5.286369D-02
 GradGradGradGradGradGradGradGradGradGradGradGradGradGradGradGradGradGrad

                          Input orientation:                          
 ---------------------------------------------------------------------
 Center     Atomic      Atomic             Coordinates (Angstroms)
 Number     Number       Type             X           Y           Z
 ---------------------------------------------------------------------
      1          6           0       -3.193150    0.197886    0.000000
      2          6           0       -1.996675    0.928596    0.000000
      3          6           0       -0.774382    0.257585    0.000000
      4          6           0       -0.736252   -1.130329    0.000000
      5          6           0       -1.919867   -1.867432    0.000000
      6          6           0       -3.154650   -1.203512    0.000000
      7         17           0       -4.643082   -2.120232    0.000000
      8         17           0       -4.729671    1.031512    0.000000
      9          1           0        0.722177   -1.918007    0.000000
     10         17           0       -1.857463   -3.614544    0.000000
     11         17           0       -2.030289    2.676506    0.000000
     12          1           0        0.638605    1.124142    0.000000
 ---------------------------------------------------------------------
                    Distance matrix (angstroms):
                    1          2          3          4          5
     1  C    0.000000
     2  C    1.401960   0.000000
     3  C    2.419505   1.394365   0.000000
     4  C    2.792938   2.414091   1.388438   0.000000
     5  C    2.426270   2.797082   2.414091   1.394370   0.000000
     6  C    1.401926   2.426270   2.792934   2.419506   1.401956
     7  Cl   2.734222   4.037180   4.541019   4.030289   2.734923
     8  Cl   1.748092   2.734933   4.030294   4.541029   4.037186
     9  H    4.450482   3.936407   2.640623   1.657543   2.642528
    10  Cl   4.039639   4.545272   4.020753   2.725517   1.748226
    11  Cl   2.737847   1.748234   2.725524   4.020761   4.545280
    12  H    3.942118   2.642525   1.657544   2.640618   3.936406
                    6          7          8          9         10
     6  C    0.000000
     7  Cl   1.748086   0.000000
     8  Cl   2.734231   3.152933   0.000000
     9  H    3.942117   5.369068   6.198572   0.000000
    10  Cl   2.737841   3.161113   5.462180   3.087520   0.000000
    11  Cl   4.039644   5.462178   3.161118   5.355895   6.293424
    12  H    4.450478   6.198562   5.369074   3.043296   5.355884
                   11         12
    11  Cl   0.000000
    12  H    3.087528   0.000000
 Stoichiometry    C6H2Cl4
 Framework group  CS[SG(C6H2Cl4)]
 Deg. of freedom    21
 Full point group                 CS      NOp   2
 Largest Abelian subgroup         CS      NOp   2
 Largest concise Abelian subgroup C1      NOp   1
                         Standard orientation:                         
 ---------------------------------------------------------------------
 Center     Atomic      Atomic             Coordinates (Angstroms)
 Number     Number       Type             X           Y           Z
 ---------------------------------------------------------------------
      1          6           0        0.000000   -0.803954    0.000000
      2          6           0       -1.401902   -0.816650    0.000000
      3          6           0       -2.106237    0.386748    0.000000
      4          6           0       -1.426324    1.597317    0.000000
      5          6           0       -0.032174    1.622103    0.000000
      6          6           0        0.686519    0.418375    0.000000
      7         17           0        2.434461    0.440784    0.000000
      8         17           0        0.890482   -2.308237    0.000000
      9          1           0       -2.273386    3.022075    0.000000
     10         17           0        0.811341    3.153369    0.000000
     11         17           0       -2.270533   -2.333819    0.000000
     12          1           0       -3.763682    0.368649    0.000000
 ---------------------------------------------------------------------
 Rotational constants (GHZ):           1.1344805           0.5369008           0.3644312
 Standard basis: VSTO-6G (5D, 7F)
 There are    32 symmetry adapted cartesian basis functions of A'  symmetry.
 There are    10 symmetry adapted cartesian basis functions of A"  symmetry.
 There are    32 symmetry adapted basis functions of A'  symmetry.
 There are    10 symmetry adapted basis functions of A"  symmetry.
    42 basis functions,   252 primitive gaussians,    42 cartesian basis functions
    27 alpha electrons       27 beta electrons
       nuclear repulsion energy       303.3964814613 Hartrees.
 Integral buffers will be    131072 words long.
 Regular integral format.
 Two-electron integral symmetry is turned off.
 Do NDO integrals.
 One-electron integrals computed using PRISM.
 NBasis=    42 RedAO= T EigKep=  1.00D+00  NBF=    32    10
 NBsUse=    42 1.00D-06 EigRej= -1.00D+00 NBFU=    32    10
 Initial guess from the checkpoint file:  "geometry_chks/1245ClBz.chk"
 B after Tr=    -0.000000    0.000000    0.000000
         Rot=    0.964375   -0.000000    0.000000   -0.264540 Ang= -30.68 deg.
 Initial guess orbital symmetries:
       Occupied  (A') (A') (A') (A') (A') (A') (A') (A') (A') (A')
                 (A') (A') (A") (A') (A') (A") (A") (A') (A') (A")
                 (A') (A") (A') (A') (A') (A") (A")
       Virtual   (A") (A') (A") (A') (A') (A') (A') (A') (A") (A')
                 (A') (A') (A') (A') (A')
 Keep J ints in memory in canonical form, NReq=864594.
 Overlap will be assumed to be unity.
 Requested convergence on RMS density matrix=1.00D-08 within**** cycles.
 Requested convergence on MAX density matrix=1.00D-06.
 Requested convergence on             energy=1.00D-06.
 No special actions if energy rises.
 Fock symm off for IB=2 I1=    1 I=   33 J=    9 Cut=1.00D-07 Err=9.93D-04
 Fock matrix is not symmetric: symmetry in diagonalization turned off.
 SCF Done:  E(RAM1) =  0.196512946159     A.U. after   13 cycles
            NFock= 12  Conv=0.14D-08     -V/T= 1.0015
 Calling FoFJK, ICntrl=      2127 FMM=F ISym2X=1 I1Cent= 0 IOpClX= 0 NMat=1 NMatS=1 NMatT=0.
 ***** Axes restored to original set *****
 -------------------------------------------------------------------
 Center     Atomic                   Forces (Hartrees/Bohr)
 Number     Number              X              Y              Z
 -------------------------------------------------------------------
      1        6          -0.023475779    0.011944705    0.000000000
      2        6           0.011129167    0.024888751    0.000000000
      3        6           0.088486447    0.038397133    0.000000000
      4        6           0.090456547   -0.033482882    0.000000000
      5        6           0.012486765   -0.024237079    0.000000000
      6        6          -0.022787207   -0.013212049    0.000000000
      7       17           0.025598922    0.015932531   -0.000000000
      8       17           0.026438214   -0.014504832   -0.000000000
      9        1          -0.107486380    0.057075859   -0.000000000
     10       17           0.000857310    0.029696189    0.000000000
     11       17           0.002486791   -0.029607860   -0.000000000
     12        1          -0.104190796   -0.062890465   -0.000000000
 -------------------------------------------------------------------
 Cartesian Forces:  Max     0.107486380 RMS     0.038975699

 GradGradGradGradGradGradGradGradGradGradGradGradGradGradGradGradGradGrad
 Berny optimization.
 Using GEDIIS/GDIIS optimizer.
 FormGI is forming the generalized inverse of G from B-inverse, IUseBI=4.
 Internal  Forces:  Max     0.121697320 RMS     0.025381752
 Search for a local minimum.
 Step number   2 out of a maximum of   64
 All quantities printed in internal units (Hartrees-Bohrs-Radians)
 Mixed Optimization -- RFO/linear search
 Update second derivatives using D2CorX and points    1    2
 DE= -5.63D-02 DEPred=-5.29D-02 R= 1.06D+00
 TightC=F SS=  1.41D+00  RLast= 3.00D-01 DXNew= 5.0454D-01 9.0000D-01
 Trust test= 1.06D+00 RLast= 3.00D-01 DXMaxT set to 5.05D-01
 ITU=  1  0
 Use linear search instead of GDIIS.
 Linear search step of   0.600 exceeds DXMaxT=   0.505 but not scaled.
 Quartic linear search produced a step of  2.00000.
 Iteration  1 RMS(Cart)=  0.05686645 RMS(Int)=  0.04004250
 Iteration  2 RMS(Cart)=  0.03596665 RMS(Int)=  0.00155338
 Iteration  3 RMS(Cart)=  0.00145190 RMS(Int)=  0.00005916
 Iteration  4 RMS(Cart)=  0.00000001 RMS(Int)=  0.00005916
 ClnCor:  largest displacement from symmetrization is 1.20D-15 for atom     9.
 Variable       Old X    -DE/DX   Delta X   Delta X   Delta X     New X
                                 (Linear)    (Quad)   (Total)
    R1        2.64932  -0.00271  -0.01489   0.00000  -0.01494   2.63438
    R2        2.64926  -0.00305  -0.01502   0.00000  -0.01513   2.63413
    R3        3.30342  -0.03016  -0.06587   0.00000  -0.06587   3.23755
    R4        2.63497  -0.01649  -0.04360   0.00000  -0.04354   2.59143
    R5        3.30368  -0.02965  -0.06532   0.00000  -0.06532   3.23837
    R6        2.62377  -0.02873  -0.06600   0.00000  -0.06589   2.55787
    R7        3.13230  -0.12170  -0.40806   0.00000  -0.40806   2.72424
    R8        2.63498  -0.01650  -0.04360   0.00000  -0.04355   2.59143
    R9        3.13230  -0.12170  -0.40806   0.00000  -0.40806   2.72424
   R10        2.64931  -0.00271  -0.01488   0.00000  -0.01493   2.63438
   R11        3.30367  -0.02965  -0.06531   0.00000  -0.06531   3.23836
   R12        3.30340  -0.03015  -0.06586   0.00000  -0.06586   3.23754
    A1        2.09159  -0.00291  -0.00560   0.00000  -0.00576   2.08583
    A2        2.09623   0.00169   0.00367   0.00000   0.00375   2.09998
    A3        2.09536   0.00122   0.00193   0.00000   0.00201   2.09737
    A4        2.09127  -0.00287  -0.00624   0.00000  -0.00624   2.08503
    A5        2.09983   0.00460   0.01087   0.00000   0.01087   2.11070
    A6        2.09208  -0.00173  -0.00462   0.00000  -0.00462   2.08746
    A7        2.10032   0.00578   0.01185   0.00000   0.01201   2.11232
    A8        2.08941  -0.00423  -0.00997   0.00000  -0.01005   2.07936
    A9        2.09346  -0.00154  -0.00187   0.00000  -0.00195   2.09150
   A10        2.10031   0.00578   0.01185   0.00000   0.01201   2.11232
   A11        2.09346  -0.00154  -0.00187   0.00000  -0.00195   2.09151
   A12        2.08941  -0.00423  -0.00997   0.00000  -0.01005   2.07935
   A13        2.09127  -0.00287  -0.00625   0.00000  -0.00624   2.08503
   A14        2.09208  -0.00173  -0.00462   0.00000  -0.00462   2.08745
   A15        2.09984   0.00460   0.01087   0.00000   0.01087   2.11070
   A16        2.09160  -0.00291  -0.00560   0.00000  -0.00576   2.08583
   A17        2.09536   0.00122   0.00193   0.00000   0.00201   2.09737
   A18        2.09623   0.00169   0.00367   0.00000   0.00376   2.09998
    D1        0.00000   0.00000   0.00000   0.00000   0.00000   0.00000
    D2        3.14159  -0.00000   0.00000   0.00000   0.00000   3.14159
    D3        3.14159   0.00000   0.00000   0.00000   0.00000   3.14159
    D4        0.00000   0.00000   0.00000   0.00000   0.00000   0.00000
    D5        0.00000  -0.00000   0.00000   0.00000   0.00000   0.00000
    D6        3.14159   0.00000   0.00000   0.00000   0.00000   3.14159
    D7        3.14159  -0.00000   0.00000   0.00000   0.00000   3.14159
    D8        0.00000  -0.00000   0.00000   0.00000   0.00000   0.00000
    D9        0.00000  -0.00000   0.00000   0.00000   0.00000   0.00000
   D10        3.14159  -0.00000   0.00000   0.00000   0.00000   3.14159
   D11        3.14159   0.00000   0.00000   0.00000   0.00000   3.14159
   D12        0.00000  -0.00000   0.00000   0.00000   0.00000   0.00000
   D13        0.00000  -0.00000   0.00000   0.00000   0.00000   0.00000
   D14        3.14159  -0.00000   0.00000   0.00000   0.00000   3.14159
   D15        3.14159   0.00000   0.00000   0.00000   0.00000   3.14159
   D16        0.00000  -0.00000   0.00000   0.00000   0.00000   0.00000
   D17        0.00000   0.00000   0.00000   0.00000   0.00000   0.00000
   D18        3.14159  -0.00000   0.00000   0.00000   0.00000   3.14159
   D19        3.14159   0.00000   0.00000   0.00000   0.00000   3.14159
   D20        0.00000   0.00000   0.00000   0.00000   0.00000   0.00000
   D21        0.00000  -0.00000   0.00000   0.00000   0.00000   0.00000
   D22        3.14159  -0.00000   0.00000   0.00000   0.00000   3.14159
   D23        3.14159   0.00000   0.00000   0.00000   0.00000   3.14159
   D24        0.00000  -0.00000   0.00000   0.00000   0.00000   0.00000
         Item               Value     Threshold  Converged?
 Maximum Force            0.121697     0.000450     NO 
 RMS     Force            0.025382     0.000300     NO 
 Maximum Displacement     0.355315     0.001800     NO 
 RMS     Displacement     0.091352     0.001200     NO 
 Predicted change in Energy=-1.086614D-01
 GradGradGradGradGradGradGradGradGradGradGradGradGradGradGradGradGradGrad

                          Input orientation:                          
 ---------------------------------------------------------------------
 Center     Atomic      Atomic             Coordinates (Angstroms)
 Number     Number       Type             X           Y           Z
 ---------------------------------------------------------------------
      1          6           0       -3.160771    0.194773    0.000000
      2          6           0       -1.966874    0.914494    0.000000
      3          6           0       -0.772788    0.240188    0.000000
      4          6           0       -0.735616   -1.112870    0.000000
      5          6           0       -1.890882   -1.851716    0.000000
      6          6           0       -3.122492   -1.198623    0.000000
      7         17           0       -4.579442   -2.099995    0.000000
      8         17           0       -4.665008    1.014800    0.000000
      9          1           0        0.534152   -1.795455    0.000000
     10         17           0       -1.801242   -3.563036    0.000000
     11         17           0       -1.971329    2.628158    0.000000
     12          1           0        0.457592    0.991453    0.000000
 ---------------------------------------------------------------------
                    Distance matrix (angstroms):
                    1          2          3          4          5
     1  C    0.000000
     2  C    1.394055   0.000000
     3  C    2.388414   1.371324   0.000000
     4  C    2.755233   2.371962   1.353569   0.000000
     5  C    2.408471   2.767253   2.371960   1.371325   0.000000
     6  C    1.393922   2.408468   2.755229   2.388416   1.394056
     7  Cl   2.697885   3.989067   4.468452   3.968553   2.699999
     8  Cl   1.713236   2.699998   3.968552   4.468457   3.989072
     9  H    4.196839   3.687676   2.419077   1.441607   2.425686
    10  Cl   3.996179   4.480593   3.939827   2.671867   1.713667
    11  Cl   2.708530   1.713669   2.671872   3.939832   4.480595
    12  H    3.705030   2.425687   1.441608   2.419075   3.687674
                    6          7          8          9         10
     6  C    0.000000
     7  Cl   1.713235   0.000000
     8  Cl   2.697888   3.115970   0.000000
     9  H    3.705031   5.122654   5.910060   0.000000
    10  Cl   2.708533   3.139886   5.399791   2.928892   0.000000
    11  Cl   3.996177   5.399785   3.139877   5.083875   6.193530
    12  H    4.196836   5.910055   5.122653   2.787960   5.083867
                   11         12
    11  Cl   0.000000
    12  H    2.928900   0.000000
 Stoichiometry    C6H2Cl4
 Framework group  CS[SG(C6H2Cl4)]
 Deg. of freedom    21
 Full point group                 CS      NOp   2
 Largest Abelian subgroup         CS      NOp   2
 Largest concise Abelian subgroup C1      NOp   1
                         Standard orientation:                         
 ---------------------------------------------------------------------
 Center     Atomic      Atomic             Coordinates (Angstroms)
 Number     Number       Type             X           Y           Z
 ---------------------------------------------------------------------
      1          6           0        0.404103   -0.696961    0.000000
      2          6           0       -0.809108   -1.383625    0.000000
      3          6           0       -1.984226   -0.676782    0.000000
      4          6           0       -1.984228    0.676787   -0.000000
      5          6           0       -0.809108    1.383628   -0.000000
      6          6           0        0.404103    0.696961   -0.000000
      7         17           0        1.885256    1.557983   -0.000000
      8         17           0        1.885255   -1.557987    0.000000
      9          1           0       -3.234772    1.393983   -0.000000
     10         17           0       -0.851719    3.096765   -0.000000
     11         17           0       -0.851713   -3.096764    0.000000
     12          1           0       -3.234772   -1.393977    0.000000
 ---------------------------------------------------------------------
 Rotational constants (GHZ):           1.1639627           0.5535523           0.3751433
 Standard basis: VSTO-6G (5D, 7F)
 There are    32 symmetry adapted cartesian basis functions of A'  symmetry.
 There are    10 symmetry adapted cartesian basis functions of A"  symmetry.
 There are    32 symmetry adapted basis functions of A'  symmetry.
 There are    10 symmetry adapted basis functions of A"  symmetry.
    42 basis functions,   252 primitive gaussians,    42 cartesian basis functions
    27 alpha electrons       27 beta electrons
       nuclear repulsion energy       306.8521571799 Hartrees.
 Integral buffers will be    131072 words long.
 Regular integral format.
 Two-electron integral symmetry is turned off.
 Do NDO integrals.
 One-electron integrals computed using PRISM.
 NBasis=    42 RedAO= T EigKep=  1.00D+00  NBF=    32    10
 NBsUse=    42 1.00D-06 EigRej= -1.00D+00 NBFU=    32    10
 Initial guess from the checkpoint file:  "geometry_chks/1245ClBz.chk"
 B after Tr=     0.000000    0.000000    0.000000
         Rot=    0.967443    0.000000   -0.000000   -0.253089 Ang= -29.32 deg.
 Initial guess orbital symmetries:
       Occupied  (A') (A') (A') (A') (A') (A') (A') (A') (A') (A')
                 (A') (A') (A") (A') (A') (A") (A") (A') (A') (A")
                 (A') (A') (A") (A') (A') (A") (A")
       Virtual   (A") (A") (A') (A') (A') (A') (A') (A') (A") (A')
                 (A') (A') (A') (A') (A')
 Keep J ints in memory in canonical form, NReq=864594.
 Overlap will be assumed to be unity.
 Requested convergence on RMS density matrix=1.00D-08 within**** cycles.
 Requested convergence on MAX density matrix=1.00D-06.
 Requested convergence on             energy=1.00D-06.
 No special actions if energy rises.
 Fock symm off for IB=2 I1=    1 I=   33 J=    7 Cut=1.00D-07 Err=3.90D-03
 Fock matrix is not symmetric: symmetry in diagonalization turned off.
 SCF Done:  E(RAM1) =  0.939866647125E-01 A.U. after   13 cycles
            NFock= 12  Conv=0.21D-08     -V/T= 1.0007
 Calling FoFJK, ICntrl=      2127 FMM=F ISym2X=1 I1Cent= 0 IOpClX= 0 NMat=1 NMatS=1 NMatT=0.
 ***** Axes restored to original set *****
 -------------------------------------------------------------------
 Center     Atomic                   Forces (Hartrees/Bohr)
 Number     Number              X              Y              Z
 -------------------------------------------------------------------
      1        6          -0.024367389    0.012212610    0.000000000
      2        6          -0.006857707    0.033693258    0.000000000
      3        6           0.115715832    0.071846790    0.000000000
      4        6           0.119483529   -0.065385665    0.000000000
      5        6          -0.004997528   -0.034016363    0.000000000
      6        6          -0.023659109   -0.013532730   -0.000000000
      7       17           0.009231669    0.005486736   -0.000000000
      8       17           0.009519398   -0.004972386   -0.000000000
      9        1          -0.098772539    0.052745220   -0.000000000
     10       17          -0.000048791    0.009626357   -0.000000000
     11       17           0.000480589   -0.009615813   -0.000000000
     12        1          -0.095727954   -0.058088012   -0.000000000
 -------------------------------------------------------------------
 Cartesian Forces:  Max     0.119483529 RMS     0.042961882

 GradGradGradGradGradGradGradGradGradGradGradGradGradGradGradGradGradGrad
 Berny optimization.
 Using GEDIIS/GDIIS optimizer.
 FormGI is forming the generalized inverse of G from B-inverse, IUseBI=4.
 Internal  Forces:  Max     0.111973108 RMS     0.022930939
 Search for a local minimum.
 Step number   3 out of a maximum of   64
 All quantities printed in internal units (Hartrees-Bohrs-Radians)
 Mixed Optimization -- RFO/linear search
 Update second derivatives using D2CorX and points    2    3
 ITU=  0  1  0
 Use linear search instead of GDIIS.
 Linear search step of   0.802 exceeds DXMaxT=   0.505 but not scaled.
 Quartic linear search produced a step of  1.33683.
 Iteration  1 RMS(Cart)=  0.06574276 RMS(Int)=  0.06649547
 Iteration  2 RMS(Cart)=  0.03593501 RMS(Int)=  0.02800524
 Iteration  3 RMS(Cart)=  0.02618441 RMS(Int)=  0.00012639
 Iteration  4 RMS(Cart)=  0.00000030 RMS(Int)=  0.00012639
 ClnCor:  largest displacement from symmetrization is 2.74D-08 for atom    10.
 Variable       Old X    -DE/DX   Delta X   Delta X   Delta X     New X
                                 (Linear)    (Quad)   (Total)
    R1        2.63438   0.01837  -0.01997   0.00000  -0.02008   2.61430
    R2        2.63413   0.01906  -0.02022   0.00000  -0.02045   2.61368
    R3        3.23755  -0.01074  -0.08806   0.00000  -0.08806   3.14949
    R4        2.59143   0.02406  -0.05821   0.00000  -0.05809   2.53334
    R5        3.23837  -0.00962  -0.08732   0.00000  -0.08732   3.15105
    R6        2.55787   0.02603  -0.08809   0.00000  -0.08786   2.47002
    R7        2.72424  -0.11197  -0.54551   0.00000  -0.54551   2.17874
    R8        2.59143   0.02406  -0.05822   0.00000  -0.05809   2.53334
    R9        2.72424  -0.11197  -0.54551   0.00000  -0.54551   2.17874
   R10        2.63438   0.01836  -0.01996   0.00000  -0.02007   2.61432
   R11        3.23836  -0.00962  -0.08731   0.00000  -0.08731   3.15105
   R12        3.23754  -0.01074  -0.08804   0.00000  -0.08804   3.14950
    A1        2.08583   0.00236  -0.00770   0.00000  -0.00805   2.07778
    A2        2.09998  -0.00149   0.00502   0.00000   0.00519   2.10517
    A3        2.09737  -0.00087   0.00268   0.00000   0.00286   2.10023
    A4        2.08503  -0.00172  -0.00835   0.00000  -0.00834   2.07669
    A5        2.11070   0.00160   0.01453   0.00000   0.01452   2.12522
    A6        2.08746   0.00012  -0.00618   0.00000  -0.00618   2.08127
    A7        2.11232  -0.00064   0.01605   0.00000   0.01639   2.12871
    A8        2.07936  -0.00010  -0.01344   0.00000  -0.01361   2.06575
    A9        2.09150   0.00074  -0.00261   0.00000  -0.00278   2.08873
   A10        2.11232  -0.00064   0.01605   0.00000   0.01639   2.12871
   A11        2.09151   0.00074  -0.00261   0.00000  -0.00278   2.08873
   A12        2.07935  -0.00010  -0.01344   0.00000  -0.01361   2.06575
   A13        2.08503  -0.00172  -0.00835   0.00000  -0.00834   2.07669
   A14        2.08745   0.00012  -0.00618   0.00000  -0.00618   2.08127
   A15        2.11070   0.00160   0.01453   0.00000   0.01452   2.12523
   A16        2.08583   0.00236  -0.00771   0.00000  -0.00805   2.07778
   A17        2.09737  -0.00087   0.00269   0.00000   0.00286   2.10022
   A18        2.09998  -0.00149   0.00502   0.00000   0.00519   2.10518
    D1        0.00000   0.00000   0.00000   0.00000  -0.00000   0.00000
    D2        3.14159  -0.00000   0.00000   0.00000   0.00000   3.14159
    D3        3.14159   0.00000   0.00000   0.00000   0.00000   3.14159
    D4       -0.00000   0.00000   0.00000   0.00000   0.00000   0.00000
    D5        0.00000   0.00000   0.00000   0.00000   0.00000   0.00000
    D6        3.14159   0.00000   0.00000   0.00000   0.00000   3.14159
    D7        3.14159  -0.00000   0.00000   0.00000   0.00000   3.14159
    D8       -0.00000  -0.00000   0.00000   0.00000   0.00000   0.00000
    D9       -0.00000  -0.00000   0.00000   0.00000   0.00000   0.00000
   D10        3.14159  -0.00000   0.00000   0.00000   0.00000   3.14159
   D11        3.14159   0.00000   0.00000   0.00000   0.00000   3.14159
   D12        0.00000  -0.00000   0.00000   0.00000   0.00000   0.00000
   D13       -0.00000   0.00000   0.00000   0.00000   0.00000   0.00000
   D14        3.14159  -0.00000   0.00000   0.00000   0.00000   3.14159
   D15        3.14159   0.00000   0.00000   0.00000   0.00000   3.14159
   D16       -0.00000  -0.00000   0.00000   0.00000   0.00000   0.00000
   D17        0.00000   0.00000   0.00000   0.00000   0.00000   0.00000
   D18        3.14159  -0.00000   0.00000   0.00000   0.00000   3.14159
   D19        3.14159   0.00000   0.00000   0.00000   0.00000   3.14159
   D20        0.00000   0.00000   0.00000   0.00000  -0.00000   0.00000
   D21       -0.00000  -0.00000   0.00000   0.00000   0.00000   0.00000
   D22        3.14159  -0.00000   0.00000   0.00000   0.00000   3.14159
   D23        3.14159   0.00000   0.00000   0.00000   0.00000   3.14159
   D24        0.00000   0.00000   0.00000   0.00000   0.00000   0.00000
         Item               Value     Threshold  Converged?
 Maximum Force            0.111973     0.000450     NO 
 RMS     Force            0.022931     0.000300     NO 
 Maximum Displacement     0.475430     0.001800     NO 
 RMS     Displacement     0.122070     0.001200     NO 
 Predicted change in Energy=-1.001722D-01
 GradGradGradGradGradGradGradGradGradGradGradGradGradGradGradGradGradGrad

                          Input orientation:                          
 ---------------------------------------------------------------------
 Center     Atomic      Atomic             Coordinates (Angstroms)
 Number     Number       Type             X           Y           Z
 ---------------------------------------------------------------------
      1          6           0       -3.117219    0.190557    0.000000
      2          6           0       -1.926713    0.895232    0.000000
      3          6           0       -0.770350    0.217000    0.000000
      4          6           0       -0.734455   -1.089584   -0.000000
      5          6           0       -1.851834   -1.830278   -0.000000
      6          6           0       -3.079239   -1.192020   -0.000000
      7         17           0       -4.494058   -2.072925   -0.000000
      8         17           0       -4.578257    0.992462    0.000000
      9          1           0        0.282565   -1.632662   -0.000000
     10         17           0       -1.727050   -3.493068   -0.000000
     11         17           0       -1.893413    2.562362    0.000000
     12          1           0        0.215322    0.815094    0.000000
 ---------------------------------------------------------------------
                    Distance matrix (angstroms):
                    1          2          3          4          5
     1  C    0.000000
     2  C    1.383428   0.000000
     3  C    2.347017   1.340586   0.000000
     4  C    2.704870   2.315378   1.307077   0.000000
     5  C    2.384318   2.726538   2.315374   1.340583   0.000000
     6  C    1.383099   2.384311   2.704867   2.347021   1.383436
     7  Cl   2.649346   3.924438   4.371470   3.886074   2.653342
     8  Cl   1.666639   2.653327   3.886065   4.371468   3.924442
     9  H    3.857805   3.357254   2.128352   1.152937   2.143528
    10  Cl   3.937215   4.392840   3.831434   2.600381   1.667466
    11  Cl   2.668925   1.667463   2.600383   3.831435   4.392837
    12  H    3.390557   2.143533   1.152938   2.128351   3.357250
                    6          7          8          9         10
     6  C    0.000000
     7  Cl   1.666644   0.000000
     8  Cl   2.649343   3.066542   0.000000
     9  H    3.390560   4.796870   5.524389   0.000000
    10  Cl   2.668940   3.110168   5.315013   2.738552   0.000000
    11  Cl   3.937204   5.315001   3.110141   4.725792   6.057716
    12  H    3.857803   5.524392   4.796860   2.448679   4.725788
                   11         12
    11  Cl   0.000000
    12  H    2.738560   0.000000
 Stoichiometry    C6H2Cl4
 Framework group  CS[SG(C6H2Cl4)]
 Deg. of freedom    21
 Full point group                 CS      NOp   2
 Largest Abelian subgroup         CS      NOp   2
 Largest concise Abelian subgroup C1      NOp   1
                         Standard orientation:                         
 ---------------------------------------------------------------------
 Center     Atomic      Atomic             Coordinates (Angstroms)
 Number     Number       Type             X           Y           Z
 ---------------------------------------------------------------------
      1          6           0        0.715019   -0.376058   -0.000000
      2          6           0        0.027019   -1.576278   -0.000000
      3          6           0       -1.313424   -1.556697   -0.000000
      4          6           0       -1.989146   -0.437835    0.000000
      5          6           0       -1.382524    0.757645    0.000000
      6          6           0       -0.000000    0.807880    0.000000
      7         17           0        0.796195    2.272044    0.000000
      8         17           0        2.381498   -0.352932   -0.000000
      9          1           0       -3.141711   -0.467089    0.000000
     10         17           0       -2.311274    2.142516    0.000000
     11         17           0        0.820396   -3.042903   -0.000000
     12          1           0       -1.875817   -2.563167   -0.000000
 ---------------------------------------------------------------------
 Rotational constants (GHZ):           1.2045384           0.5773259           0.3902717
 Standard basis: VSTO-6G (5D, 7F)
 There are    32 symmetry adapted cartesian basis functions of A'  symmetry.
 There are    10 symmetry adapted cartesian basis functions of A"  symmetry.
 There are    32 symmetry adapted basis functions of A'  symmetry.
 There are    10 symmetry adapted basis functions of A"  symmetry.
    42 basis functions,   252 primitive gaussians,    42 cartesian basis functions
    27 alpha electrons       27 beta electrons
       nuclear repulsion energy       311.8197918066 Hartrees.
 Integral buffers will be    131072 words long.
 Regular integral format.
 Two-electron integral symmetry is turned off.
 Do NDO integrals.
 One-electron integrals computed using PRISM.
 NBasis=    42 RedAO= T EigKep=  1.00D+00  NBF=    32    10
 NBsUse=    42 1.00D-06 EigRej= -1.00D+00 NBFU=    32    10
 Initial guess from the checkpoint file:  "geometry_chks/1245ClBz.chk"
 B after Tr=    -0.000000   -0.000000   -0.000000
         Rot=    0.963328   -0.000000   -0.000000   -0.268325 Ang= -31.13 deg.
 Initial guess orbital symmetries:
       Occupied  (A') (A') (A') (A') (A') (A') (A') (A') (A') (A')
                 (A') (A') (A") (A') (A') (A") (A') (A") (A') (A")
                 (A') (A') (A") (A') (A') (A") (A")
       Virtual   (A") (A") (A') (A') (A') (A') (A') (A') (A") (A')
                 (A') (A') (A') (A') (A')
 Keep J ints in memory in canonical form, NReq=864594.
 Overlap will be assumed to be unity.
 Requested convergence on RMS density matrix=1.00D-08 within**** cycles.
 Requested convergence on MAX density matrix=1.00D-06.
 Requested convergence on             energy=1.00D-06.
 No special actions if energy rises.
 Fock symm off for IB=2 I1=    1 I=   33 J=    6 Cut=1.00D-07 Err=2.89D-03
 Fock matrix is not symmetric: symmetry in diagonalization turned off.
 SCF Done:  E(RAM1) =  0.262089300795E-01 A.U. after   11 cycles
            NFock= 10  Conv=0.75D-08     -V/T= 1.0002
 Calling FoFJK, ICntrl=      2127 FMM=F ISym2X=1 I1Cent= 0 IOpClX= 0 NMat=1 NMatS=1 NMatT=0.
 ***** Axes restored to original set *****
 -------------------------------------------------------------------
 Center     Atomic                   Forces (Hartrees/Bohr)
 Number     Number              X              Y              Z
 -------------------------------------------------------------------
      1        6          -0.023641454    0.011454288    0.000000000
      2        6          -0.041438212    0.046756962    0.000000000
      3        6           0.099472281    0.098110292    0.000000000
      4        6           0.104710099   -0.092498075   -0.000000000
      5        6          -0.038821560   -0.048961583    0.000000000
      6        6          -0.022971166   -0.012742696   -0.000000000
      7       17          -0.017170186   -0.011611758   -0.000000000
      8       17          -0.017786524    0.010652937   -0.000000000
      9        1          -0.020262884    0.011854507   -0.000000000
     10       17          -0.000608678   -0.023554339   -0.000000000
     11       17          -0.001899374    0.023488464   -0.000000000
     12        1          -0.019582343   -0.012948999   -0.000000000
 -------------------------------------------------------------------
 Cartesian Forces:  Max     0.104710099 RMS     0.037749381

 GradGradGradGradGradGradGradGradGradGradGradGradGradGradGradGradGradGrad
 Berny optimization.
 Using GEDIIS/GDIIS optimizer.
 FormGI is forming the generalized inverse of G from B-inverse, IUseBI=4.
 Internal  Forces:  Max     0.124861673 RMS     0.028712032
 Search for a local minimum.
 Step number   4 out of a maximum of   64
 All quantities printed in internal units (Hartrees-Bohrs-Radians)
 Mixed Optimization -- RFO/linear search
 Update second derivatives using D2CorX and points    3    4
 ITU=  0  0  1  0
 Use linear search instead of GDIIS.
     Eigenvalues ---    0.02011   0.02011   0.02011   0.02011   0.02011
     Eigenvalues ---    0.02011   0.02011   0.02011   0.02011   0.06524
     Eigenvalues ---    0.11965   0.16000   0.16002   0.22452   0.24462
     Eigenvalues ---    0.24997   0.25000   0.25000   0.25000   0.25012
     Eigenvalues ---    0.27413   0.29033   0.29033   0.29039   0.40966
     Eigenvalues ---    0.41238   0.44654   0.44656   0.44657   0.58908
 RFO step:  Lambda=-8.71799190D-02 EMin= 2.01065865D-02
 Quartic linear search produced a step of -0.03986.
 Iteration  1 RMS(Cart)=  0.06689889 RMS(Int)=  0.00446515
 Iteration  2 RMS(Cart)=  0.00325253 RMS(Int)=  0.00035769
 Iteration  3 RMS(Cart)=  0.00000361 RMS(Int)=  0.00035768
 Iteration  4 RMS(Cart)=  0.00000000 RMS(Int)=  0.00035768
 ClnCor:  largest displacement from symmetrization is 1.25D-08 for atom     7.
 Variable       Old X    -DE/DX   Delta X   Delta X   Delta X     New X
                                 (Linear)    (Quad)   (Total)
    R1        2.61430   0.04999   0.00080   0.08316   0.08364   2.69794
    R2        2.61368   0.05272   0.00082   0.08525   0.08543   2.69911
    R3        3.14949   0.02072   0.00351   0.04866   0.05217   3.20166
    R4        2.53334   0.09193   0.00232   0.15865   0.16129   2.69463
    R5        3.15105   0.02345   0.00348   0.05507   0.05855   3.20960
    R6        2.47002   0.12486   0.00350   0.21558   0.21971   2.68973
    R7        2.17874  -0.02346   0.02174  -0.23959  -0.21785   1.96089
    R8        2.53334   0.09193   0.00232   0.15867   0.16130   2.69464
    R9        2.17874  -0.02346   0.02174  -0.23959  -0.21784   1.96089
   R10        2.61432   0.04998   0.00080   0.08313   0.08361   2.69793
   R11        3.15105   0.02344   0.00348   0.05506   0.05854   3.20960
   R12        3.14950   0.02071   0.00351   0.04865   0.05216   3.20166
    A1        2.07778   0.01312   0.00032   0.02290   0.02224   2.10002
    A2        2.10517  -0.00779  -0.00021  -0.01472  -0.01444   2.09074
    A3        2.10023  -0.00533  -0.00011  -0.00818  -0.00780   2.09242
    A4        2.07669   0.00106   0.00033   0.00338   0.00371   2.08040
    A5        2.12522  -0.00426  -0.00058  -0.01136  -0.01194   2.11328
    A6        2.08127   0.00320   0.00025   0.00798   0.00823   2.08950
    A7        2.12871  -0.01419  -0.00065  -0.02628  -0.02595   2.10276
    A8        2.06575   0.00809   0.00054   0.01654   0.01659   2.08234
    A9        2.08873   0.00610   0.00011   0.00974   0.00936   2.09808
   A10        2.12871  -0.01418  -0.00065  -0.02627  -0.02595   2.10276
   A11        2.08873   0.00610   0.00011   0.00973   0.00936   2.09808
   A12        2.06575   0.00809   0.00054   0.01654   0.01660   2.08234
   A13        2.07669   0.00106   0.00033   0.00338   0.00371   2.08040
   A14        2.08127   0.00320   0.00025   0.00799   0.00823   2.08951
   A15        2.12523  -0.00427  -0.00058  -0.01137  -0.01195   2.11328
   A16        2.07778   0.01312   0.00032   0.02290   0.02224   2.10003
   A17        2.10022  -0.00533  -0.00011  -0.00817  -0.00780   2.09243
   A18        2.10518  -0.00779  -0.00021  -0.01472  -0.01444   2.09073
    D1        0.00000   0.00000   0.00000   0.00000   0.00000   0.00000
    D2        3.14159  -0.00000   0.00000  -0.00000   0.00000   3.14159
    D3        3.14159   0.00000   0.00000   0.00000   0.00000   3.14159
    D4       -0.00000  -0.00000   0.00000   0.00000   0.00000   0.00000
    D5       -0.00000  -0.00000   0.00000  -0.00000   0.00000   0.00000
    D6        3.14159   0.00000   0.00000   0.00000   0.00000   3.14159
    D7        3.14159  -0.00000   0.00000  -0.00000   0.00000   3.14159
    D8       -0.00000  -0.00000   0.00000  -0.00000   0.00000   0.00000
    D9       -0.00000  -0.00000   0.00000  -0.00000   0.00000   0.00000
   D10        3.14159  -0.00000   0.00000  -0.00000   0.00000   3.14159
   D11        3.14159   0.00000   0.00000   0.00000   0.00000   3.14159
   D12        0.00000  -0.00000   0.00000  -0.00000   0.00000   0.00000
   D13       -0.00000  -0.00000   0.00000  -0.00000   0.00000   0.00000
   D14        3.14159  -0.00000   0.00000  -0.00000   0.00000   3.14159
   D15        3.14159   0.00000   0.00000   0.00000   0.00000   3.14159
   D16        0.00000   0.00000   0.00000   0.00000  -0.00000   0.00000
   D17        0.00000   0.00000   0.00000   0.00000  -0.00000   0.00000
   D18        3.14159  -0.00000   0.00000  -0.00000   0.00000   3.14159
   D19        3.14159   0.00000   0.00000   0.00000   0.00000   3.14159
   D20        0.00000   0.00000   0.00000   0.00000  -0.00000   0.00000
   D21        0.00000  -0.00000   0.00000  -0.00000  -0.00000   0.00000
   D22        3.14159  -0.00000   0.00000  -0.00000   0.00000   3.14159
   D23        3.14159   0.00000   0.00000   0.00000   0.00000   3.14159
   D24        0.00000  -0.00000   0.00000  -0.00000   0.00000   0.00000
         Item               Value     Threshold  Converged?
 Maximum Force            0.124862     0.000450     NO 
 RMS     Force            0.028712     0.000300     NO 
 Maximum Displacement     0.199639     0.001800     NO 
 RMS     Displacement     0.068323     0.001200     NO 
 Predicted change in Energy=-5.364339D-02
 GradGradGradGradGradGradGradGradGradGradGradGradGradGradGradGradGradGrad

                          Input orientation:                          
 ---------------------------------------------------------------------
 Center     Atomic      Atomic             Coordinates (Angstroms)
 Number     Number       Type             X           Y           Z
 ---------------------------------------------------------------------
      1          6           0       -3.131670    0.212770    0.000000
      2          6           0       -1.919553    0.967134    0.000000
      3          6           0       -0.671265    0.277880    0.000000
      4          6           0       -0.632179   -1.144928   -0.000000
      5          6           0       -1.840747   -1.901676   -0.000000
      6          6           0       -3.092447   -1.214999   -0.000000
      7         17           0       -4.537635   -2.099251   -0.000000
      8         17           0       -4.623228    1.016344    0.000000
      9          1           0        0.278540   -1.642249   -0.000000
     10         17           0       -1.771609   -3.598713   -0.000000
     11         17           0       -1.943686    2.665408    0.000000
     12          1           0        0.210777    0.824449    0.000000
 ---------------------------------------------------------------------
                    Distance matrix (angstroms):
                    1          2          3          4          5
     1  C    0.000000
     2  C    1.427687   0.000000
     3  C    2.461267   1.425937   0.000000
     4  C    2.844434   2.473488   1.423346   0.000000
     5  C    2.477371   2.869892   2.473490   1.425939   0.000000
     6  C    1.428308   2.477374   2.844435   2.461266   1.427683
     7  Cl   2.705953   4.032005   4.538675   4.020363   2.704115
     8  Cl   1.694247   2.704122   4.020366   4.538675   4.032002
     9  H    3.882091   3.411817   2.142201   1.037659   2.135106
    10  Cl   4.046872   4.568243   4.029731   2.705431   1.698445
    11  Cl   2.725205   1.698446   2.705429   4.029729   4.568244
    12  H    3.397956   2.135104   1.037658   2.142200   3.411818
                    6          7          8          9         10
     6  C    0.000000
     7  Cl   1.694246   0.000000
     8  Cl   2.705952   3.116770   0.000000
     9  H    3.397954   4.837808   5.576329   0.000000
    10  Cl   2.725198   3.146313   5.424986   2.833877   0.000000
    11  Cl   4.046877   5.424993   3.146325   4.847081   6.266484
    12  H    3.882091   5.576328   4.837812   2.467628   4.847083
                   11         12
    11  Cl   0.000000
    12  H    2.833874   0.000000
 Stoichiometry    C6H2Cl4
 Framework group  CS[SG(C6H2Cl4)]
 Deg. of freedom    21
 Full point group                 CS      NOp   2
 Largest Abelian subgroup         CS      NOp   2
 Largest concise Abelian subgroup C1      NOp   1
                         Standard orientation:                         
 ---------------------------------------------------------------------
 Center     Atomic      Atomic             Coordinates (Angstroms)
 Number     Number       Type             X           Y           Z
 ---------------------------------------------------------------------
      1          6           0        0.412852   -0.714153    0.000000
      2          6           0       -0.819522   -1.434948    0.000000
      3          6           0       -2.048414   -0.711676    0.000000
      4          6           0       -2.048415    0.711669    0.000000
      5          6           0       -0.819522    1.434944    0.000000
      6          6           0        0.412850    0.714155    0.000000
      7         17           0        1.881774    1.558389    0.000000
      8         17           0        1.881781   -1.558381    0.000000
      9          1           0       -2.945134    1.233810    0.000000
     10         17           0       -0.842034    3.133240    0.000000
     11         17           0       -0.842034   -3.133244    0.000000
     12          1           0       -2.945131   -1.233818    0.000000
 ---------------------------------------------------------------------
 Rotational constants (GHZ):           1.1608545           0.5414835           0.3692472
 Standard basis: VSTO-6G (5D, 7F)
 There are    32 symmetry adapted cartesian basis functions of A'  symmetry.
 There are    10 symmetry adapted cartesian basis functions of A"  symmetry.
 There are    32 symmetry adapted basis functions of A'  symmetry.
 There are    10 symmetry adapted basis functions of A"  symmetry.
    42 basis functions,   252 primitive gaussians,    42 cartesian basis functions
    27 alpha electrons       27 beta electrons
       nuclear repulsion energy       306.2412102902 Hartrees.
 Integral buffers will be    131072 words long.
 Regular integral format.
 Two-electron integral symmetry is turned off.
 Do NDO integrals.
 One-electron integrals computed using PRISM.
 NBasis=    42 RedAO= T EigKep=  1.00D+00  NBF=    32    10
 NBsUse=    42 1.00D-06 EigRej= -1.00D+00 NBFU=    32    10
 Initial guess from the checkpoint file:  "geometry_chks/1245ClBz.chk"
 B after Tr=    -0.000000    0.000000   -0.000000
         Rot=    0.963329    0.000000    0.000000    0.268325 Ang=  31.13 deg.
 Initial guess orbital symmetries:
       Occupied  (A') (A') (A') (A') (A') (A') (A') (A') (A') (A')
                 (A') (A') (A") (A') (A') (A") (A') (A") (A') (A")
                 (A') (A') (A') (A") (A') (A") (A")
       Virtual   (A") (A") (A') (A') (A') (A') (A") (A') (A') (A')
                 (A') (A') (A') (A') (A')
 Keep J ints in memory in canonical form, NReq=864594.
 Overlap will be assumed to be unity.
 Requested convergence on RMS density matrix=1.00D-08 within**** cycles.
 Requested convergence on MAX density matrix=1.00D-06.
 Requested convergence on             energy=1.00D-06.
 No special actions if energy rises.
 Fock symm off for IB=2 I1=    1 I=   33 J=   12 Cut=1.00D-07 Err=3.30D-03
 Fock matrix is not symmetric: symmetry in diagonalization turned off.
 SCF Done:  E(RAM1) =  0.100126556075E-01 A.U. after   13 cycles
            NFock= 12  Conv=0.48D-08     -V/T= 1.0001
 Calling FoFJK, ICntrl=      2127 FMM=F ISym2X=1 I1Cent= 0 IOpClX= 0 NMat=1 NMatS=1 NMatT=0.
 ***** Axes restored to original set *****
 -------------------------------------------------------------------
 Center     Atomic                   Forces (Hartrees/Bohr)
 Number     Number              X              Y              Z
 -------------------------------------------------------------------
      1        6           0.023139210   -0.010402792    0.000000000
      2        6           0.001451700   -0.034310030    0.000000000
      3        6          -0.067509326   -0.042445088    0.000000000
      4        6          -0.069738475    0.038672814    0.000000000
      5        6          -0.000428843    0.034338133    0.000000000
      6        6           0.022531000    0.011659964    0.000000000
      7       17           0.003147886    0.002081818   -0.000000000
      8       17           0.003258849   -0.001905910   -0.000000000
      9        1           0.042258776   -0.021437756   -0.000000000
     10       17           0.000220368    0.007842756   -0.000000000
     11       17           0.000649946   -0.007819758   -0.000000000
     12        1           0.041018910    0.023725848   -0.000000000
 -------------------------------------------------------------------
 Cartesian Forces:  Max     0.069738475 RMS     0.024155990

 GradGradGradGradGradGradGradGradGradGradGradGradGradGradGradGradGradGrad
 Berny optimization.
 Using GEDIIS/GDIIS optimizer.
 FormGI is forming the generalized inverse of G from B-inverse, IUseBI=4.
 Internal  Forces:  Max     0.047364524 RMS     0.014894363
 Search for a local minimum.
 Step number   5 out of a maximum of   64
 All quantities printed in internal units (Hartrees-Bohrs-Radians)
 Mixed Optimization -- RFO/linear search
 Update second derivatives using D2CorX and points    4    5
 DE= -1.62D-02 DEPred=-5.36D-02 R= 3.02D-01
 Trust test= 3.02D-01 RLast= 4.83D-01 DXMaxT set to 5.05D-01
 ITU=  0  0  0  1  0
 Use linear search instead of GDIIS.
     Eigenvalues ---    0.02011   0.02011   0.02011   0.02011   0.02011
     Eigenvalues ---    0.02011   0.02011   0.02011   0.02011   0.06524
     Eigenvalues ---    0.15991   0.16000   0.19567   0.22483   0.24438
     Eigenvalues ---    0.24998   0.25000   0.25000   0.25000   0.25011
     Eigenvalues ---    0.27575   0.29033   0.29033   0.29048   0.40808
     Eigenvalues ---    0.41265   0.44636   0.44657   0.44666   0.74587
 RFO step:  Lambda=-8.07064595D-03 EMin= 2.01065859D-02
 Quartic linear search produced a step of -0.38940.
 Iteration  1 RMS(Cart)=  0.03509209 RMS(Int)=  0.00059591
 Iteration  2 RMS(Cart)=  0.00051198 RMS(Int)=  0.00013522
 Iteration  3 RMS(Cart)=  0.00000010 RMS(Int)=  0.00013522
 ClnCor:  largest displacement from symmetrization is 5.57D-11 for atom    12.
 Variable       Old X    -DE/DX   Delta X   Delta X   Delta X     New X
                                 (Linear)    (Quad)   (Total)
    R1        2.69794  -0.03290  -0.03257  -0.00434  -0.03679   2.66115
    R2        2.69911  -0.03366  -0.03327  -0.00445  -0.03748   2.66163
    R3        3.20166  -0.00377  -0.02032   0.01918  -0.00114   3.20053
    R4        2.69463  -0.03419  -0.06281   0.03003  -0.03290   2.66173
    R5        3.20960  -0.00783  -0.02280   0.01363  -0.00917   3.20042
    R6        2.68973  -0.03953  -0.08556   0.04922  -0.03658   2.65315
    R7        1.96089   0.04736   0.08483   0.11817   0.20300   2.16389
    R8        2.69464  -0.03419  -0.06281   0.03003  -0.03290   2.66173
    R9        1.96089   0.04736   0.08483   0.11817   0.20300   2.16389
   R10        2.69793  -0.03290  -0.03256  -0.00434  -0.03678   2.66115
   R11        3.20960  -0.00783  -0.02280   0.01362  -0.00917   3.20042
   R12        3.20166  -0.00377  -0.02031   0.01918  -0.00113   3.20053
    A1        2.10002  -0.00346  -0.00866   0.00237  -0.00592   2.09410
    A2        2.09074   0.00194   0.00562  -0.00226   0.00318   2.09392
    A3        2.09242   0.00152   0.00304  -0.00011   0.00274   2.09517
    A4        2.08040   0.00535  -0.00144   0.01431   0.01287   2.09327
    A5        2.11328  -0.00181   0.00465  -0.00987  -0.00522   2.10806
    A6        2.08950  -0.00354  -0.00320  -0.00444  -0.00765   2.08186
    A7        2.10276  -0.00189   0.01011  -0.01668  -0.00694   2.09582
    A8        2.08234   0.00235  -0.00646   0.01519   0.00891   2.09125
    A9        2.09808  -0.00047  -0.00364   0.00149  -0.00197   2.09612
   A10        2.10276  -0.00189   0.01011  -0.01668  -0.00694   2.09582
   A11        2.09808  -0.00047  -0.00364   0.00149  -0.00197   2.09612
   A12        2.08234   0.00235  -0.00646   0.01519   0.00891   2.09125
   A13        2.08040   0.00535  -0.00145   0.01431   0.01287   2.09327
   A14        2.08951  -0.00354  -0.00321  -0.00444  -0.00765   2.08186
   A15        2.11328  -0.00181   0.00465  -0.00987  -0.00522   2.10806
   A16        2.10003  -0.00346  -0.00866   0.00237  -0.00592   2.09410
   A17        2.09243   0.00152   0.00304  -0.00011   0.00274   2.09517
   A18        2.09073   0.00194   0.00562  -0.00226   0.00318   2.09392
    D1        0.00000  -0.00000   0.00000  -0.00000   0.00000   0.00000
    D2        3.14159  -0.00000   0.00000  -0.00000   0.00000   3.14159
    D3        3.14159   0.00000   0.00000   0.00000   0.00000   3.14159
    D4        0.00000   0.00000   0.00000   0.00000   0.00000   0.00000
    D5        0.00000   0.00000   0.00000   0.00000   0.00000   0.00000
    D6        3.14159   0.00000   0.00000   0.00000   0.00000   3.14159
    D7        3.14159  -0.00000   0.00000  -0.00000   0.00000   3.14159
    D8        0.00000  -0.00000   0.00000  -0.00000   0.00000   0.00000
    D9        0.00000   0.00000   0.00000  -0.00000   0.00000   0.00000
   D10        3.14159  -0.00000   0.00000  -0.00000   0.00000   3.14159
   D11        3.14159   0.00000   0.00000   0.00000   0.00000   3.14159
   D12        0.00000   0.00000   0.00000   0.00000   0.00000   0.00000
   D13        0.00000   0.00000   0.00000   0.00000   0.00000   0.00000
   D14        3.14159  -0.00000   0.00000  -0.00000   0.00000   3.14159
   D15        3.14159   0.00000   0.00000   0.00000   0.00000   3.14159
   D16        0.00000  -0.00000   0.00000  -0.00000   0.00000   0.00000
   D17        0.00000  -0.00000   0.00000   0.00000   0.00000   0.00000
   D18        3.14159  -0.00000   0.00000  -0.00000   0.00000   3.14159
   D19        3.14159   0.00000   0.00000   0.00000   0.00000   3.14159
   D20        0.00000   0.00000   0.00000   0.00000   0.00000   0.00000
   D21        0.00000   0.00000   0.00000  -0.00000   0.00000   0.00000
   D22        3.14159  -0.00000   0.00000  -0.00000   0.00000   3.14159
   D23        3.14159   0.00000   0.00000   0.00000   0.00000   3.14159
   D24        0.00000   0.00000   0.00000   0.00000   0.00000   0.00000
[...]
 DE= -6.53D-06 DEPred=-6.86D-06 R= 9.52D-01
 TightC=F SS=  1.41D+00  RLast= 5.13D-03 DXNew= 1.4270D+00 1.5394D-02
 Trust test= 9.52D-01 RLast= 5.13D-03 DXMaxT set to 8.49D-01
 ITU=  1  1  1  1  0  0  0  1  0
     Eigenvalues ---    0.02011   0.02011   0.02011   0.02011   0.02011
     Eigenvalues ---    0.02011   0.02011   0.02011   0.02011   0.06528
     Eigenvalues ---    0.15838   0.16000   0.21006   0.22483   0.24898
     Eigenvalues ---    0.25000   0.25000   0.25000   0.25200   0.27860
     Eigenvalues ---    0.28082   0.29033   0.29033   0.34268   0.41096
     Eigenvalues ---    0.43068   0.44601   0.44657   0.60920   0.79873
 En-DIIS/RFO-DIIS/Sim-DIIS IScMMF=       -3 using points:     9    8    7
 RFO step:  Lambda=-4.55681929D-07.
 Use linear search instead of GDIIS.
 RFO step:  Lambda=-4.24280349D-07 EMin= 2.01065827D-02
 Quartic linear search produced a step of -0.04663.
 Iteration  1 RMS(Cart)=  0.00021565 RMS(Int)=  0.00000001
 Iteration  2 RMS(Cart)=  0.00000002 RMS(Int)=  0.00000000
 ClnCor:  largest displacement from symmetrization is 2.00D-12 for atom    11.
 Variable       Old X    -DE/DX   Delta X   Delta X   Delta X     New X
                                 (Linear)    (Quad)   (Total)
    R1        2.65282   0.00003   0.00009  -0.00019  -0.00009   2.65273
    R2        2.65782   0.00018   0.00006   0.00020   0.00026   2.65809
    R3        3.19795   0.00013   0.00009   0.00027   0.00035   3.19830
    R4        2.64311   0.00011  -0.00002   0.00016   0.00015   2.64325
    R5        3.20247   0.00005   0.00001   0.00014   0.00015   3.20262
    R6        2.62663   0.00005  -0.00008   0.00012   0.00004   2.62667
    R7        2.08155   0.00016   0.00003   0.00069   0.00072   2.08227
    R8        2.64311   0.00011  -0.00002   0.00015   0.00014   2.64324
    R9        2.08170   0.00011   0.00002  -0.00004  -0.00001   2.08168
   R10        2.65282   0.00003   0.00009  -0.00019  -0.00010   2.65273
   R11        3.20247   0.00005   0.00001   0.00014   0.00015   3.20262
   R12        3.19795   0.00013   0.00009   0.00027   0.00035   3.19830
    A1        2.08808  -0.00005  -0.00002  -0.00017  -0.00019   2.08789
    A2        2.09813   0.00005   0.00001   0.00018   0.00019   2.09832
    A3        2.09698  -0.00000   0.00001  -0.00002  -0.00001   2.09697
    A4        2.09813   0.00009  -0.00002   0.00040   0.00038   2.09850
    A5        2.11045  -0.00004   0.00005  -0.00025  -0.00020   2.11024
    A6        2.07461  -0.00004  -0.00003  -0.00015  -0.00017   2.07444
    A7        2.09698  -0.00004   0.00004  -0.00024  -0.00020   2.09678
    A8        2.09388   0.00002  -0.00001   0.00010   0.00009   2.09397
    A9        2.09232   0.00002  -0.00003   0.00014   0.00011   2.09243
   A10        2.09698  -0.00004   0.00004  -0.00022  -0.00018   2.09680
   A11        2.09232   0.00002  -0.00003   0.00013   0.00010   2.09243
   A12        2.09388   0.00002  -0.00001   0.00009   0.00008   2.09396
   A13        2.09813   0.00009  -0.00002   0.00040   0.00037   2.09850
   A14        2.07461  -0.00004  -0.00003  -0.00015  -0.00017   2.07444
   A15        2.11045  -0.00004   0.00005  -0.00025  -0.00020   2.11025
   A16        2.08808  -0.00005  -0.00002  -0.00017  -0.00019   2.08789
   A17        2.09698  -0.00000   0.00001  -0.00001  -0.00001   2.09697
   A18        2.09813   0.00005   0.00001   0.00018   0.00019   2.09832
    D1       -0.00000   0.00000   0.00000   0.00000   0.00000   0.00000
    D2        3.14159  -0.00000   0.00000  -0.00000   0.00000   3.14159
    D3        3.14159   0.00000   0.00000   0.00000   0.00000   3.14159
    D4       -0.00000   0.00000   0.00000   0.00000   0.00000   0.00000
    D5       -0.00000  -0.00000   0.00000  -0.00000   0.00000   0.00000
    D6        3.14159   0.00000   0.00000   0.00000   0.00000   3.14159
    D7        3.14159  -0.00000   0.00000  -0.00000   0.00000   3.14159
    D8        0.00000  -0.00000   0.00000  -0.00000  -0.00000   0.00000
    D9        0.00000  -0.00000   0.00000  -0.00000   0.00000   0.00000
   D10        3.14159  -0.00000   0.00000  -0.00000   0.00000   3.14159
   D11        3.14159   0.00000   0.00000   0.00000   0.00000   3.14159
   D12       -0.00000  -0.00000   0.00000  -0.00000   0.00000   0.00000
   D13       -0.00000   0.00000   0.00000   0.00000   0.00000   0.00000
   D14        3.14159  -0.00000   0.00000  -0.00000   0.00000   3.14159
   D15        3.14159   0.00000   0.00000   0.00000   0.00000   3.14159
   D16        0.00000  -0.00000   0.00000  -0.00000   0.00000   0.00000
   D17        0.00000   0.00000   0.00000   0.00000   0.00000   0.00000
   D18        3.14159  -0.00000   0.00000  -0.00000   0.00000   3.14159
   D19        3.14159   0.00000   0.00000   0.00000   0.00000   3.14159
   D20       -0.00000   0.00000   0.00000   0.00000   0.00000   0.00000
   D21       -0.00000  -0.00000   0.00000  -0.00000   0.00000   0.00000
   D22        3.14159  -0.00000   0.00000  -0.00000   0.00000   3.14159
   D23        3.14159   0.00000   0.00000   0.00000   0.00000   3.14159
   D24        0.00000  -0.00000   0.00000  -0.00000   0.00000   0.00000
         Item               Value     Threshold  Converged?
 Maximum Force            0.000176     0.000450     YES
 RMS     Force            0.000057     0.000300     YES
 Maximum Displacement     0.000841     0.001800     YES
 RMS     Displacement     0.000216     0.001200     YES
 Predicted change in Energy=-2.278413D-07
 Optimization completed.
    -- Stationary point found.
                           ----------------------------
                           !   Optimized Parameters   !
                           ! (Angstroms and Degrees)  !
 --------------------------                            --------------------------
 ! Name  Definition              Value          Derivative Info.                !
 --------------------------------------------------------------------------------
 ! R1    R(1,2)                  1.4038         -DE/DX =    0.0                 !
 ! R2    R(1,6)                  1.4065         -DE/DX =    0.0002              !
 ! R3    R(1,8)                  1.6923         -DE/DX =    0.0001              !
 ! R4    R(2,3)                  1.3987         -DE/DX =    0.0001              !
 ! R5    R(2,11)                 1.6947         -DE/DX =    0.0                 !
 ! R6    R(3,4)                  1.39           -DE/DX =    0.0001              !
 ! R7    R(3,12)                 1.1015         -DE/DX =    0.0002              !
 ! R8    R(4,5)                  1.3987         -DE/DX =    0.0001              !
 ! R9    R(4,9)                  1.1016         -DE/DX =    0.0001              !
 ! R10   R(5,6)                  1.4038         -DE/DX =    0.0                 !
 ! R11   R(5,10)                 1.6947         -DE/DX =    0.0                 !
 ! R12   R(6,7)                  1.6923         -DE/DX =    0.0001              !
 ! A1    A(2,1,6)              119.638          -DE/DX =    0.0                 !
 ! A2    A(2,1,8)              120.2139         -DE/DX =    0.0001              !
 ! A3    A(6,1,8)              120.1481         -DE/DX =    0.0                 !
 ! A4    A(1,2,3)              120.2138         -DE/DX =    0.0001              !
 ! A5    A(1,2,11)             120.9198         -DE/DX =    0.0                 !
 ! A6    A(3,2,11)             118.8665         -DE/DX =    0.0                 !
 ! A7    A(2,3,4)              120.1483         -DE/DX =    0.0                 !
 ! A8    A(2,3,12)             119.9706         -DE/DX =    0.0                 !
 ! A9    A(4,3,12)             119.8811         -DE/DX =    0.0                 !
 ! A10   A(3,4,5)              120.1481         -DE/DX =    0.0                 !
 ! A11   A(3,4,9)              119.8812         -DE/DX =    0.0                 !
 ! A12   A(5,4,9)              119.9707         -DE/DX =    0.0                 !
 ! A13   A(4,5,6)              120.2138         -DE/DX =    0.0001              !
 ! A14   A(4,5,10)             118.8664         -DE/DX =    0.0                 !
 ! A15   A(6,5,10)             120.9197         -DE/DX =    0.0                 !
 ! A16   A(1,6,5)              119.638          -DE/DX =    0.0                 !
 ! A17   A(1,6,7)              120.1481         -DE/DX =    0.0                 !
 ! A18   A(5,6,7)              120.2139         -DE/DX =    0.0001              !
 ! D1    D(6,1,2,3)              0.0            -DE/DX =    0.0                 !
 ! D2    D(6,1,2,11)           180.0            -DE/DX =    0.0                 !
 ! D3    D(8,1,2,3)            180.0            -DE/DX =    0.0                 !
 ! D4    D(8,1,2,11)             0.0            -DE/DX =    0.0                 !
 ! D5    D(2,1,6,5)              0.0            -DE/DX =    0.0                 !
 ! D6    D(2,1,6,7)            180.0            -DE/DX =    0.0                 !
 ! D7    D(8,1,6,5)            180.0            -DE/DX =    0.0                 !
 ! D8    D(8,1,6,7)              0.0            -DE/DX =    0.0                 !
 ! D9    D(1,2,3,4)              0.0            -DE/DX =    0.0                 !
 ! D10   D(1,2,3,12)           180.0            -DE/DX =    0.0                 !
 ! D11   D(11,2,3,4)           180.0            -DE/DX =    0.0                 !
 ! D12   D(11,2,3,12)            0.0            -DE/DX =    0.0                 !
 ! D13   D(2,3,4,5)              0.0            -DE/DX =    0.0                 !
 ! D14   D(2,3,4,9)            180.0            -DE/DX =    0.0                 !
 ! D15   D(12,3,4,5)           180.0            -DE/DX =    0.0                 !
 ! D16   D(12,3,4,9)             0.0            -DE/DX =    0.0                 !
 ! D17   D(3,4,5,6)              0.0            -DE/DX =    0.0                 !
 ! D18   D(3,4,5,10)           180.0            -DE/DX =    0.0                 !
 ! D19   D(9,4,5,6)            180.0            -DE/DX =    0.0                 !
 ! D20   D(9,4,5,10)             0.0            -DE/DX =    0.0                 !
 ! D21   D(4,5,6,1)              0.0            -DE/DX =    0.0                 !
 ! D22   D(4,5,6,7)            180.0            -DE/DX =    0.0                 !
 ! D23   D(10,5,6,1)           180.0            -DE/DX =    0.0                 !
 ! D24   D(10,5,6,7)             0.0            -DE/DX =    0.0                 !
 --------------------------------------------------------------------------------
 GradGradGradGradGradGradGradGradGradGradGradGradGradGradGradGradGradGrad

                          Input orientation:                          
 ---------------------------------------------------------------------
 Center     Atomic      Atomic             Coordinates (Angstroms)
 Number     Number       Type             X           Y           Z
 ---------------------------------------------------------------------
      1          6           0       -3.129972    0.201893    0.000000
      2          6           0       -1.929348    0.929349    0.000000
      3          6           0       -0.701042    0.260360    0.000000
      4          6           0       -0.662871   -1.129066   -0.000000
      5          6           0       -1.852598   -1.864480   -0.000000
      6          6           0       -3.091349   -1.204037   -0.000000
      7         17           0       -4.530823   -2.093827   -0.000000
      8         17           0       -4.616125    1.011313    0.000000
      9          1           0        0.306983   -1.651443   -0.000000
     10         17           0       -1.768179   -3.557051   -0.000000
     11         17           0       -1.937979    2.624001    0.000000
     12          1           0        0.238604    0.835157    0.000000
 ---------------------------------------------------------------------
                    Distance matrix (angstroms):
                    1          2          3          4          5
     1  C    0.000000
     2  C    1.403813   0.000000
     3  C    2.429633   1.398671   0.000000
     4  C    2.803219   2.416823   1.389950   0.000000
     5  C    2.429317   2.794883   2.416822   1.398672   0.000000
     6  C    1.406460   2.429317   2.803217   2.429635   1.403813
     7  Cl   2.689371   3.988392   4.495489   3.986454   2.688027
     8  Cl   1.692280   2.688027   3.986453   4.495491   3.988392
     9  H    3.904806   3.414918   2.161274   1.101587   2.170063
    10  Cl   3.998017   4.489294   3.963762   2.667736   1.694674
    11  Cl   2.699529   1.694674   2.667735   3.963762   4.489294
    12  H    3.427584   2.169997   1.101511   2.161210   3.414845
                    6          7          8          9         10
     6  C    0.000000
     7  Cl   1.692280   0.000000
     8  Cl   2.689371   3.106312   0.000000
     9  H    3.427657   4.857990   5.597076   0.000000
    10  Cl   2.699528   3.126216   5.383376   2.817381   0.000000
    11  Cl   3.998017   5.383377   3.126216   4.829004   6.183384
    12  H    3.904728   5.596998   4.857924   2.487540   4.828941
                   11         12
    11  Cl   0.000000
    12  H    2.817353   0.000000
 Stoichiometry    C6H2Cl4
 Framework group  CS[SG(C6H2Cl4)]
 Deg. of freedom    21
 Full point group                 CS      NOp   2
 Largest Abelian subgroup         CS      NOp   2
 Largest concise Abelian subgroup C1      NOp   1
                         Standard orientation:                         
 ---------------------------------------------------------------------
 Center     Atomic      Atomic             Coordinates (Angstroms)
 Number     Number       Type             X           Y           Z
 ---------------------------------------------------------------------
      1          6           0        0.411190   -0.703231    0.000000
      2          6           0       -0.808958   -1.397442    0.000000
      3          6           0       -2.018429   -0.694975    0.000000
      4          6           0       -2.018431    0.694975   -0.000000
      5          6           0       -0.808958    1.397441   -0.000000
      6          6           0        0.411190    0.703230   -0.000000
      7         17           0        1.874556    1.553155   -0.000000
      8         17           0        1.874555   -1.553156    0.000000
      9          1           0       -2.973574    1.243789   -0.000000
     10         17           0       -0.846865    3.091692   -0.000000
     11         17           0       -0.846866   -3.091692    0.000000
     12          1           0       -2.973506   -1.243752    0.000000
 ---------------------------------------------------------------------
 Rotational constants (GHZ):           1.1726044           0.5549586           0.3766849

 **********************************************************************

            Population analysis using the SCF Density.

 **********************************************************************

 Orbital symmetries:
       Occupied  (A') (A') (A') (A') (A') (A') (A') (A') (A') (A')
                 (A') (A') (A') (A") (A') (A") (A') (A') (A") (A")
                 (A') (A') (A') (A') (A") (A") (A")
       Virtual   (A") (A") (A') (A') (A') (A') (A") (A') (A') (A')
                 (A') (A') (A') (A') (A')
 The electronic state is 1-A'.
 Alpha  occ. eigenvalues --   -1.48926  -1.41437  -1.40383  -1.39161  -1.37394
 Alpha  occ. eigenvalues --   -1.17415  -1.16009  -0.90005  -0.89503  -0.71010
 Alpha  occ. eigenvalues --   -0.65683  -0.65565  -0.59266  -0.58566  -0.57834
 Alpha  occ. eigenvalues --   -0.51817  -0.51301  -0.51137  -0.49443  -0.47264
 Alpha  occ. eigenvalues --   -0.45266  -0.45189  -0.44953  -0.44012  -0.43980
 Alpha  occ. eigenvalues --   -0.36664  -0.35773
 Alpha virt. eigenvalues --   -0.02394  -0.02055   0.01968   0.02808   0.03789
 Alpha virt. eigenvalues --    0.04631   0.06491   0.11587   0.12261   0.13386
 Alpha virt. eigenvalues --    0.13496   0.14718   0.15813   0.16603   0.17634
          Condensed to atoms (all electrons):
               1          2          3          4          5          6
     1  C    4.055910   0.000000   0.000000   0.000000   0.000000   0.000000
     2  C    0.000000   4.056897   0.000000   0.000000   0.000000   0.000000
     3  C    0.000000   0.000000   4.110465   0.000000   0.000000   0.000000
     4  C    0.000000   0.000000   0.000000   4.110472   0.000000   0.000000
     5  C    0.000000   0.000000   0.000000   0.000000   4.056897   0.000000
     6  C    0.000000   0.000000   0.000000   0.000000   0.000000   4.055908
     7  Cl   0.000000   0.000000   0.000000   0.000000   0.000000   0.000000
     8  Cl   0.000000   0.000000   0.000000   0.000000   0.000000   0.000000
     9  H    0.000000   0.000000   0.000000   0.000000   0.000000   0.000000
    10  Cl   0.000000   0.000000   0.000000   0.000000   0.000000   0.000000
    11  Cl   0.000000   0.000000   0.000000   0.000000   0.000000   0.000000
    12  H    0.000000   0.000000   0.000000   0.000000   0.000000   0.000000
               7          8          9         10         11         12
     1  C    0.000000   0.000000   0.000000   0.000000   0.000000   0.000000
     2  C    0.000000   0.000000   0.000000   0.000000   0.000000   0.000000
     3  C    0.000000   0.000000   0.000000   0.000000   0.000000   0.000000
     4  C    0.000000   0.000000   0.000000   0.000000   0.000000   0.000000
     5  C    0.000000   0.000000   0.000000   0.000000   0.000000   0.000000
     6  C    0.000000   0.000000   0.000000   0.000000   0.000000   0.000000
     7  Cl   6.959437   0.000000   0.000000   0.000000   0.000000   0.000000
     8  Cl   0.000000   6.959437   0.000000   0.000000   0.000000   0.000000
     9  H    0.000000   0.000000   0.840328   0.000000   0.000000   0.000000
    10  Cl   0.000000   0.000000   0.000000   6.976956   0.000000   0.000000
    11  Cl   0.000000   0.000000   0.000000   0.000000   6.976955   0.000000
    12  H    0.000000   0.000000   0.000000   0.000000   0.000000   0.840338
 Mulliken charges:
               1
     1  C   -0.055910
     2  C   -0.056897
     3  C   -0.110465
     4  C   -0.110472
     5  C   -0.056897
     6  C   -0.055908
     7  Cl   0.040563
     8  Cl   0.040563
     9  H    0.159672
    10  Cl   0.023044
    11  Cl   0.023045
    12  H    0.159662
 Sum of Mulliken charges =   0.00000
 Mulliken charges with hydrogens summed into heavy atoms:
               1
     1  C   -0.055910
     2  C   -0.056897
     3  C    0.049197
     4  C    0.049200
     5  C   -0.056897
     6  C   -0.055908
     7  Cl   0.040563
     8  Cl   0.040563
    10  Cl   0.023044
    11  Cl   0.023045
 Charge=              0.0000 electrons
 Dipole moment (field-independent basis, Debye):
    X=             -1.6083    Y=              0.0000    Z=              0.0000  Tot=              1.6083
 N-N= 3.079757049870D+02 E-N=-4.402827926165D+02  KE=-1.347716886760D+02
 Symmetry A'   KE=-1.031753542677D+02
 Symmetry A"   KE=-3.159633440820D+01
 1\1\GINC-SH02-01N45\FOpt\RAM1\ZDO\C6H2Cl4\JLAPIER\08-Dec-2025\0\\# opt
  am1 SCF(maxcyc=10000)\\4-Chloro-Benzene (1245)\\0,1\C,-3.1299719665,0
 .2018930692,0.\C,-1.929347893,0.9293489879,0.\C,-0.7010421453,0.260360
 413,0.\C,-0.6628711954,-1.1290656868,0.\C,-1.8525977282,-1.8644802034,
 0.\C,-3.0913491976,-1.2040367821,0.\Cl,-4.5308230806,-2.0938272613,0.\
 Cl,-4.6161252553,1.0113127882,0.\H,0.3069827726,-1.6514432274,0.\Cl,-1
 .7681791098,-3.5570505961,0.\Cl,-1.9379794565,2.6240012985,0.\H,0.2386
 042557,0.8351572003,0.\\Version=ES64L-G16RevB.01\State=1-A'\HF=-0.0011
 114\RMSD=7.995e-09\RMSF=7.274e-05\Dipole=0.6325151,0.0173586,0.\PG=CS 
 [SG(C6H2Cl4)]\\@


 Democracy is the recurrent suspicion that more than half of the people
 are right more than half of the time.
 -- E. B. White
 Job cpu time:       0 days  0 hours  0 minutes  7.3 seconds.
 Elapsed time:       0 days  0 hours  0 minutes 24.7 seconds.
 File lengths (MBytes):  RWF=     10 Int=      0 D2E=      0 Chk=      2 Scr=      1
 Normal termination of Gaussian 16 at Mon Dec  8 17:08:56 2025.
