 Entering Gaussian System, Link 0=g16
 Initial command:
 /share/software/user/restricted/gaussian/g16.B01/l1.exe "/home/users/jlapier/Chloroaromatics/Gau-3478.inp" -scrdir="/home/users/jlapier/Chloroaromatics/"
 Entering Link 1 = /share/software/user/restricted/gaussian/g16.B01/l1.exe PID=      3479.
  
 Copyright (c) 1988-2017, Gaussian, Inc.  All Rights Reserved.
  
 This is part of the Gaussian(R) 16 program.  It is based on
 the Gaussian(R) 09 system (copyright 2009, Gaussian, Inc.),
 the Gaussian(R) 03 system (copyright 2003, Gaussian, Inc.),
 the Gaussian(R) 98 system (copyright 1998, Gaussian, Inc.),
 the Gaussian(R) 94 system (copyright 1995, Gaussian, Inc.),
 the Gaussian 92(TM) system (copyright 1992, Gaussian, Inc.),
 the Gaussian 90(TM) system (copyright 1990, Gaussian, Inc.),
 the Gaussian 88(TM) system (copyright 1988, Gaussian, Inc.),
 the Gaussian 86(TM) system (copyright 1986, Carnegie Mellon
 University), and the Gaussian 82(TM) system (copyright 1983,
 Carnegie Mellon University). Gaussian is a federally registered
 trademark of Gaussian, Inc.
  
 This software contains proprietary and confidential information,
 including trade secrets, belonging to Gaussian, Inc.
  
 This software is provided under written license and may be
 used, copied, transmitted, or stored only in accord with that
 written license.
  
 The following legend is applicable only to US Government
 contracts under FAR:
  
                    RESTRICTED RIGHTS LEGEND
  
 Use, reproduction and disclosure by the US Government is
 subject to restrictions as set forth in subparagraphs (a)
 and (c) of the Commercial Computer Software - Restricted
 Rights clause in FAR 52.227-19.
  
 Gaussian, Inc.
 340 Quinnipiac St., Bldg. 40, Wallingford CT 06492
  
  
 ---------------------------------------------------------------
 Warning -- This program may not be used in any manner that
 competes with the business of Gaussian, Inc. or will provide
 assistance to any competitor of Gaussian, Inc.  The licensee
 of this program is prohibited from giving any competitor of
 Gaussian, Inc. access to this program.  By using this program,
 the user acknowledges that Gaussian, Inc. is engaged in the
 business of creating and licensing software in the field of
 computational chemistry and represents and warrants to the
 licensee that it is not a competitor of Gaussian, Inc. and that
 it will not use this program in any manner prohibited above.
 ---------------------------------------------------------------
  

 Cite this work as:
 Gaussian 16, Revision B.01,
 M. J. Frisch, G. W. Trucks, H. B. Schlegel, G. E. Scuseria, 
 M. A. Robb, J. R. Cheeseman, G. Scalmani, V. Barone, 
 G. A. Petersson, H. Nakatsuji, X. Li, M. Caricato, A. V. Marenich, 
 J. Bloino, B. G. Janesko, R. Gomperts, B. Mennucci, H. P. Hratchian, 
 J. V. Ortiz, A. F. Izmaylov, J. L. Sonnenberg, D. Williams-Young, 
 F. Ding, F. Lipparini, F. Egidi, J. Goings, B. Peng, A. Petrone, 
 T. Henderson, D. Ranasinghe, V. G. Zakrzewski, J. Gao, N. Rega, 
 G. Zheng, W. Liang, M. Hada, M. Ehara, K. Toyota, R. Fukuda, 
 J. Hasegawa, M. Ishida, T. Nakajima, Y. Honda, O. Kitao, H. Nakai, 
 T. Vreven, K. Throssell, J. A. Montgomery, Jr., J. E. Peralta, 
 F. Ogliaro, M. J. Bearpark, J. J. Heyd, E. N. Brothers, K. N. Kudin, 
 V. N. Staroverov, T. A. Keith, R. Kobayashi, J. Normand, 
 K. Raghavachari, A. P. Rendell, J. C. Burant, S. S. Iyengar, 
 J. Tomasi, M. Cossi, J. M. Millam, M. Klene, C. Adamo, R. Cammi, 
 J. W. Ochterski, R. L. Martin, K. Morokuma, O. Farkas, 
 J. B. Foresman, and D. J. Fox, Gaussian, Inc., Wallingford CT, 2016.
 
 ******************************************
 Gaussian 16:  ES64L-G16RevB.01 20-Dec-2017
                10-Dec-2025 
 ******************************************
 %mem=2GB
 %nprocshare=1
 Will use up to    1 processors via shared memory.
 %chk=geometry_chks/1245-12_5-ClBzNeutralRadical.chk
 -----------------
 # opt am1 SCF=XQC
 -----------------
 1/18=20,19=15,26=1,38=1/1,3;
 2/9=110,12=2,17=6,18=5,40=1/2;
 3/5=2,25=1,41=700000,71=1/1,2,3;
 4/35=1/1;
 5/5=2,8=3,13=1,35=1,38=5/2,8;
 6/7=2,8=2,9=2,10=2,28=1/1;
 7//1,2,3,16;
 1/18=20,19=15,26=1/3(2);
 2/9=110/2;
 99//99;
 2/9=110/2;
 3/5=2,25=1,41=700000,71=1,135=20/1,2,3;
 4/5=5,16=3,35=1/1;
 5/5=2,8=3,13=1,35=1,38=5/2,8;
 7//1,2,3,16;
 1/18=20,19=15,26=1/3(-5);
 2/9=110/2;
 6/7=2,8=2,9=2,10=2,19=2,28=1/1;
 99/9=1/99;
 --------------------------------
 Neutral Radical (removed 4) 12_5
 --------------------------------
 Symbolic Z-matrix:
 Charge =  0 Multiplicity = 2
 C                    -3.20928   0.19943   0. 
 C                    -2.0115    0.93555   0. 
 C                    -0.77511   0.2663    0. 
 C                    -0.7365   -1.13907   0. 
 C                    -1.93429  -1.87519   0. 
 C                    -3.17067  -1.20594   0. 
 Cl                   -4.67483  -2.13035   0. 
 Cl                   -4.76193   1.03987   0. 
 H                    -2.05998   2.7004    0. 
 Cl                    0.81614  -1.97951   0. 
 H                    -1.8858   -3.64003   0. 
 
 Add virtual bond connecting atoms H11        and C5         Dist= 3.34D+00.
 Add virtual bond connecting atoms H9         and C2         Dist= 3.34D+00.

 GradGradGradGradGradGradGradGradGradGradGradGradGradGradGradGradGradGrad
 Berny optimization.
 Initialization pass.
                           ----------------------------
                           !    Initial Parameters    !
                           ! (Angstroms and Degrees)  !
 --------------------------                            --------------------------
 ! Name  Definition              Value          Derivative Info.                !
 --------------------------------------------------------------------------------
 ! R1    R(1,2)                  1.4059         estimate D2E/DX2                !
 ! R2    R(1,6)                  1.4059         estimate D2E/DX2                !
 ! R3    R(1,8)                  1.7655         estimate D2E/DX2                !
 ! R4    R(2,3)                  1.4059         estimate D2E/DX2                !
 ! R5    R(2,9)                  1.7655         estimate D2E/DX2                !
 ! R6    R(3,4)                  1.4059         estimate D2E/DX2                !
 ! R7    R(4,5)                  1.4059         estimate D2E/DX2                !
 ! R8    R(4,10)                 1.7655         estimate D2E/DX2                !
 ! R9    R(5,6)                  1.4059         estimate D2E/DX2                !
 ! R10   R(5,11)                 1.7655         estimate D2E/DX2                !
 ! R11   R(6,7)                  1.7655         estimate D2E/DX2                !
 ! A1    A(2,1,6)              119.9999         estimate D2E/DX2                !
 ! A2    A(2,1,8)              119.9999         estimate D2E/DX2                !
 ! A3    A(6,1,8)              120.0001         estimate D2E/DX2                !
 ! A4    A(1,2,3)              120.0            estimate D2E/DX2                !
 ! A5    A(1,2,9)              120.0001         estimate D2E/DX2                !
 ! A6    A(3,2,9)              119.9999         estimate D2E/DX2                !
 ! A7    A(2,3,4)              120.0001         estimate D2E/DX2                !
 ! A8    A(3,4,5)              119.9997         estimate D2E/DX2                !
 ! A9    A(3,4,10)             120.0003         estimate D2E/DX2                !
 ! A10   A(5,4,10)             120.0            estimate D2E/DX2                !
 ! A11   A(4,5,6)              120.0            estimate D2E/DX2                !
 ! A12   A(4,5,11)             119.9996         estimate D2E/DX2                !
 ! A13   A(6,5,11)             120.0004         estimate D2E/DX2                !
 ! A14   A(1,6,5)              120.0003         estimate D2E/DX2                !
 ! A15   A(1,6,7)              119.9999         estimate D2E/DX2                !
 ! A16   A(5,6,7)              119.9998         estimate D2E/DX2                !
 ! D1    D(6,1,2,3)              0.0            estimate D2E/DX2                !
 ! D2    D(6,1,2,9)            180.0            estimate D2E/DX2                !
 ! D3    D(8,1,2,3)            180.0            estimate D2E/DX2                !
 ! D4    D(8,1,2,9)              0.0            estimate D2E/DX2                !
 ! D5    D(2,1,6,5)              0.0            estimate D2E/DX2                !
 ! D6    D(2,1,6,7)            180.0            estimate D2E/DX2                !
 ! D7    D(8,1,6,5)            180.0            estimate D2E/DX2                !
 ! D8    D(8,1,6,7)              0.0            estimate D2E/DX2                !
 ! D9    D(1,2,3,4)              0.0            estimate D2E/DX2                !
 ! D10   D(9,2,3,4)            180.0            estimate D2E/DX2                !
 ! D11   D(2,3,4,5)              0.0            estimate D2E/DX2                !
 ! D12   D(2,3,4,10)           180.0            estimate D2E/DX2                !
 ! D13   D(3,4,5,6)              0.0            estimate D2E/DX2                !
 ! D14   D(3,4,5,11)           180.0            estimate D2E/DX2                !
 ! D15   D(10,4,5,6)           180.0            estimate D2E/DX2                !
 ! D16   D(10,4,5,11)            0.0            estimate D2E/DX2                !
 ! D17   D(4,5,6,1)              0.0            estimate D2E/DX2                !
 ! D18   D(4,5,6,7)            180.0            estimate D2E/DX2                !
 ! D19   D(11,5,6,1)           180.0            estimate D2E/DX2                !
 ! D20   D(11,5,6,7)             0.0            estimate D2E/DX2                !
 --------------------------------------------------------------------------------
 Trust Radius=3.00D-01 FncErr=1.00D-07 GrdErr=1.00D-07 EigMax=2.50D+02 EigMin=1.00D-04
 Number of steps in this run=     57 maximum allowed number of steps=    100.
 GradGradGradGradGradGradGradGradGradGradGradGradGradGradGradGradGradGrad

                          Input orientation:                          
 ---------------------------------------------------------------------
 Center     Atomic      Atomic             Coordinates (Angstroms)
 Number     Number       Type             X           Y           Z
 ---------------------------------------------------------------------
      1          6           0       -3.209280    0.199430    0.000000
      2          6           0       -2.011500    0.935550    0.000000
      3          6           0       -0.775110    0.266300    0.000000
      4          6           0       -0.736500   -1.139070    0.000000
      5          6           0       -1.934290   -1.875190    0.000000
      6          6           0       -3.170670   -1.205940    0.000000
      7         17           0       -4.674830   -2.130350    0.000000
      8         17           0       -4.761930    1.039870    0.000000
      9          1           0       -2.059980    2.700400    0.000000
     10         17           0        0.816140   -1.979510    0.000000
     11          1           0       -1.885800   -3.640030    0.000000
 ---------------------------------------------------------------------
                    Distance matrix (angstroms):
                    1          2          3          4          5
     1  C    0.000000
     2  C    1.405898   0.000000
     3  C    2.435088   1.405900   0.000000
     4  C    2.811801   2.435092   1.405900   0.000000
     5  C    2.435087   2.811800   2.435093   1.405907   0.000000
     6  C    1.405900   2.435088   2.811796   2.435088   1.405892
     7  Cl   2.752401   4.061166   4.577308   4.061167   2.752393
     8  Cl   1.765520   2.752408   4.061175   4.577321   4.061173
     9  H    2.752406   1.765516   2.752405   4.061173   4.577316
    10  Cl   4.577312   4.061173   2.752406   1.765511   2.752408
    11  H    4.061164   4.577306   4.061163   2.752397   1.765506
                    6          7          8          9         10
     6  C    0.000000
     7  Cl   1.765512   0.000000
     8  Cl   2.752412   3.171416   0.000000
     9  H    4.061173   5.493049   3.171418   0.000000
    10  Cl   4.061165   5.493041   6.342832   5.493052   0.000000
    11  H    2.752396   3.171407   5.493049   6.342822   3.171404
                   11
    11  H    0.000000
 Stoichiometry    C6H2Cl3(2)
 Framework group  CS[SG(C6H2Cl3)]
 Deg. of freedom    19
 Full point group                 CS      NOp   2
 Largest Abelian subgroup         CS      NOp   2
 Largest concise Abelian subgroup C1      NOp   1
                         Standard orientation:                         
 ---------------------------------------------------------------------
 Center     Atomic      Atomic             Coordinates (Angstroms)
 Number     Number       Type             X           Y           Z
 ---------------------------------------------------------------------
      1          6           0        0.524618   -1.103011    0.000000
      2          6           0        1.742162   -0.400063    0.000000
      3          6           0        1.742162    1.005838    0.000000
      4          6           0        0.524618    1.708790   -0.000000
      5          6           0       -0.692931    1.005833   -0.000000
      6          6           0       -0.692926   -0.400058   -0.000000
      7         17           0       -2.221904   -1.282814   -0.000000
      8         17           0        0.524618   -2.868531    0.000000
      9          1           0        3.271145   -1.282818    0.000000
     10         17           0        0.524612    3.474301   -0.000000
     11          1           0       -2.221901    1.888593   -0.000000
 ---------------------------------------------------------------------
 Rotational constants (GHZ):           1.8306825           0.5789515           0.4398495
 Standard basis: VSTO-6G (5D, 7F)
 There are    29 symmetry adapted cartesian basis functions of A'  symmetry.
 There are     9 symmetry adapted cartesian basis functions of A"  symmetry.
 There are    29 symmetry adapted basis functions of A'  symmetry.
 There are     9 symmetry adapted basis functions of A"  symmetry.
    38 basis functions,   228 primitive gaussians,    38 cartesian basis functions
    24 alpha electrons       23 beta electrons
       nuclear repulsion energy       239.3214936949 Hartrees.
 Integral buffers will be    131072 words long.
 Regular integral format.
 Two-electron integral symmetry is turned off.
 Do NDO integrals.
 One-electron integrals computed using PRISM.
 NBasis=    38 RedAO= T EigKep=  1.00D+00  NBF=    29     9
 NBsUse=    38 1.00D-06 EigRej= -1.00D+00 NBFU=    29     9
 Simple Huckel Guess.
 Initial guess orbital symmetries:
 Alpha Orbitals:
       Occupied  (A') (A') (A') (A') (A') (A') (A') (A') (A') (A")
                 (A') (A') (A') (A") (A') (A") (A') (A") (A') (A')
                 (A') (A") (A") (A')
       Virtual   (A") (A') (A") (A') (A") (A') (A') (A') (A') (A')
                 (A') (A') (A') (A')
 Beta  Orbitals:
       Occupied  (A') (A') (A') (A') (A') (A') (A') (A') (A') (A")
                 (A') (A') (A') (A") (A') (A") (A') (A") (A') (A')
                 (A') (A") (A")
       Virtual   (A') (A") (A') (A") (A') (A") (A') (A') (A') (A')
                 (A') (A') (A') (A') (A')
 The electronic state of the initial guess is 2-A'.
 Initial guess <Sx>= 0.0000 <Sy>= 0.0000 <Sz>= 0.5000 <S**2>= 0.7500 S= 0.5000
 Keep J ints in memory in canonical form, NReq=863588.
 Overlap will be assumed to be unity.
 Requested convergence on RMS density matrix=1.00D-08 within  32 cycles.
 Requested convergence on MAX density matrix=1.00D-06.
 Requested convergence on             energy=1.00D-06.
 No special actions if energy rises.
 Fock symm off for IB=2 I1=    1 I=   30 J=   27 Cut=1.00D-07 Err=2.47D-03
 Fock matrix is not symmetric: symmetry in diagonalization turned off.
 Rare condition: small coef for last iteration:  0.000D+00
 Rare condition: small coef for last iteration:  0.000D+00
 Rare condition: small coef for last iteration:  0.000D+00
 Rare condition: small coef for last iteration:  0.000D+00
 Rare condition: small coef for last iteration:  0.000D+00
 Rare condition: small coef for last iteration:  0.000D+00
 Rare condition: small coef for last iteration:  0.000D+00
 Rare condition: small coef for last iteration:  0.000D+00
 Rare condition: small coef for last iteration:  0.000D+00
 Rare condition: small coef for last iteration:  0.000D+00
 Rare condition: small coef for last iteration:  0.000D+00
 Rare condition: small coef for last iteration:  0.000D+00
 Rare condition: small coef for last iteration:  0.000D+00
 Rare condition: small coef for last iteration:  0.000D+00
 Rare condition: small coef for last iteration:  0.000D+00
 >>>>>>>>>> Convergence criterion not met.
 SCF Done:  E(UAM1) =  0.351441355729     A.U. after   33 cycles
            NFock= 32  Conv=0.13D-02     -V/T= 1.0031
 <Sx>= 0.0000 <Sy>= 0.0000 <Sz>= 0.5000 <S**2>= 1.0982 S= 0.6611
 <L.S>=  0.00000000000    
 Annihilation of the first spin contaminant:
 S**2 before annihilation     1.0982,   after     0.8590
 Keep J ints in memory in canonical form, NReq=863988.
 LinEq1:  Iter=  0 NonCon=     1 RMS=1.75D-04 Max=1.42D-03 NDo=     1
 AX will form     1 AO Fock derivatives at one time.
 LinEq1:  Iter=  1 NonCon=     1 RMS=4.51D-05 Max=2.56D-04 NDo=     1
 LinEq1:  Iter=  2 NonCon=     1 RMS=1.08D-05 Max=1.23D-04 NDo=     1
 LinEq1:  Iter=  3 NonCon=     1 RMS=3.23D-06 Max=2.97D-05 NDo=     1
 LinEq1:  Iter=  4 NonCon=     1 RMS=8.68D-07 Max=1.03D-05 NDo=     1
 LinEq1:  Iter=  5 NonCon=     1 RMS=2.55D-07 Max=2.67D-06 NDo=     1
 LinEq1:  Iter=  6 NonCon=     1 RMS=4.60D-08 Max=2.83D-07 NDo=     1
 LinEq1:  Iter=  7 NonCon=     1 RMS=7.59D-09 Max=5.82D-08 NDo=     1
 LinEq1:  Iter=  8 NonCon=     0 RMS=1.76D-09 Max=2.09D-08 NDo=     1
 Linear equations converged to 2.610D-09 2.610D-08 after     8 iterations.
 Incorrect curvature in search direction -- initial direction reversed.
     Accept linear search using points  2 and  3.
     Minimum is close to point  3 DX= -1.16D-01 DF= -5.02D-05 DXR=  9.06D-02 DFR=  8.52D-03 which will be used.
 Gradient too large for Newton-Raphson -- use scaled steepest descent instead.
     Accept linear search using points  5 and  6.
 Gradient too large for Newton-Raphson -- use scaled steepest descent instead.
     Minimum is close to point  3 DX=  1.44D-01 DF= -2.18D-06 DXR=  6.14D-02 DFR=  3.79D-03 which will be used.
 LinEq1:  Iter=  0 NonCon=     1 RMS=5.98D-04 Max=5.87D-03 NDo=     1
 LinEq1:  Iter=  1 NonCon=     1 RMS=1.96D-04 Max=1.35D-03 NDo=     1
 LinEq1:  Iter=  2 NonCon=     1 RMS=3.05D-05 Max=2.60D-04 NDo=     1
 LinEq1:  Iter=  3 NonCon=     1 RMS=8.09D-06 Max=1.13D-04 NDo=     1
 LinEq1:  Iter=  4 NonCon=     1 RMS=2.52D-06 Max=2.17D-05 NDo=     1
 LinEq1:  Iter=  5 NonCon=     1 RMS=4.81D-07 Max=4.46D-06 NDo=     1
 LinEq1:  Iter=  6 NonCon=     1 RMS=1.18D-07 Max=6.99D-07 NDo=     1
 LinEq1:  Iter=  7 NonCon=     1 RMS=3.07D-08 Max=2.68D-07 NDo=     1
 LinEq1:  Iter=  8 NonCon=     1 RMS=8.64D-09 Max=5.19D-08 NDo=     1
 LinEq1:  Iter=  9 NonCon=     0 RMS=1.55D-09 Max=1.24D-08 NDo=     1
 Linear equations converged to 2.610D-09 2.610D-08 after     9 iterations.
 LinEq1:  Iter=  0 NonCon=     1 RMS=4.16D-04 Max=4.31D-03 NDo=     1
 LinEq1:  Iter=  1 NonCon=     1 RMS=1.33D-04 Max=1.51D-03 NDo=     1
 LinEq1:  Iter=  2 NonCon=     1 RMS=2.81D-05 Max=2.17D-04 NDo=     1
 LinEq1:  Iter=  3 NonCon=     1 RMS=6.39D-06 Max=6.88D-05 NDo=     1
 LinEq1:  Iter=  4 NonCon=     1 RMS=1.95D-06 Max=1.39D-05 NDo=     1
 LinEq1:  Iter=  5 NonCon=     1 RMS=2.98D-07 Max=2.10D-06 NDo=     1
 LinEq1:  Iter=  6 NonCon=     1 RMS=6.95D-08 Max=5.82D-07 NDo=     1
 LinEq1:  Iter=  7 NonCon=     1 RMS=1.54D-08 Max=1.20D-07 NDo=     1
 LinEq1:  Iter=  8 NonCon=     1 RMS=4.07D-09 Max=3.21D-08 NDo=     1
 LinEq1:  Iter=  9 NonCon=     0 RMS=8.74D-10 Max=6.17D-09 NDo=     1
 Linear equations converged to 2.610D-09 2.610D-08 after     9 iterations.
 LinEq1:  Iter=  0 NonCon=     1 RMS=2.79D-04 Max=2.85D-03 NDo=     1
 LinEq1:  Iter=  1 NonCon=     1 RMS=7.87D-05 Max=7.95D-04 NDo=     1
 LinEq1:  Iter=  2 NonCon=     1 RMS=1.98D-05 Max=1.71D-04 NDo=     1
 LinEq1:  Iter=  3 NonCon=     1 RMS=3.55D-06 Max=3.66D-05 NDo=     1
 LinEq1:  Iter=  4 NonCon=     1 RMS=1.15D-06 Max=9.65D-06 NDo=     1
 LinEq1:  Iter=  5 NonCon=     1 RMS=1.91D-07 Max=1.41D-06 NDo=     1
 LinEq1:  Iter=  6 NonCon=     1 RMS=4.30D-08 Max=3.44D-07 NDo=     1
 LinEq1:  Iter=  7 NonCon=     1 RMS=1.02D-08 Max=7.44D-08 NDo=     1
 LinEq1:  Iter=  8 NonCon=     1 RMS=2.62D-09 Max=2.04D-08 NDo=     1
 LinEq1:  Iter=  9 NonCon=     0 RMS=5.57D-10 Max=3.76D-09 NDo=     1
 Linear equations converged to 2.610D-09 2.610D-08 after     9 iterations.
     Accept linear search using points  1 and  2.
 LinEq1:  Iter=  0 NonCon=     1 RMS=3.50D-05 Max=3.67D-04 NDo=     1
 LinEq1:  Iter=  1 NonCon=     1 RMS=7.54D-06 Max=5.13D-05 NDo=     1
 LinEq1:  Iter=  2 NonCon=     1 RMS=2.42D-06 Max=1.86D-05 NDo=     1
 LinEq1:  Iter=  3 NonCon=     1 RMS=3.55D-07 Max=1.98D-06 NDo=     1
 LinEq1:  Iter=  4 NonCon=     1 RMS=7.55D-08 Max=6.34D-07 NDo=     1
 LinEq1:  Iter=  5 NonCon=     1 RMS=1.93D-08 Max=1.15D-07 NDo=     1
 LinEq1:  Iter=  6 NonCon=     1 RMS=4.00D-09 Max=2.52D-08 NDo=     1
 LinEq1:  Iter=  7 NonCon=     0 RMS=8.98D-10 Max=7.81D-09 NDo=     1
 Linear equations converged to 2.610D-09 2.610D-08 after     7 iterations.
     Minimum is close to point  2 DX=  5.15D-03 DF= -3.22D-11 DXR=  5.12D-03 DFR=  2.62D-05 which will be used.
 LinEq1:  Iter=  0 NonCon=     1 RMS=5.64D-07 Max=5.09D-06 NDo=     1
 LinEq1:  Iter=  1 NonCon=     1 RMS=1.93D-07 Max=1.99D-06 NDo=     1
 LinEq1:  Iter=  2 NonCon=     1 RMS=4.39D-08 Max=4.67D-07 NDo=     1
 LinEq1:  Iter=  3 NonCon=     1 RMS=1.03D-08 Max=7.98D-08 NDo=     1
 LinEq1:  Iter=  4 NonCon=     1 RMS=2.16D-09 Max=1.35D-08 NDo=     1
 LinEq1:  Iter=  5 NonCon=     1 RMS=5.90D-10 Max=4.93D-09 NDo=     1
 LinEq1:  Iter=  6 NonCon=     1 RMS=1.38D-10 Max=1.03D-09 NDo=     1
 LinEq1:  Iter=  7 NonCon=     0 RMS=2.69D-11 Max=1.43D-10 NDo=     1
 Linear equations converged to 8.759D-11 8.759D-10 after     7 iterations.
 LinEq1:  Iter=  0 NonCon=     1 RMS=1.52D-08 Max=8.10D-08 NDo=     1
 LinEq1:  Iter=  1 NonCon=     1 RMS=4.29D-09 Max=2.46D-08 NDo=     1
 LinEq1:  Iter=  2 NonCon=     1 RMS=1.18D-09 Max=1.08D-08 NDo=     1
 LinEq1:  Iter=  3 NonCon=     1 RMS=2.92D-10 Max=1.87D-09 NDo=     1
 LinEq1:  Iter=  4 NonCon=     1 RMS=6.08D-11 Max=3.44D-10 NDo=     1
 LinEq1:  Iter=  5 NonCon=     1 RMS=1.18D-11 Max=1.36D-10 NDo=     1
 LinEq1:  Iter=  6 NonCon=     1 RMS=3.21D-12 Max=2.31D-11 NDo=     1
 LinEq1:  Iter=  7 NonCon=     0 RMS=9.37D-13 Max=6.02D-12 NDo=     1
 Linear equations converged to 2.778D-12 2.778D-11 after     7 iterations.
 QCLLim is confused:  Bigger=F Turned=T
 NLin=  4 IMin12=  2  4 I12=  1  1 IX=  2 XLMin= 0.000D+00 XLMax= 0.000D+00
 X = 0.000D+00 1.000D+00 5.000D-01 3.000D-01
 DE= 0.000D+00-2.842D-13 5.684D-14-8.527D-14
 QCLLim is confused:  Bigger=F Turned=T
 NLin=  5 IMin12=  2  4 I12=  1  1 IX=  2 XLMin= 0.000D+00 XLMax= 0.000D+00
 X = 0.000D+00 1.000D+00 5.000D-01 3.000D-01 1.000D-01
 DE= 0.000D+00-2.842D-13 5.684D-14-8.527D-14 1.137D-13
 QCLLim is confused:  Bigger=F Turned=T
 NLin=  6 IMin12=  2  4 I12=  1  1 IX=  2 XLMin= 0.000D+00 XLMax= 0.000D+00
 X = 0.000D+00 1.000D+00 5.000D-01 3.000D-01 1.000D-01 6.250D-02
 DE= 0.000D+00-2.842D-13 5.684D-14-8.527D-14 1.137D-13 1.137D-13
 QCLLim is confused:  Bigger=F Turned=T
 NLin=  7 IMin12=  2  4 I12=  1  1 IX=  2 XLMin= 0.000D+00 XLMax= 0.000D+00
 X = 0.000D+00 1.000D+00 5.000D-01 3.000D-01 1.000D-01 6.250D-02 3.125D-02
 DE= 0.000D+00-2.842D-13 5.684D-14-8.527D-14 1.137D-13 1.137D-13 3.126D-13
 QCLLim is confused:  Bigger=F Turned=T
 NLin=  8 IMin12=  2  4 I12=  1  1 IX=  2 XLMin= 0.000D+00 XLMax= 0.000D+00
 X = 0.000D+00 1.000D+00 5.000D-01 3.000D-01 1.000D-01 6.250D-02 3.125D-02 1.563D-02
 DE= 0.000D+00-2.842D-13 5.684D-14-8.527D-14 1.137D-13 1.137D-13 3.126D-13 5.684D-14
 QCLLim is confused:  Bigger=F Turned=T
 NLin=  9 IMin12=  2  4 I12=  1  1 IX=  2 XLMin= 0.000D+00 XLMax= 0.000D+00
 X = 0.000D+00 1.000D+00 5.000D-01 3.000D-01 1.000D-01 6.250D-02 3.125D-02 1.563D-02 7.813D-03
 DE= 0.000D+00-2.842D-13 5.684D-14-8.527D-14 1.137D-13 1.137D-13 3.126D-13 5.684D-14-2.842D-14
 QCLLim is confused:  Bigger=F Turned=T
 NLin= 10 IMin12=  2  4 I12=  1  1 IX=  2 XLMin= 0.000D+00 XLMax= 0.000D+00
 X = 0.000D+00 1.000D+00 5.000D-01 3.000D-01 1.000D-01 6.250D-02 3.125D-02 1.563D-02 7.813D-03 3.906D-03
 DE= 0.000D+00-2.842D-13 5.684D-14-8.527D-14 1.137D-13 1.137D-13 3.126D-13 5.684D-14-2.842D-14 1.137D-13
 QCLLim is confused:  Bigger=F Turned=T
 NLin= 11 IMin12=  2  4 I12=  1  1 IX=  2 XLMin= 0.000D+00 XLMax= 0.000D+00
 X = 0.000D+00 1.000D+00 5.000D-01 3.000D-01 1.000D-01 6.250D-02 3.125D-02 1.563D-02 7.813D-03 3.906D-03 1.953D-03
 DE= 0.000D+00-2.842D-13 5.684D-14-8.527D-14 1.137D-13 1.137D-13 3.126D-13 5.684D-14-2.842D-14 1.137D-13 2.842D-13
 SCF Done:  E(UAM1) =  0.340337091074     a.u. after   10 cycles
            Convg  =    0.5101D-08                    95 Fock formations.
              S**2 =  1.8067                  -V/T =  1.0030
 <Sx>= 0.0000 <Sy>= 0.0000 <Sz>= 0.5000 <S**2>= 1.8067 S= 0.9341
 <L.S>=  0.00000000000    
 Annihilation of the first spin contaminant:
 S**2 before annihilation     1.8067,   after     2.3034

 **********************************************************************

            Population analysis using the SCF Density.

 **********************************************************************

 Orbital symmetries:
 Alpha Orbitals:
       Occupied  (A') (A') (A') (A') (A') (A') (A') (A') (A') (A')
                 (A') (A") (A') (A") (A") (A') (A') (A') (A') (A")
                 (A') (A') (A") (A")
       Virtual   (A") (A') (A') (A") (A') (A') (A') (A") (A') (A')
                 (A') (A') (A') (A')
 Beta  Orbitals:
       Occupied  (A') (A') (A') (A') (A') (A') (A') (A') (A') (A')
                 (A') (A") (A') (A") (A") (A') (A') (A') (A') (A")
                 (A') (A") (A")
       Virtual   (A') (A") (A') (A') (A") (A') (A') (A') (A") (A')
                 (A') (A') (A') (A') (A')
 The electronic state is 2-A'.
 Alpha  occ. eigenvalues --   -1.44425  -1.38688  -1.37799  -1.35953  -1.13980
 Alpha  occ. eigenvalues --   -1.12040  -0.85916  -0.83769  -0.64353  -0.62411
 Alpha  occ. eigenvalues --   -0.60849  -0.55613  -0.54626  -0.49661  -0.47304
 Alpha  occ. eigenvalues --   -0.46475  -0.46419  -0.45496  -0.44412  -0.43997
 Alpha  occ. eigenvalues --   -0.43279  -0.39744  -0.38768  -0.37199
 Alpha virt. eigenvalues --   -0.00896  -0.00846   0.00671   0.00734   0.02033
 Alpha virt. eigenvalues --    0.03538   0.04573   0.07506   0.12941   0.13473
 Alpha virt. eigenvalues --    0.14859   0.15741   0.16460   0.17616
  Beta  occ. eigenvalues --   -1.43984  -1.38665  -1.37757  -1.35657  -1.13140
  Beta  occ. eigenvalues --   -1.11157  -0.85054  -0.81879  -0.64960  -0.61916
  Beta  occ. eigenvalues --   -0.59789  -0.55527  -0.52916  -0.50098  -0.47483
  Beta  occ. eigenvalues --   -0.46920  -0.45626  -0.44227  -0.43952  -0.43731
  Beta  occ. eigenvalues --   -0.41638  -0.38095  -0.36794
  Beta virt. eigenvalues --   -0.03415  -0.00229   0.00241   0.00957   0.01720
  Beta virt. eigenvalues --    0.02326   0.03408   0.04638   0.08383   0.13334
  Beta virt. eigenvalues --    0.13857   0.15563   0.16755   0.16817   0.18819
          Condensed to atoms (all electrons):
               1          2          3          4          5          6
     1  C    4.028130   0.000000   0.000000   0.000000   0.000000   0.000000
     2  C    0.000000   4.137406   0.000000   0.000000   0.000000   0.000000
     3  C    0.000000   0.000000   4.007262   0.000000   0.000000   0.000000
     4  C    0.000000   0.000000   0.000000   4.039129   0.000000   0.000000
     5  C    0.000000   0.000000   0.000000   0.000000   4.135746   0.000000
     6  C    0.000000   0.000000   0.000000   0.000000   0.000000   4.041190
     7  Cl   0.000000   0.000000   0.000000   0.000000   0.000000   0.000000
     8  Cl   0.000000   0.000000   0.000000   0.000000   0.000000   0.000000
     9  H    0.000000   0.000000   0.000000   0.000000   0.000000   0.000000
    10  Cl   0.000000   0.000000   0.000000   0.000000   0.000000   0.000000
    11  H    0.000000   0.000000   0.000000   0.000000   0.000000   0.000000
               7          8          9         10         11
     1  C    0.000000   0.000000   0.000000   0.000000   0.000000
     2  C    0.000000   0.000000   0.000000   0.000000   0.000000
     3  C    0.000000   0.000000   0.000000   0.000000   0.000000
     4  C    0.000000   0.000000   0.000000   0.000000   0.000000
     5  C    0.000000   0.000000   0.000000   0.000000   0.000000
     6  C    0.000000   0.000000   0.000000   0.000000   0.000000
     7  Cl   7.006760   0.000000   0.000000   0.000000   0.000000
     8  Cl   0.000000   7.006464   0.000000   0.000000   0.000000
     9  H    0.000000   0.000000   0.804814   0.000000   0.000000
    10  Cl   0.000000   0.000000   0.000000   7.014184   0.000000
    11  H    0.000000   0.000000   0.000000   0.000000   0.778916
          Atomic-Atomic Spin Densities.
               1          2          3          4          5          6
     1  C    0.574956   0.000000   0.000000   0.000000   0.000000   0.000000
     2  C    0.000000  -0.959695   0.000000   0.000000   0.000000   0.000000
     3  C    0.000000   0.000000   1.492908   0.000000   0.000000   0.000000
     4  C    0.000000   0.000000   0.000000  -0.562004   0.000000   0.000000
     5  C    0.000000   0.000000   0.000000   0.000000   0.900158   0.000000
     6  C    0.000000   0.000000   0.000000   0.000000   0.000000  -0.547597
     7  Cl   0.000000   0.000000   0.000000   0.000000   0.000000   0.000000
     8  Cl   0.000000   0.000000   0.000000   0.000000   0.000000   0.000000
     9  H    0.000000   0.000000   0.000000   0.000000   0.000000   0.000000
    10  Cl   0.000000   0.000000   0.000000   0.000000   0.000000   0.000000
    11  H    0.000000   0.000000   0.000000   0.000000   0.000000   0.000000
               7          8          9         10         11
     1  C    0.000000   0.000000   0.000000   0.000000   0.000000
     2  C    0.000000   0.000000   0.000000   0.000000   0.000000
     3  C    0.000000   0.000000   0.000000   0.000000   0.000000
     4  C    0.000000   0.000000   0.000000   0.000000   0.000000
     5  C    0.000000   0.000000   0.000000   0.000000   0.000000
     6  C    0.000000   0.000000   0.000000   0.000000   0.000000
     7  Cl   0.008213   0.000000   0.000000   0.000000   0.000000
     8  Cl   0.000000   0.002704   0.000000   0.000000   0.000000
     9  H    0.000000   0.000000   0.442427   0.000000   0.000000
    10  Cl   0.000000   0.000000   0.000000   0.008489   0.000000
    11  H    0.000000   0.000000   0.000000   0.000000  -0.360560
 Mulliken charges and spin densities:
               1          2
     1  C   -0.028130   0.574956
     2  C   -0.137406  -0.959695
     3  C   -0.007262   1.492908
     4  C   -0.039129  -0.562004
     5  C   -0.135746   0.900158
     6  C   -0.041190  -0.547597
     7  Cl  -0.006760   0.008213
     8  Cl  -0.006464   0.002704
     9  H    0.195186   0.442427
    10  Cl  -0.014184   0.008489
    11  H    0.221084  -0.360560
 Sum of Mulliken charges =  -0.00000   1.00000
 Mulliken charges and spin densities with hydrogens summed into heavy atoms:
               1          2
     1  C   -0.028130   0.574956
     2  C    0.057781  -0.517268
     3  C   -0.007262   1.492908
     4  C   -0.039129  -0.562004
     5  C    0.085339   0.539598
     6  C   -0.041190  -0.547597
     7  Cl  -0.006760   0.008213
     8  Cl  -0.006464   0.002704
    10  Cl  -0.014184   0.008489
 Charge=             -0.0000 electrons
 Dipole moment (field-independent basis, Debye):
    X=             -0.0295    Y=              0.1449    Z=              0.0000  Tot=              0.1479
 N-N= 2.393214936949D+02 E-N=-3.319742198683D+02  KE=-1.118466784773D+02
 Symmetry A'   KE=-8.586267257134D+01
 Symmetry A"   KE=-2.598400590593D+01
 Symmetry A'   SP= 1.000000000000D+00
 Symmetry A"   SP=-6.661338147751D-16
 Calling FoFJK, ICntrl=      2127 FMM=F ISym2X=1 I1Cent= 0 IOpClX= 1 NMat=1 NMatS=1 NMatT=0.
 ***** Axes restored to original set *****
 -------------------------------------------------------------------
 Center     Atomic                   Forces (Hartrees/Bohr)
 Number     Number              X              Y              Z
 -------------------------------------------------------------------
      1        6          -0.018160581    0.032708575   -0.000000000
      2        6           0.027283850    0.064358967   -0.000000000
      3        6          -0.066319351   -0.012408908    0.000000000
      4        6           0.036517222   -0.010905846   -0.000000000
      5        6           0.000974952   -0.067602910   -0.000000000
      6        6          -0.016680573   -0.032770456    0.000000000
      7       17           0.035370199    0.018267799   -0.000000000
      8       17           0.036342086   -0.016159599   -0.000000000
      9        1           0.002614064   -0.098440006    0.000000000
     10       17          -0.035326317    0.018327992   -0.000000000
     11        1          -0.002615551    0.104624394    0.000000000
 -------------------------------------------------------------------
 Cartesian Forces:  Max     0.104624394 RMS     0.036354714

 GradGradGradGradGradGradGradGradGradGradGradGradGradGradGradGradGradGrad
 Berny optimization.
 FormGI is forming the generalized inverse of G from B-inverse, IUseBI=4.
 Internal  Forces:  Max     0.104656762 RMS     0.026050847
 Search for a local minimum.
 Step number   1 out of a maximum of   57
 All quantities printed in internal units (Hartrees-Bohrs-Radians)
 Mixed Optimization -- RFO/linear search
 Second derivative matrix not updated -- first step.
 ITU=  0
     Eigenvalues ---    0.02011   0.02011   0.02011   0.02011   0.02011
     Eigenvalues ---    0.02011   0.02011   0.02011   0.06524   0.06524
     Eigenvalues ---    0.16000   0.16000   0.22929   0.23917   0.25000
     Eigenvalues ---    0.25000   0.25000   0.25000   0.29033   0.29033
     Eigenvalues ---    0.29033   0.40939   0.41561   0.44656   0.44657
     Eigenvalues ---    0.44657   0.44657
 RFO step:  Lambda=-1.29555432D-01 EMin= 2.01064753D-02
 Linear search not attempted -- first point.
 Maximum step size (   0.300) exceeded in Quadratic search.
    -- Step size scaled by   0.389
 Iteration  1 RMS(Cart)=  0.04743775 RMS(Int)=  0.00131351
 Iteration  2 RMS(Cart)=  0.00125820 RMS(Int)=  0.00001882
 Iteration  3 RMS(Cart)=  0.00000009 RMS(Int)=  0.00001882
 ClnCor:  largest displacement from symmetrization is 3.88D-09 for atom     1.
 Variable       Old X    -DE/DX   Delta X   Delta X   Delta X     New X
                                 (Linear)    (Quad)   (Total)
    R1        2.65676  -0.02563   0.00000  -0.01726  -0.01727   2.63950
    R2        2.65677   0.00058   0.00000   0.00097   0.00094   2.65771
    R3        3.33635  -0.03965   0.00000  -0.03673  -0.03673   3.29962
    R4        2.65677  -0.05269   0.00000  -0.03610  -0.03608   2.62069
    R5        3.33634  -0.09847   0.00000  -0.19664  -0.19664   3.13970
    R6        2.65677  -0.03001   0.00000  -0.02084  -0.02081   2.63596
    R7        2.65678  -0.02484   0.00000  -0.01682  -0.01681   2.63997
    R8        3.33633  -0.03979   0.00000  -0.03686  -0.03686   3.29947
    R9        2.65675  -0.02128   0.00000  -0.01384  -0.01386   2.64289
   R10        3.33632  -0.10466   0.00000  -0.20898  -0.20898   3.12734
   R11        3.33633  -0.03970   0.00000  -0.03678  -0.03678   3.29956
    A1        2.09439  -0.00840   0.00000  -0.00761  -0.00764   2.08675
    A2        2.09439  -0.00095   0.00000  -0.00148  -0.00146   2.09293
    A3        2.09440   0.00935   0.00000   0.00908   0.00910   2.10350
    A4        2.09439   0.00034   0.00000  -0.00040  -0.00038   2.09401
    A5        2.09440  -0.00032   0.00000  -0.00000  -0.00001   2.09439
    A6        2.09439  -0.00002   0.00000   0.00040   0.00039   2.09479
    A7        2.09440   0.02158   0.00000   0.01959   0.01966   2.11406
    A8        2.09439  -0.01497   0.00000  -0.01627  -0.01624   2.07815
    A9        2.09440   0.00865   0.00000   0.00933   0.00931   2.10371
   A10        2.09440   0.00632   0.00000   0.00694   0.00693   2.10132
   A11        2.09439   0.00639   0.00000   0.00797   0.00795   2.10235
   A12        2.09439  -0.00363   0.00000  -0.00457  -0.00456   2.08983
   A13        2.09440  -0.00276   0.00000  -0.00341  -0.00340   2.09101
   A14        2.09440  -0.00494   0.00000  -0.00329  -0.00335   2.09105
   A15        2.09439   0.00740   0.00000   0.00670   0.00673   2.10112
   A16        2.09439  -0.00246   0.00000  -0.00341  -0.00338   2.09101
    D1        0.00000   0.00000   0.00000   0.00000   0.00000   0.00000
    D2        3.14159   0.00000   0.00000   0.00000   0.00000   3.14159
    D3        3.14159   0.00000   0.00000   0.00000   0.00000   3.14159
    D4       -0.00000   0.00000   0.00000   0.00000   0.00000   0.00000
    D5        0.00000  -0.00000   0.00000  -0.00000   0.00000   0.00000
    D6        3.14159  -0.00000   0.00000  -0.00000   0.00000   3.14159
    D7        3.14159  -0.00000   0.00000  -0.00000   0.00000   3.14159
    D8        0.00000   0.00000   0.00000  -0.00000  -0.00000   0.00000
    D9       -0.00000  -0.00000   0.00000  -0.00000   0.00000   0.00000
   D10        3.14159  -0.00000   0.00000  -0.00000   0.00000   3.14159
   D11        0.00000  -0.00000   0.00000  -0.00000   0.00000   0.00000
   D12        3.14159  -0.00000   0.00000  -0.00000   0.00000   3.14159
   D13       -0.00000   0.00000   0.00000   0.00000   0.00000   0.00000
   D14        3.14159   0.00000   0.00000   0.00000   0.00000   3.14159
   D15        3.14159   0.00000   0.00000   0.00000   0.00000   3.14159
   D16        0.00000   0.00000   0.00000   0.00000  -0.00000   0.00000
   D17        0.00000  -0.00000   0.00000  -0.00000  -0.00000   0.00000
   D18        3.14159  -0.00000   0.00000  -0.00000   0.00000   3.14159
   D19        3.14159  -0.00000   0.00000  -0.00000   0.00000   3.14159
   D20       -0.00000  -0.00000   0.00000  -0.00000   0.00000   0.00000
         Item               Value     Threshold  Converged?
 Maximum Force            0.104657     0.000450     NO 
 RMS     Force            0.026051     0.000300     NO 
 Maximum Displacement     0.224956     0.001800     NO 
 RMS     Displacement     0.048339     0.001200     NO 
 Predicted change in Energy=-4.642260D-02
 GradGradGradGradGradGradGradGradGradGradGradGradGradGradGradGradGradGrad

                          Input orientation:                          
 ---------------------------------------------------------------------
 Center     Atomic      Atomic             Coordinates (Angstroms)
 Number     Number       Type             X           Y           Z
 ---------------------------------------------------------------------
      1          6           0       -3.209467    0.199138    0.000000
      2          6           0       -2.014835    0.922876    0.000000
      3          6           0       -0.799724    0.254493   -0.000000
      4          6           0       -0.743422   -1.139258   -0.000000
      5          6           0       -1.936064   -1.866751   -0.000000
      6          6           0       -3.169057   -1.206681    0.000000
      7         17           0       -4.649277   -2.132770    0.000000
      8         17           0       -4.738466    1.042324    0.000000
      9          1           0       -2.049892    2.583967    0.000000
     10         17           0        0.795041   -1.964889   -0.000000
     11          1           0       -1.888586   -3.520988   -0.000000
 ---------------------------------------------------------------------
                    Distance matrix (angstroms):
                    1          2          3          4          5
     1  C    0.000000
     2  C    1.396762   0.000000
     3  C    2.410379   1.386807   0.000000
     4  C    2.805830   2.422579   1.394887   0.000000
     5  C    2.426819   2.790739   2.406438   1.397011   0.000000
     6  C    1.406399   2.422239   2.783661   2.426572   1.398558
     7  Cl   2.740593   4.034509   4.529690   4.030232   2.726223
     8  Cl   1.746082   2.726249   4.016761   4.551887   4.039328
     9  H    2.651797   1.661460   2.643741   3.945791   4.452173
    10  Cl   4.551823   4.029217   2.732934   1.746005   2.732867
    11  H    3.947665   4.445658   3.929361   2.642733   1.654919
                    6          7          8          9         10
     6  C    0.000000
     7  Cl   1.746051   0.000000
     8  Cl   2.742456   3.176346   0.000000
     9  H    3.952409   5.385575   3.099209   0.000000
    10  Cl   4.035957   5.446906   6.297859   5.365233   0.000000
    11  H    2.644925   3.090076   5.380115   6.107085   3.102144
                   11
    11  H    0.000000
 Stoichiometry    C6H2Cl3(2)
 Framework group  CS[SG(C6H2Cl3)]
 Deg. of freedom    19
 Full point group                 CS      NOp   2
 Largest Abelian subgroup         CS      NOp   2
 Largest concise Abelian subgroup C1      NOp   1
                         Standard orientation:                         
 ---------------------------------------------------------------------
 Center     Atomic      Atomic             Coordinates (Angstroms)
 Number     Number       Type             X           Y           Z
 ---------------------------------------------------------------------
      1          6           0        1.217729   -0.098968    0.000000
      2          6           0        1.206560    1.297749    0.000000
      3          6           0       -0.000218    1.981064    0.000000
      4          6           0       -1.216019    1.297295   -0.000000
      5          6           0       -1.209090   -0.099699   -0.000000
      6          6           0        0.000000   -0.802598   -0.000000
      7         17           0       -0.011128   -2.548613   -0.000000
      8         17           0        2.738068   -0.957671    0.000000
      9          1           0        2.638745    2.139946    0.000000
     10         17           0       -2.726385    2.173268   -0.000000
     11          1           0       -2.641963   -0.927727   -0.000000
 ---------------------------------------------------------------------
 Rotational constants (GHZ):           1.8494095           0.5885264           0.4464540
 Standard basis: VSTO-6G (5D, 7F)
 There are    29 symmetry adapted cartesian basis functions of A'  symmetry.
 There are     9 symmetry adapted cartesian basis functions of A"  symmetry.
 There are    29 symmetry adapted basis functions of A'  symmetry.
 There are     9 symmetry adapted basis functions of A"  symmetry.
    38 basis functions,   228 primitive gaussians,    38 cartesian basis functions
    24 alpha electrons       23 beta electrons
       nuclear repulsion energy       240.6655546960 Hartrees.
 Integral buffers will be    131072 words long.
 Regular integral format.
 Two-electron integral symmetry is turned off.
 Do NDO integrals.
 One-electron integrals computed using PRISM.
 NBasis=    38 RedAO= T EigKep=  1.00D+00  NBF=    29     9
 NBsUse=    38 1.00D-06 EigRej= -1.00D+00 NBFU=    29     9
 Initial guess from the checkpoint file:  "geometry_chks/1245-12_5-ClBzNeutralRadical.chk"
 B after Tr=    -0.000000    0.000000    0.000000
         Rot=    0.865735   -0.000000   -0.000000   -0.500502 Ang= -60.07 deg.
 Initial guess orbital symmetries:
 Alpha Orbitals:
       Occupied  (A') (A') (A') (A') (A') (A') (A') (A') (A') (A')
                 (A') (A") (A') (A") (A") (A') (A') (A') (A') (A")
                 (A') (A') (A") (A")
       Virtual   (A") (A') (A') (A") (A') (A') (A') (A") (A') (A')
                 (A') (A') (A') (A')
 Beta  Orbitals:
       Occupied  (A') (A') (A') (A') (A') (A') (A') (A') (A') (A')
                 (A') (A") (A') (A") (A") (A') (A') (A') (A') (A")
                 (A') (A") (A")
       Virtual   (A') (A") (A') (A') (A") (A') (A') (A') (A") (A')
                 (A') (A') (A') (A') (A')
 Initial guess <Sx>= 0.0000 <Sy>= 0.0000 <Sz>= 0.5000 <S**2>= 1.8067 S= 0.9341
 Keep J ints in memory in canonical form, NReq=863588.
 Overlap will be assumed to be unity.
 Requested convergence on RMS density matrix=1.00D-08 within  32 cycles.
 Requested convergence on MAX density matrix=1.00D-06.
 Requested convergence on             energy=1.00D-06.
 No special actions if energy rises.
 Fock symm off for IB=2 I1=    1 I=   30 J=   15 Cut=1.00D-07 Err=5.05D-03
 Fock matrix is not symmetric: symmetry in diagonalization turned off.
 SCF Done:  E(UAM1) =  0.287168121733     A.U. after   20 cycles
            NFock= 19  Conv=0.43D-08     -V/T= 1.0026
 <Sx>= 0.0000 <Sy>= 0.0000 <Sz>= 0.5000 <S**2>= 1.3738 S= 0.7743
 <L.S>=  0.00000000000    
 Annihilation of the first spin contaminant:
 S**2 before annihilation     1.3738,   after     1.1481
 QCSCF skips out because SCF is already converged.
 Calling FoFJK, ICntrl=      2127 FMM=F ISym2X=1 I1Cent= 0 IOpClX= 1 NMat=1 NMatS=1 NMatT=0.
 ***** Axes restored to original set *****
 -------------------------------------------------------------------
 Center     Atomic                   Forces (Hartrees/Bohr)
 Number     Number              X              Y              Z
 -------------------------------------------------------------------
      1        6          -0.020353404    0.024347375    0.000000000
      2        6           0.019824996    0.101773849   -0.000000000
      3        6          -0.045872248   -0.008727604    0.000000000
      4        6           0.036734024   -0.011715701   -0.000000000
      5        6           0.000075133   -0.097679218   -0.000000000
      6        6          -0.016569413   -0.026270204   -0.000000000
      7       17           0.026698387    0.014125563    0.000000000
      8       17           0.027490547   -0.012705435   -0.000000000
      9        1           0.002396781   -0.116915319   -0.000000000
     10       17          -0.027104973    0.013789841    0.000000000
     11        1          -0.003319830    0.119976852    0.000000000
 -------------------------------------------------------------------
 Cartesian Forces:  Max     0.119976852 RMS     0.041474973

 GradGradGradGradGradGradGradGradGradGradGradGradGradGradGradGradGradGrad
 Berny optimization.
 Using GEDIIS/GDIIS optimizer.
 FormGI is forming the generalized inverse of G from B-inverse, IUseBI=4.
 Internal  Forces:  Max     0.120022710 RMS     0.026601783
 Search for a local minimum.
 Step number   2 out of a maximum of   57
 All quantities printed in internal units (Hartrees-Bohrs-Radians)
 Mixed Optimization -- RFO/linear search
 Update second derivatives using D2CorX and points    1    2
 DE= -5.32D-02 DEPred=-4.64D-02 R= 1.15D+00
 TightC=F SS=  1.41D+00  RLast= 3.00D-01 DXNew= 5.0454D-01 9.0000D-01
 Trust test= 1.15D+00 RLast= 3.00D-01 DXMaxT set to 5.05D-01
 ITU=  1  0
 Use linear search instead of GDIIS.
     Eigenvalues ---   -0.26343   0.02011   0.02011   0.02011   0.02011
     Eigenvalues ---    0.02011   0.02011   0.02011   0.02011   0.04339
     Eigenvalues ---    0.06926   0.16000   0.16002   0.23006   0.23983
     Eigenvalues ---    0.24974   0.25000   0.25000   0.25218   0.29033
     Eigenvalues ---    0.29033   0.33949   0.40947   0.41871   0.44605
     Eigenvalues ---    0.44656   0.44657
 RFO step:  Lambda=-2.95644756D-01 EMin=-2.63433350D-01
 Skip linear search -- no minimum in search direction.
 Maximum step size (   0.505) exceeded in Quadratic search.
    -- Step size scaled by   0.456
 Iteration  1 RMS(Cart)=  0.04072146 RMS(Int)=  0.02921748
 Iteration  2 RMS(Cart)=  0.02915489 RMS(Int)=  0.00003677
 Iteration  3 RMS(Cart)=  0.00001248 RMS(Int)=  0.00003610
 Iteration  4 RMS(Cart)=  0.00000000 RMS(Int)=  0.00003610
 ClnCor:  largest displacement from symmetrization is 5.81D-09 for atom    11.
 Variable       Old X    -DE/DX   Delta X   Delta X   Delta X     New X
                                 (Linear)    (Quad)   (Total)
    R1        2.63950  -0.01166   0.00000   0.06040   0.06042   2.69992
    R2        2.65771   0.00463   0.00000   0.02430   0.02426   2.68197
    R3        3.29962  -0.03021   0.00000   0.02615   0.02615   3.32576
    R4        2.62069  -0.03155   0.00000   0.07918   0.07923   2.69992
    R5        3.13970  -0.11694   0.00000  -0.35347  -0.35347   2.78624
    R6        2.63596  -0.01620   0.00000   0.05559   0.05563   2.69159
    R7        2.63997  -0.01165   0.00000   0.05602   0.05601   2.69597
    R8        3.29947  -0.03040   0.00000   0.02558   0.02558   3.32505
    R9        2.64289  -0.01056   0.00000   0.04433   0.04427   2.68716
   R10        3.12734  -0.12002   0.00000  -0.32858  -0.32858   2.79876
   R11        3.29956  -0.03013   0.00000   0.02704   0.02704   3.32660
    A1        2.08675  -0.00622   0.00000   0.00734   0.00731   2.09406
    A2        2.09293  -0.00043   0.00000   0.00294   0.00295   2.09589
    A3        2.10350   0.00666   0.00000  -0.01028  -0.01027   2.09323
    A4        2.09401  -0.00181   0.00000  -0.01625  -0.01618   2.07783
    A5        2.09439   0.00079   0.00000   0.00829   0.00825   2.10264
    A6        2.09479   0.00102   0.00000   0.00797   0.00793   2.10272
    A7        2.11406   0.01853   0.00000   0.00263   0.00276   2.11682
    A8        2.07815  -0.01322   0.00000  -0.00344  -0.00343   2.07472
    A9        2.10371   0.00771   0.00000   0.00256   0.00255   2.10626
   A10        2.10132   0.00551   0.00000   0.00089   0.00088   2.10220
   A11        2.10235   0.00522   0.00000  -0.00273  -0.00281   2.09954
   A12        2.08983  -0.00280   0.00000   0.00297   0.00301   2.09285
   A13        2.09101  -0.00242   0.00000  -0.00024  -0.00020   2.09080
   A14        2.09105  -0.00250   0.00000   0.01245   0.01235   2.10340
   A15        2.10112   0.00486   0.00000  -0.01089  -0.01084   2.09028
   A16        2.09101  -0.00236   0.00000  -0.00156  -0.00151   2.08951
    D1        0.00000  -0.00000   0.00000  -0.00000   0.00000   0.00000
    D2        3.14159  -0.00000   0.00000  -0.00000   0.00000   3.14159
    D3        3.14159   0.00000   0.00000  -0.00000   0.00000   3.14159
    D4        0.00000  -0.00000   0.00000  -0.00000   0.00000   0.00000
    D5        0.00000  -0.00000   0.00000  -0.00000  -0.00000   0.00000
    D6        3.14159  -0.00000   0.00000  -0.00000   0.00000   3.14159
    D7        3.14159  -0.00000   0.00000  -0.00000   0.00000   3.14159
    D8       -0.00000  -0.00000   0.00000  -0.00000   0.00000   0.00000
    D9       -0.00000   0.00000   0.00000   0.00000   0.00000   0.00000
   D10        3.14159   0.00000   0.00000   0.00000   0.00000   3.14159
   D11        0.00000  -0.00000   0.00000  -0.00000  -0.00000   0.00000
   D12        3.14159  -0.00000   0.00000  -0.00000   0.00000   3.14159
   D13       -0.00000   0.00000   0.00000  -0.00000   0.00000   0.00000
   D14        3.14159   0.00000   0.00000   0.00000   0.00000   3.14159
   D15        3.14159   0.00000   0.00000  -0.00000   0.00000   3.14159
   D16        0.00000   0.00000   0.00000   0.00000   0.00000   0.00000
   D17       -0.00000   0.00000   0.00000   0.00000   0.00000   0.00000
   D18        3.14159   0.00000   0.00000   0.00000   0.00000   3.14159
   D19        3.14159  -0.00000   0.00000   0.00000   0.00000   3.14159
   D20        0.00000  -0.00000   0.00000   0.00000  -0.00000   0.00000
         Item               Value     Threshold  Converged?
 Maximum Force            0.120023     0.000450     NO 
 RMS     Force            0.026602     0.000300     NO 
 Maximum Displacement     0.284168     0.001800     NO 
 RMS     Displacement     0.064469     0.001200     NO 
 Predicted change in Energy=-9.954137D-02
 GradGradGradGradGradGradGradGradGradGradGradGradGradGradGradGradGradGrad

                          Input orientation:                          
 ---------------------------------------------------------------------
 Center     Atomic      Atomic             Coordinates (Angstroms)
 Number     Number       Type             X           Y           Z
 ---------------------------------------------------------------------
      1          6           0       -3.227335    0.209573    0.000000
      2          6           0       -2.014154    0.964209    0.000000
      3          6           0       -0.765358    0.270099   -0.000000
      4          6           0       -0.710220   -1.153160   -0.000000
      5          6           0       -1.931923   -1.889886   -0.000000
      6          6           0       -3.180233   -1.208884    0.000000
      7         17           0       -4.678518   -2.133014    0.000000
      8         17           0       -4.780797    1.036658    0.000000
      9          1           0       -2.050449    2.438176    0.000000
     10         17           0        0.836660   -1.991699   -0.000000
     11          1           0       -1.901423   -3.370613   -0.000000
 ---------------------------------------------------------------------
                    Distance matrix (angstroms):
                    1          2          3          4          5
     1  C    0.000000
     2  C    1.428735   0.000000
     3  C    2.462721   1.428734   0.000000
     4  C    2.862326   2.486664   1.424326   0.000000
     5  C    2.466945   2.855279   2.454874   1.426648   0.000000
     6  C    1.419238   2.466186   2.831786   2.470642   1.421985
     7  Cl   2.755657   4.085539   4.592143   4.087482   2.757335
     8  Cl   1.759918   2.767591   4.087953   4.622217   4.084205
     9  H    2.520264   1.474413   2.520320   3.833263   4.329684
    10  Cl   4.621866   4.106645   2.771676   1.759541   2.770454
    11  H    3.817823   4.336288   3.813847   2.517154   1.481042
                    6          7          8          9         10
     6  C    0.000000
     7  Cl   1.760362   0.000000
     8  Cl   2.757582   3.171321   0.000000
     9  H    3.818043   5.272810   3.069047   0.000000
    10  Cl   4.092460   5.516988   6.381752   5.287644   0.000000
    11  H    2.511659   3.040380   5.264487   5.810700   3.065697
                   11
    11  H    0.000000
 Stoichiometry    C6H2Cl3(2)
 Framework group  CS[SG(C6H2Cl3)]
 Deg. of freedom    19
 Full point group                 CS      NOp   2
 Largest Abelian subgroup         CS      NOp   2
 Largest concise Abelian subgroup C1      NOp   1
                         Standard orientation:                         
 ---------------------------------------------------------------------
 Center     Atomic      Atomic             Coordinates (Angstroms)
 Number     Number       Type             X           Y           Z
 ---------------------------------------------------------------------
      1          6           0        1.237283   -0.113275    0.000000
      2          6           0        1.253462    1.315369    0.000000
      3          6           0        0.012414    2.023238    0.000000
      4          6           0       -1.233143    1.332374   -0.000000
      5          6           0       -1.229588   -0.094270   -0.000000
      6          6           0        0.000000   -0.808521    0.000000
      7         17           0       -0.013269   -2.568833   -0.000000
      8         17           0        2.750012   -1.012699    0.000000
      9          1           0        2.532606    2.048638    0.000000
     10         17           0       -2.752253    2.220230   -0.000000
     11          1           0       -2.511509   -0.836000   -0.000000
 ---------------------------------------------------------------------
 Rotational constants (GHZ):           1.8386617           0.5716266           0.4360590
 Standard basis: VSTO-6G (5D, 7F)
 There are    29 symmetry adapted cartesian basis functions of A'  symmetry.
 There are     9 symmetry adapted cartesian basis functions of A"  symmetry.
 There are    29 symmetry adapted basis functions of A'  symmetry.
 There are     9 symmetry adapted basis functions of A"  symmetry.
    38 basis functions,   228 primitive gaussians,    38 cartesian basis functions
    24 alpha electrons       23 beta electrons
       nuclear repulsion energy       239.3171977010 Hartrees.
 Integral buffers will be    131072 words long.
 Regular integral format.
 Two-electron integral symmetry is turned off.
 Do NDO integrals.
 One-electron integrals computed using PRISM.
 NBasis=    38 RedAO= T EigKep=  1.00D+00  NBF=    29     9
 NBsUse=    38 1.00D-06 EigRej= -1.00D+00 NBFU=    29     9
 Initial guess from the checkpoint file:  "geometry_chks/1245-12_5-ClBzNeutralRadical.chk"
 B after Tr=    -0.000000    0.000000   -0.000000
         Rot=    0.999992    0.000000    0.000000    0.003928 Ang=   0.45 deg.
 Initial guess orbital symmetries:
 Alpha Orbitals:
       Occupied  (A') (A') (A') (A') (A') (A') (A') (A') (A') (A')
                 (A') (A") (A') (A") (A") (A') (A') (A') (A') (A")
                 (A') (A') (A") (A")
       Virtual   (A") (A") (A') (A') (A') (A') (A') (A") (A') (A')
                 (A') (A') (A') (A')
 Beta  Orbitals:
       Occupied  (A') (A') (A') (A') (A') (A') (A') (A') (A') (A')
                 (A') (A") (A') (A") (A") (A') (A') (A') (A') (A")
                 (A') (A") (A")
       Virtual   (A') (A") (A') (A") (A') (A') (A') (A') (A") (A')
                 (A') (A') (A') (A') (A')
 Initial guess <Sx>= 0.0000 <Sy>= 0.0000 <Sz>= 0.5000 <S**2>= 1.3738 S= 0.7743
 Keep J ints in memory in canonical form, NReq=863588.
 Overlap will be assumed to be unity.
 Requested convergence on RMS density matrix=1.00D-08 within  32 cycles.
 Requested convergence on MAX density matrix=1.00D-06.
 Requested convergence on             energy=1.00D-06.
 No special actions if energy rises.
 Fock symm off for IB=2 I1=    1 I=   30 J=    6 Cut=1.00D-07 Err=4.74D-03
 Fock matrix is not symmetric: symmetry in diagonalization turned off.
 SCF Done:  E(UAM1) =  0.218945467365     A.U. after   18 cycles
            NFock= 17  Conv=0.83D-08     -V/T= 1.0020
 <Sx>= 0.0000 <Sy>= 0.0000 <Sz>= 0.5000 <S**2>= 1.4604 S= 0.8078
 <L.S>=  0.00000000000    
 Annihilation of the first spin contaminant:
 S**2 before annihilation     1.4604,   after     1.2295
 QCSCF skips out because SCF is already converged.
 Calling FoFJK, ICntrl=      2127 FMM=F ISym2X=1 I1Cent= 0 IOpClX= 1 NMat=1 NMatS=1 NMatT=0.
 ***** Axes restored to original set *****
 -------------------------------------------------------------------
 Center     Atomic                   Forces (Hartrees/Bohr)
 Number     Number              X              Y              Z
 -------------------------------------------------------------------
      1        6           0.004517940    0.020358152   -0.000000000
      2        6           0.023209916    0.068304209   -0.000000000
      3        6          -0.077911597   -0.026938313    0.000000000
      4        6           0.010028358    0.006418007   -0.000000000
      5        6           0.004314387   -0.071220163   -0.000000000
      6        6           0.000668913   -0.018045568   -0.000000000
      7       17           0.034510781    0.017670597    0.000000000
      8       17           0.036424401   -0.015471138    0.000000000
      9        1           0.002947036   -0.117911312    0.000000000
     10       17          -0.036569730    0.019172317    0.000000000
     11        1          -0.002140404    0.117663213    0.000000000
 -------------------------------------------------------------------
 Cartesian Forces:  Max     0.117911312 RMS     0.039130292

 GradGradGradGradGradGradGradGradGradGradGradGradGradGradGradGradGradGrad
 Berny optimization.
 Using GEDIIS/GDIIS optimizer.
 FormGI is forming the generalized inverse of G from B-inverse, IUseBI=4.
 Internal  Forces:  Max     0.117948127 RMS     0.031760191
 Search for a local minimum.
 Step number   3 out of a maximum of   57
 All quantities printed in internal units (Hartrees-Bohrs-Radians)
 Mixed Optimization -- RFO/linear search
 Update second derivatives using D2CorX and points    2    3
 DE= -6.82D-02 DEPred=-9.95D-02 R= 6.85D-01
 TightC=F SS=  1.41D+00  RLast= 5.05D-01 DXNew= 8.4853D-01 1.5136D+00
 Trust test= 6.85D-01 RLast= 5.05D-01 DXMaxT set to 8.49D-01
 ITU=  1  1  0
 Use linear search instead of GDIIS.
     Eigenvalues ---    0.00637   0.02011   0.02011   0.02011   0.02011
     Eigenvalues ---    0.02011   0.02011   0.02011   0.02011   0.06414
     Eigenvalues ---    0.15996   0.16000   0.18621   0.23433   0.24416
     Eigenvalues ---    0.25000   0.25000   0.25041   0.26777   0.29033
     Eigenvalues ---    0.29047   0.40172   0.41156   0.44077   0.44650
     Eigenvalues ---    0.44657   0.78892
 RFO step:  Lambda=-1.61911428D-01 EMin= 6.36604121D-03
 Quartic linear search produced a step of  1.62379.
 Iteration  1 RMS(Cart)=  0.06432116 RMS(Int)=  0.14461438
 Iteration  2 RMS(Cart)=  0.04161568 RMS(Int)=  0.10335877
 Iteration  3 RMS(Cart)=  0.04125583 RMS(Int)=  0.06210979
 Iteration  4 RMS(Cart)=  0.04125558 RMS(Int)=  0.02089189
 Iteration  5 RMS(Cart)=  0.02087822 RMS(Int)=  0.00030353
 Iteration  6 RMS(Cart)=  0.00000168 RMS(Int)=  0.00030353
 Iteration  7 RMS(Cart)=  0.00000000 RMS(Int)=  0.00030353
 ClnCor:  largest displacement from symmetrization is 1.31D-08 for atom     9.
 Variable       Old X    -DE/DX   Delta X   Delta X   Delta X     New X
                                 (Linear)    (Quad)   (Total)
    R1        2.69992  -0.04730   0.09811  -0.11849  -0.02044   2.67948
    R2        2.68197  -0.01865   0.03940  -0.01464   0.02431   2.70628
    R3        3.32576  -0.03942   0.04246  -0.17843  -0.13597   3.18979
    R4        2.69992  -0.07141   0.12865  -0.21529  -0.08624   2.61367
    R5        2.78624  -0.11795  -0.57396  -0.31867  -0.89263   1.89361
    R6        2.69159  -0.05254   0.09033  -0.13352  -0.04273   2.64885
    R7        2.69597  -0.04604   0.09094  -0.11383  -0.02283   2.67315
    R8        3.32505  -0.04129   0.04153  -0.17975  -0.13822   3.18683
    R9        2.68716  -0.03990   0.07189  -0.09369  -0.02218   2.66498
   R10        2.79876  -0.11768  -0.53354  -0.37488  -0.90842   1.89034
   R11        3.32660  -0.03865   0.04391  -0.17860  -0.13469   3.19191
    A1        2.09406  -0.00471   0.01187  -0.03554  -0.02425   2.06981
    A2        2.09589  -0.00340   0.00480  -0.00947  -0.00437   2.09152
    A3        2.09323   0.00811  -0.01667   0.04500   0.02863   2.12186
    A4        2.07783  -0.00386  -0.02628   0.00500  -0.02102   2.05681
    A5        2.10264   0.00199   0.01340  -0.00324   0.01003   2.11267
    A6        2.10272   0.00187   0.01288  -0.00177   0.01099   2.11370
    A7        2.11682   0.02094   0.00449   0.08418   0.08978   2.20660
    A8        2.07472  -0.00827  -0.00557  -0.06366  -0.06875   2.00597
    A9        2.10626   0.00509   0.00414   0.03641   0.04031   2.14657
   A10        2.10220   0.00318   0.00143   0.02725   0.02844   2.13064
   A11        2.09954  -0.00028  -0.00456   0.03116   0.02623   2.12577
   A12        2.09285  -0.00025   0.00490  -0.01900  -0.01392   2.07892
   A13        2.09080   0.00054  -0.00033  -0.01216  -0.01231   2.07849
   A14        2.10340  -0.00382   0.02006  -0.02115  -0.00199   2.10141
   A15        2.09028   0.00703  -0.01761   0.03542   0.01826   2.10854
   A16        2.08951  -0.00321  -0.00245  -0.01427  -0.01627   2.07324
    D1        0.00000   0.00000   0.00000   0.00000   0.00000   0.00000
    D2        3.14159   0.00000   0.00000   0.00000   0.00000   3.14159
    D3        3.14159  -0.00000   0.00000   0.00000   0.00000   3.14159
    D4       -0.00000   0.00000   0.00000   0.00000   0.00000   0.00000
    D5       -0.00000  -0.00000   0.00000   0.00000   0.00000   0.00000
    D6        3.14159  -0.00000   0.00000  -0.00000   0.00000   3.14159
    D7        3.14159   0.00000   0.00000   0.00000   0.00000   3.14159
    D8       -0.00000   0.00000   0.00000   0.00000   0.00000   0.00000
    D9       -0.00000  -0.00000   0.00000  -0.00000   0.00000   0.00000
   D10        3.14159  -0.00000   0.00000  -0.00000   0.00000   3.14159
   D11        0.00000  -0.00000   0.00000   0.00000   0.00000   0.00000
   D12        3.14159   0.00000   0.00000   0.00000   0.00000   3.14159
   D13       -0.00000   0.00000   0.00000   0.00000   0.00000   0.00000
   D14        3.14159   0.00000   0.00000   0.00000   0.00000   3.14159
   D15        3.14159  -0.00000   0.00000   0.00000   0.00000   3.14159
   D16       -0.00000   0.00000   0.00000   0.00000   0.00000   0.00000
   D17       -0.00000  -0.00000   0.00000  -0.00000   0.00000   0.00000
   D18        3.14159   0.00000   0.00000  -0.00000   0.00000   3.14159
   D19        3.14159  -0.00000   0.00000  -0.00000   0.00000   3.14159
   D20        0.00000  -0.00000   0.00000  -0.00000  -0.00000   0.00000
         Item               Value     Threshold  Converged?
 Maximum Force            0.117948     0.000450     NO 
 RMS     Force            0.031760     0.000300     NO 
 Maximum Displacement     0.935032     0.001800     NO 
 RMS     Displacement     0.196763     0.001200     NO 
 Predicted change in Energy=-2.295140D-01
 GradGradGradGradGradGradGradGradGradGradGradGradGradGradGradGradGradGrad

                          Input orientation:                          
 ---------------------------------------------------------------------
 Center     Atomic      Atomic             Coordinates (Angstroms)
 Number     Number       Type             X           Y           Z
 ---------------------------------------------------------------------
      1          6           0       -3.239954    0.218089    0.000000
      2          6           0       -2.024011    0.947454    0.000000
      3          6           0       -0.840921    0.231039   -0.000000
      4          6           0       -0.713098   -1.164834   -0.000000
      5          6           0       -1.936098   -1.875660   -0.000000
      6          6           0       -3.180849   -1.212793    0.000000
      7         17           0       -4.594609   -2.137077    0.000000
      8         17           0       -4.713297    1.041789    0.000000
      9          1           0       -2.022429    1.949508    0.000000
     10         17           0        0.779242   -1.950239   -0.000000
     11          1           0       -1.917727   -2.875815   -0.000000
 ---------------------------------------------------------------------
                    Distance matrix (angstroms):
                    1          2          3          4          5
     1  C    0.000000
     2  C    1.417918   0.000000
     3  C    2.399068   1.383096   0.000000
     4  C    2.880534   2.486012   1.401713   0.000000
     5  C    2.466541   2.824482   2.374361   1.414567   0.000000
     6  C    1.432102   2.450498   2.749530   2.468217   1.410248
     7  Cl   2.716965   4.015259   4.438260   4.001423   2.671334
     8  Cl   1.687964   2.690940   3.956339   4.568455   4.027945
     9  H    2.116644   1.002056   2.085449   3.378383   3.826142
    10  Cl   4.566791   4.031731   2.717149   1.686398   2.716364
    11  H    3.364599   3.824746   3.288169   2.092507   1.000324
                    6          7          8          9         10
     6  C    0.000000
     7  Cl   1.689088   0.000000
     8  Cl   2.726084   3.181081   0.000000
     9  H    3.367801   4.828694   2.839846   0.000000
    10  Cl   4.028169   5.377098   6.254616   4.801811   0.000000
    11  H    2.088330   2.776947   4.812779   4.826459   2.851373
                   11
    11  H    0.000000
 Stoichiometry    C6H2Cl3(2)
 Framework group  CS[SG(C6H2Cl3)]
 Deg. of freedom    19
 Full point group                 CS      NOp   2
 Largest Abelian subgroup         CS      NOp   2
 Largest concise Abelian subgroup C1      NOp   1
                         Standard orientation:                         
 ---------------------------------------------------------------------
 Center     Atomic      Atomic             Coordinates (Angstroms)
 Number     Number       Type             X           Y           Z
 ---------------------------------------------------------------------
      1          6           0        1.252835   -0.129221    0.000000
      2          6           0        1.243319    1.288665    0.000000
      3          6           0        0.016073    1.926490   -0.000000
      4          6           0       -1.242605    1.309618   -0.000000
      5          6           0       -1.213584   -0.104652   -0.000000
      6          6           0        0.000000   -0.822993    0.000000
      7         17           0       -0.054069   -2.511216    0.000000
      8         17           0        2.722682   -0.959143    0.000000
      9          1           0        2.098334    1.811220    0.000000
     10         17           0       -2.689626    2.175684   -0.000000
     11          1           0       -2.077356   -0.609178   -0.000000
 ---------------------------------------------------------------------
 Rotational constants (GHZ):           1.9010257           0.5986509           0.4552792
 Standard basis: VSTO-6G (5D, 7F)
 There are    29 symmetry adapted cartesian basis functions of A'  symmetry.
 There are     9 symmetry adapted cartesian basis functions of A"  symmetry.
 There are    29 symmetry adapted basis functions of A'  symmetry.
 There are     9 symmetry adapted basis functions of A"  symmetry.
    38 basis functions,   228 primitive gaussians,    38 cartesian basis functions
    24 alpha electrons       23 beta electrons
       nuclear repulsion energy       244.0245762274 Hartrees.
 Integral buffers will be    131072 words long.
 Regular integral format.
 Two-electron integral symmetry is turned off.
 Do NDO integrals.
 One-electron integrals computed using PRISM.
 NBasis=    38 RedAO= T EigKep=  1.00D+00  NBF=    29     9
 NBsUse=    38 1.00D-06 EigRej= -1.00D+00 NBFU=    29     9
 Initial guess from the checkpoint file:  "geometry_chks/1245-12_5-ClBzNeutralRadical.chk"
 B after Tr=     0.000000   -0.000000    0.000000
         Rot=    1.000000   -0.000000   -0.000000   -0.000080 Ang=  -0.01 deg.
 Initial guess orbital symmetries:
 Alpha Orbitals:
       Occupied  (A') (A') (A') (A') (A') (A') (A') (A') (A') (A')
                 (A') (A") (A') (A') (A") (A') (A") (A') (A') (A')
                 (A") (A') (A") (A")
       Virtual   (A") (A") (A') (A') (A') (A') (A') (A") (A') (A')
                 (A') (A') (A') (A')
 Beta  Orbitals:
       Occupied  (A') (A') (A') (A') (A') (A') (A') (A') (A') (A')
                 (A') (A") (A') (A') (A") (A") (A') (A') (A') (A')
                 (A") (A") (A")
       Virtual   (A') (A") (A') (A") (A') (A') (A') (A') (A") (A')
                 (A') (A') (A') (A') (A')
 Initial guess <Sx>= 0.0000 <Sy>= 0.0000 <Sz>= 0.5000 <S**2>= 1.4604 S= 0.8078
 Keep J ints in memory in canonical form, NReq=863588.
 Overlap will be assumed to be unity.
 Requested convergence on RMS density matrix=1.00D-08 within  32 cycles.
 Requested convergence on MAX density matrix=1.00D-06.
 Requested convergence on             energy=1.00D-06.
 No special actions if energy rises.
 Fock symm off for IB=2 I1=    1 I=   30 J=   23 Cut=1.00D-07 Err=1.79D-03
 Fock matrix is not symmetric: symmetry in diagonalization turned off.
 SCF Done:  E(UAM1) =  0.104872644858     A.U. after   16 cycles
            NFock= 15  Conv=0.92D-08     -V/T= 1.0009
 <Sx>= 0.0000 <Sy>= 0.0000 <Sz>= 0.5000 <S**2>= 1.3745 S= 0.7746
 <L.S>=  0.00000000000    
 Annihilation of the first spin contaminant:
 S**2 before annihilation     1.3745,   after     1.1018
 QCSCF skips out because SCF is already converged.
 Calling FoFJK, ICntrl=      2127 FMM=F ISym2X=1 I1Cent= 0 IOpClX= 1 NMat=1 NMatS=1 NMatT=0.
 ***** Axes restored to original set *****
 -------------------------------------------------------------------
 Center     Atomic                   Forces (Hartrees/Bohr)
 Number     Number              X              Y              Z
 -------------------------------------------------------------------
      1        6           0.007731773   -0.018647587   -0.000000000
      2        6           0.008365376   -0.077574622   -0.000000000
      3        6          -0.018539615   -0.026545765    0.000000000
      4        6          -0.002818989    0.026951450    0.000000000
      5        6          -0.000477893    0.075527953   -0.000000000
      6        6           0.005429570    0.021693486    0.000000000
      7       17           0.000500432    0.001035850    0.000000000
      8       17           0.002976854   -0.001803586    0.000000000
      9        1           0.000134094    0.082228226    0.000000000
     10       17          -0.005204249    0.003055636    0.000000000
     11        1           0.001902647   -0.085921041    0.000000000
 -------------------------------------------------------------------
 Cartesian Forces:  Max     0.085921041 RMS     0.029480465

 GradGradGradGradGradGradGradGradGradGradGradGradGradGradGradGradGradGrad
 Berny optimization.
 Using GEDIIS/GDIIS optimizer.
 FormGI is forming the generalized inverse of G from B-inverse, IUseBI=4.
 Internal  Forces:  Max     0.085941493 RMS     0.018450480
 Search for a local minimum.
 Step number   4 out of a maximum of   57
 All quantities printed in internal units (Hartrees-Bohrs-Radians)
 Mixed Optimization -- RFO/linear search
 Update second derivatives using D2CorX and points    3    4
 DE= -1.14D-01 DEPred=-2.30D-01 R= 4.97D-01
 Trust test= 4.97D-01 RLast= 1.31D+00 DXMaxT set to 8.49D-01
 ITU=  0  1  1  0
 Use linear search instead of GDIIS.
     Eigenvalues ---    0.02011   0.02011   0.02011   0.02011   0.02011
     Eigenvalues ---    0.02011   0.02011   0.02011   0.06380   0.11823
     Eigenvalues ---    0.16000   0.16002   0.21574   0.24234   0.24343
     Eigenvalues ---    0.25000   0.25003   0.25070   0.26176   0.29033
     Eigenvalues ---    0.29052   0.38669   0.41212   0.43956   0.44655
     Eigenvalues ---    0.44773   0.55751
 RFO step:  Lambda=-1.92845327D-02 EMin= 2.01064763D-02
 Quartic linear search produced a step of -0.19748.
 Iteration  1 RMS(Cart)=  0.05743001 RMS(Int)=  0.01180136
 Iteration  2 RMS(Cart)=  0.01146658 RMS(Int)=  0.00023474
 Iteration  3 RMS(Cart)=  0.00002620 RMS(Int)=  0.00023396
 Iteration  4 RMS(Cart)=  0.00000000 RMS(Int)=  0.00023396
 ClnCor:  largest displacement from symmetrization is 3.27D-09 for atom     7.
 Variable       Old X    -DE/DX   Delta X   Delta X   Delta X     New X
                                 (Linear)    (Quad)   (Total)
    R1        2.67948  -0.00671   0.00404  -0.06106  -0.05703   2.62245
    R2        2.70628  -0.01687  -0.00480  -0.01289  -0.01803   2.68825
    R3        3.18979  -0.00348   0.02685  -0.12456  -0.09771   3.09208
    R4        2.61367  -0.01527   0.01703  -0.14354  -0.12618   2.48750
    R5        1.89361   0.08223   0.17627   0.09000   0.26627   2.15988
    R6        2.64885  -0.02538   0.00844  -0.10111  -0.09232   2.55653
    R7        2.67315  -0.00472   0.00451  -0.05463  -0.05011   2.62304
    R8        3.18683  -0.00603   0.02730  -0.12843  -0.10114   3.08569
    R9        2.66498  -0.00311   0.00438  -0.04213  -0.03807   2.62691
   R10        1.89034   0.08594   0.17939   0.06721   0.24660   2.13694
   R11        3.19191  -0.00099   0.02660  -0.11984  -0.09324   3.09867
    A1        2.06981   0.00416   0.00479  -0.01870  -0.01430   2.05551
    A2        2.09152  -0.00188   0.00086  -0.00547  -0.00441   2.08710
    A3        2.12186  -0.00227  -0.00565   0.02417   0.01871   2.14057
    A4        2.05681  -0.01066   0.00415  -0.02470  -0.02028   2.03653
    A5        2.11267   0.00533  -0.00198   0.01115   0.00903   2.12170
    A6        2.11370   0.00533  -0.00217   0.01355   0.01125   2.12495
    A7        2.20660   0.01139  -0.01773   0.09417   0.07728   2.28388
    A8        2.00597   0.00310   0.01358  -0.04916  -0.03526   1.97071
    A9        2.14657  -0.00200  -0.00796   0.02700   0.01888   2.16545
   A10        2.13064  -0.00110  -0.00562   0.02215   0.01638   2.14702
   A11        2.12577  -0.01159  -0.00518   0.00133  -0.00419   2.12158
   A12        2.07892   0.00549   0.00275  -0.00374  -0.00082   2.07811
   A13        2.07849   0.00610   0.00243   0.00241   0.00501   2.08350
   A14        2.10141   0.00361   0.00039  -0.00295  -0.00326   2.09815
   A15        2.10854  -0.00275  -0.00361   0.01387   0.01061   2.11915
   A16        2.07324  -0.00086   0.00321  -0.01092  -0.00736   2.06588
    D1       -0.00000   0.00000   0.00000  -0.00000   0.00000   0.00000
    D2        3.14159   0.00000   0.00000  -0.00000   0.00000   3.14159
    D3        3.14159  -0.00000   0.00000  -0.00000   0.00000   3.14159
    D4        0.00000   0.00000   0.00000  -0.00000   0.00000   0.00000
    D5        0.00000  -0.00000   0.00000  -0.00000  -0.00000   0.00000
    D6        3.14159  -0.00000   0.00000  -0.00000   0.00000   3.14159
    D7        3.14159   0.00000   0.00000  -0.00000   0.00000   3.14159
    D8       -0.00000   0.00000   0.00000  -0.00000   0.00000   0.00000
    D9       -0.00000  -0.00000   0.00000   0.00000   0.00000   0.00000
   D10        3.14159  -0.00000   0.00000   0.00000   0.00000   3.14159
   D11        0.00000  -0.00000   0.00000  -0.00000  -0.00000   0.00000
   D12        3.14159   0.00000   0.00000  -0.00000   0.00000   3.14159
   D13       -0.00000   0.00000   0.00000  -0.00000   0.00000   0.00000
   D14        3.14159   0.00000   0.00000   0.00000   0.00000   3.14159
   D15        3.14159  -0.00000   0.00000   0.00000   0.00000   3.14159
   D16       -0.00000   0.00000   0.00000   0.00000   0.00000   0.00000
   D17       -0.00000  -0.00000   0.00000   0.00000   0.00000   0.00000
   D18        3.14159   0.00000   0.00000   0.00000   0.00000   3.14159
   D19        3.14159  -0.00000   0.00000   0.00000   0.00000   3.14159
   D20        0.00000  -0.00000   0.00000  -0.00000  -0.00000   0.00000
         Item               Value     Threshold  Converged?
 Maximum Force            0.085941     0.000450     NO 
 RMS     Force            0.018450     0.000300     NO 
 Maximum Displacement     0.217600     0.001800     NO 
 RMS     Displacement     0.064407     0.001200     NO 
 Predicted change in Energy=-3.447946D-02
 GradGradGradGradGradGradGradGradGradGradGradGradGradGradGradGradGradGrad

                          Input orientation:                          
 ---------------------------------------------------------------------
 Center     Atomic      Atomic             Coordinates (Angstroms)
 Number     Number       Type             X           Y           Z
 ---------------------------------------------------------------------
      1          6           0       -3.227512    0.211211    0.000000
      2          6           0       -2.026828    0.907040    0.000000
      3          6           0       -0.925650    0.185845   -0.000000
      4          6           0       -0.745908   -1.155020   -0.000000
      5          6           0       -1.941296   -1.860522   -0.000000
      6          6           0       -3.169891   -1.210181    0.000000
      7         17           0       -4.533449   -2.120937    0.000000
      8         17           0       -4.639898    1.037349    0.000000
      9          1           0       -1.997483    2.049624    0.000000
     10         17           0        0.716218   -1.881984   -0.000000
     11          1           0       -1.912052   -2.990964   -0.000000
 ---------------------------------------------------------------------
                    Distance matrix (angstroms):
                    1          2          3          4          5
     1  C    0.000000
     2  C    1.387738   0.000000
     3  C    2.302001   1.316326   0.000000
[...]
    R1        2.67329  -0.00001   0.00000   0.00004   0.00004   2.67333
    R2        2.67417  -0.00021  -0.00000  -0.00046  -0.00046   2.67371
    R3        3.18895  -0.00004  -0.00000  -0.00011  -0.00011   3.18883
    R4        2.58348   0.00009   0.00000   0.00023   0.00023   2.58371
    R5        2.07520  -0.00007   0.00000  -0.00023  -0.00023   2.07497
    R6        2.60164   0.00004   0.00000   0.00011   0.00011   2.60175
    R7        2.66768  -0.00013   0.00000  -0.00028  -0.00028   2.66740
    R8        3.17649   0.00007   0.00000   0.00028   0.00028   3.17676
    R9        2.65918   0.00001  -0.00000   0.00002   0.00001   2.65920
   R10        2.07942   0.00009   0.00000   0.00012   0.00013   2.07955
   R11        3.20031  -0.00009  -0.00000  -0.00027  -0.00027   3.20004
    A1        2.08468   0.00004   0.00000   0.00013   0.00013   2.08481
    A2        2.07935  -0.00002   0.00000  -0.00010  -0.00010   2.07925
    A3        2.11916  -0.00002  -0.00000  -0.00003  -0.00003   2.11912
    A4        2.01060  -0.00002  -0.00000  -0.00007  -0.00007   2.01053
    A5        2.13106  -0.00004   0.00000  -0.00025  -0.00025   2.13080
    A6        2.14152   0.00005  -0.00000   0.00033   0.00033   2.14185
    A7        2.25159  -0.00008   0.00000  -0.00025  -0.00025   2.25134
    A8        2.01166   0.00004  -0.00000   0.00022   0.00022   2.01188
    A9        2.14466  -0.00006   0.00000  -0.00025  -0.00025   2.14441
   A10        2.12687   0.00001   0.00000   0.00003   0.00003   2.12690
   A11        2.08581  -0.00001   0.00000  -0.00010  -0.00010   2.08571
   A12        2.09767   0.00003  -0.00000   0.00022   0.00022   2.09789
   A13        2.09970  -0.00002  -0.00000  -0.00011  -0.00011   2.09959
   A14        2.12202   0.00003   0.00000   0.00009   0.00009   2.12211
   A15        2.10001  -0.00002  -0.00000  -0.00001  -0.00001   2.09999
   A16        2.06116  -0.00002   0.00000  -0.00007  -0.00007   2.06108
    D1        0.00000   0.00000   0.00000   0.00000   0.00000   0.00000
    D2        3.14159   0.00000   0.00000   0.00000   0.00000   3.14159
    D3        3.14159  -0.00000   0.00000  -0.00000   0.00000   3.14159
    D4       -0.00000   0.00000   0.00000   0.00000   0.00000   0.00000
    D5       -0.00000   0.00000   0.00000   0.00000   0.00000   0.00000
    D6        3.14159  -0.00000   0.00000  -0.00000   0.00000   3.14159
    D7        3.14159   0.00000   0.00000   0.00000   0.00000   3.14159
    D8        0.00000  -0.00000   0.00000  -0.00000   0.00000   0.00000
    D9       -0.00000  -0.00000   0.00000  -0.00000   0.00000   0.00000
   D10        3.14159  -0.00000   0.00000  -0.00000   0.00000   3.14159
   D11        0.00000  -0.00000   0.00000  -0.00000  -0.00000   0.00000
   D12        3.14159   0.00000   0.00000   0.00000   0.00000   3.14159
   D13        0.00000   0.00000   0.00000   0.00000  -0.00000   0.00000
   D14        3.14159   0.00000   0.00000   0.00000   0.00000   3.14159
   D15        3.14159  -0.00000   0.00000  -0.00000   0.00000   3.14159
   D16       -0.00000  -0.00000   0.00000  -0.00000   0.00000   0.00000
   D17        0.00000  -0.00000   0.00000  -0.00000   0.00000   0.00000
   D18        3.14159   0.00000   0.00000   0.00000   0.00000   3.14159
   D19        3.14159  -0.00000   0.00000  -0.00000   0.00000   3.14159
   D20       -0.00000   0.00000   0.00000   0.00000   0.00000   0.00000
         Item               Value     Threshold  Converged?
 Maximum Force            0.000210     0.000450     YES
 RMS     Force            0.000051     0.000300     YES
 Maximum Displacement     0.000735     0.001800     YES
 RMS     Displacement     0.000182     0.001200     YES
 Predicted change in Energy=-1.655454D-07
 Optimization completed.
    -- Stationary point found.
                           ----------------------------
                           !   Optimized Parameters   !
                           ! (Angstroms and Degrees)  !
 --------------------------                            --------------------------
 ! Name  Definition              Value          Derivative Info.                !
 --------------------------------------------------------------------------------
 ! R1    R(1,2)                  1.4146         -DE/DX =    0.0                 !
 ! R2    R(1,6)                  1.4151         -DE/DX =   -0.0002              !
 ! R3    R(1,8)                  1.6875         -DE/DX =    0.0                 !
 ! R4    R(2,3)                  1.3671         -DE/DX =    0.0001              !
 ! R5    R(2,9)                  1.0982         -DE/DX =   -0.0001              !
 ! R6    R(3,4)                  1.3767         -DE/DX =    0.0                 !
 ! R7    R(4,5)                  1.4117         -DE/DX =   -0.0001              !
 ! R8    R(4,10)                 1.6809         -DE/DX =    0.0001              !
 ! R9    R(5,6)                  1.4072         -DE/DX =    0.0                 !
 ! R10   R(5,11)                 1.1004         -DE/DX =    0.0001              !
 ! R11   R(6,7)                  1.6935         -DE/DX =   -0.0001              !
 ! A1    A(2,1,6)              119.4435         -DE/DX =    0.0                 !
 ! A2    A(2,1,8)              119.1378         -DE/DX =    0.0                 !
 ! A3    A(6,1,8)              121.4187         -DE/DX =    0.0                 !
 ! A4    A(1,2,3)              115.199          -DE/DX =    0.0                 !
 ! A5    A(1,2,9)              122.1007         -DE/DX =    0.0                 !
 ! A6    A(3,2,9)              122.7003         -DE/DX =    0.0001              !
 ! A7    A(2,3,4)              129.0066         -DE/DX =   -0.0001              !
 ! A8    A(3,4,5)              115.2597         -DE/DX =    0.0                 !
 ! A9    A(3,4,10)             122.8798         -DE/DX =   -0.0001              !
 ! A10   A(5,4,10)             121.8605         -DE/DX =    0.0                 !
 ! A11   A(4,5,6)              119.5083         -DE/DX =    0.0                 !
 ! A12   A(4,5,11)             120.1878         -DE/DX =    0.0                 !
 ! A13   A(6,5,11)             120.3039         -DE/DX =    0.0                 !
 ! A14   A(1,6,5)              121.5828         -DE/DX =    0.0                 !
 ! A15   A(1,6,7)              120.3215         -DE/DX =    0.0                 !
 ! A16   A(5,6,7)              118.0956         -DE/DX =    0.0                 !
 ! D1    D(6,1,2,3)              0.0            -DE/DX =    0.0                 !
 ! D2    D(6,1,2,9)            180.0            -DE/DX =    0.0                 !
 ! D3    D(8,1,2,3)            180.0            -DE/DX =    0.0                 !
 ! D4    D(8,1,2,9)              0.0            -DE/DX =    0.0                 !
 ! D5    D(2,1,6,5)              0.0            -DE/DX =    0.0                 !
 ! D6    D(2,1,6,7)            180.0            -DE/DX =    0.0                 !
 ! D7    D(8,1,6,5)            180.0            -DE/DX =    0.0                 !
 ! D8    D(8,1,6,7)              0.0            -DE/DX =    0.0                 !
 ! D9    D(1,2,3,4)              0.0            -DE/DX =    0.0                 !
 ! D10   D(9,2,3,4)            180.0            -DE/DX =    0.0                 !
 ! D11   D(2,3,4,5)              0.0            -DE/DX =    0.0                 !
 ! D12   D(2,3,4,10)           180.0            -DE/DX =    0.0                 !
 ! D13   D(3,4,5,6)              0.0            -DE/DX =    0.0                 !
 ! D14   D(3,4,5,11)           180.0            -DE/DX =    0.0                 !
 ! D15   D(10,4,5,6)           180.0            -DE/DX =    0.0                 !
 ! D16   D(10,4,5,11)            0.0            -DE/DX =    0.0                 !
 ! D17   D(4,5,6,1)              0.0            -DE/DX =    0.0                 !
 ! D18   D(4,5,6,7)            180.0            -DE/DX =    0.0                 !
 ! D19   D(11,5,6,1)           180.0            -DE/DX =    0.0                 !
 ! D20   D(11,5,6,7)             0.0            -DE/DX =    0.0                 !
 --------------------------------------------------------------------------------
 GradGradGradGradGradGradGradGradGradGradGradGradGradGradGradGradGradGrad

                          Input orientation:                          
 ---------------------------------------------------------------------
 Center     Atomic      Atomic             Coordinates (Angstroms)
 Number     Number       Type             X           Y           Z
 ---------------------------------------------------------------------
      1          6           0       -3.223254    0.209479    0.000000
      2          6           0       -2.020849    0.954760    0.000000
      3          6           0       -0.874405    0.209987   -0.000000
      4          6           0       -0.730562   -1.159204   -0.000000
      5          6           0       -1.937332   -1.891693   -0.000000
      6          6           0       -3.165275   -1.204443    0.000000
      7         17           0       -4.590884   -2.118603    0.000000
      8         17           0       -4.698182    1.029420    0.000000
      9          1           0       -2.014927    2.052895    0.000000
     10         17           0        0.768716   -1.919255   -0.000000
     11          1           0       -1.916799   -2.991882   -0.000000
 ---------------------------------------------------------------------
                    Distance matrix (angstroms):
                    1          2          3          4          5
     1  C    0.000000
     2  C    1.414645   0.000000
     3  C    2.348849   1.367121   0.000000
     4  C    2.843731   2.476628   1.376727   0.000000
     5  C    2.463436   2.847678   2.355180   1.411678   0.000000
     6  C    1.415110   2.443741   2.692340   2.435133   1.407180
     7  Cl   2.700070   4.006326   4.385721   3.977755   2.663236
     8  Cl   1.687518   2.678374   3.910593   4.531234   4.019352
     9  H    2.204140   1.098150   2.167279   3.459360   3.945350
    10  Cl   4.524083   4.005201   2.689520   1.680926   2.706188
    11  H    3.457678   3.948014   3.367277   2.183087   1.100381
                    6          7          8          9         10
     6  C    0.000000
     7  Cl   1.693532   0.000000
     8  Cl   2.709234   3.149851   0.000000
     9  H    3.454497   4.902749   2.871821   0.000000
    10  Cl   3.998405   5.363306   6.211413   4.850427   0.000000
    11  H    2.180282   2.813067   4.889475   5.045731   2.891802
                   11
    11  H    0.000000
 Stoichiometry    C6H2Cl3(2)
 Framework group  CS[SG(C6H2Cl3)]
 Deg. of freedom    19
 Full point group                 CS      NOp   2
 Largest Abelian subgroup         CS      NOp   2
 Largest concise Abelian subgroup C1      NOp   1
                         Standard orientation:                         
 ---------------------------------------------------------------------
 Center     Atomic      Atomic             Coordinates (Angstroms)
 Number     Number       Type             X           Y           Z
 ---------------------------------------------------------------------
      1          6           0        1.233324   -0.114727    0.000000
      2          6           0        1.235337    1.299917    0.000000
      3          6           0       -0.000852    1.883747   -0.000000
      4          6           0       -1.241255    1.286439   -0.000000
      5          6           0       -1.230090   -0.125194   -0.000000
      6          6           0        0.000000   -0.808593    0.000000
      7         17           0       -0.028360   -2.501888    0.000000
      8         17           0        2.706118   -0.938495    0.000000
      9          1           0        2.166427    1.882159    0.000000
     10         17           0       -2.675898    2.162402   -0.000000
     11          1           0       -2.176834   -0.686011   -0.000000
 ---------------------------------------------------------------------
 Rotational constants (GHZ):           1.9218865           0.6056954           0.4605500

 **********************************************************************

            Population analysis using the SCF Density.

 **********************************************************************

 Orbital symmetries:
 Alpha Orbitals:
       Occupied  (A') (A') (A') (A') (A') (A') (A') (A') (A') (A')
                 (A') (A') (A") (A') (A") (A') (A") (A') (A') (A')
                 (A") (A') (A") (A")
       Virtual   (A") (A") (A') (A') (A') (A") (A') (A') (A') (A')
                 (A') (A') (A') (A')
 Beta  Orbitals:
       Occupied  (A') (A') (A') (A') (A') (A') (A') (A') (A') (A')
                 (A') (A") (A') (A') (A") (A') (A") (A') (A') (A')
                 (A") (A") (A")
       Virtual   (A') (A") (A") (A') (A') (A') (A") (A') (A') (A')
                 (A') (A') (A') (A') (A')
 The electronic state is 2-A'.
 Alpha  occ. eigenvalues --   -1.48273  -1.41400  -1.39961  -1.37913  -1.18194
 Alpha  occ. eigenvalues --   -1.14565  -0.89910  -0.87294  -0.69743  -0.64542
 Alpha  occ. eigenvalues --   -0.63882  -0.57732  -0.57389  -0.55561  -0.51471
 Alpha  occ. eigenvalues --   -0.51163  -0.48655  -0.46417  -0.45277  -0.44768
 Alpha  occ. eigenvalues --   -0.44580  -0.40534  -0.38965  -0.36781
 Alpha virt. eigenvalues --   -0.01482  -0.00736   0.02562   0.03249   0.04989
 Alpha virt. eigenvalues --    0.06786   0.11105   0.12343   0.12672   0.14472
 Alpha virt. eigenvalues --    0.15067   0.15477   0.16766   0.17574
  Beta  occ. eigenvalues --   -1.47695  -1.41414  -1.39940  -1.37540  -1.17854
  Beta  occ. eigenvalues --   -1.13206  -0.89578  -0.85093  -0.69760  -0.63937
  Beta  occ. eigenvalues --   -0.62626  -0.57267  -0.57165  -0.54767  -0.51924
  Beta  occ. eigenvalues --   -0.50813  -0.48820  -0.45534  -0.45112  -0.44582
  Beta  occ. eigenvalues --   -0.44194  -0.38383  -0.36348
  Beta virt. eigenvalues --   -0.01392  -0.01314   0.00607   0.02112   0.03296
  Beta virt. eigenvalues --    0.05181   0.07750   0.11384   0.12793   0.13462
  Beta virt. eigenvalues --    0.15070   0.15371   0.15734   0.17577   0.18945
          Condensed to atoms (all electrons):
               1          2          3          4          5          6
     1  C    4.062973   0.000000   0.000000   0.000000   0.000000   0.000000
     2  C    0.000000   4.100026   0.000000   0.000000   0.000000   0.000000
     3  C    0.000000   0.000000   4.047450   0.000000   0.000000   0.000000
     4  C    0.000000   0.000000   0.000000   4.055900   0.000000   0.000000
     5  C    0.000000   0.000000   0.000000   0.000000   4.109170   0.000000
     6  C    0.000000   0.000000   0.000000   0.000000   0.000000   4.070340
     7  Cl   0.000000   0.000000   0.000000   0.000000   0.000000   0.000000
     8  Cl   0.000000   0.000000   0.000000   0.000000   0.000000   0.000000
     9  H    0.000000   0.000000   0.000000   0.000000   0.000000   0.000000
    10  Cl   0.000000   0.000000   0.000000   0.000000   0.000000   0.000000
    11  H    0.000000   0.000000   0.000000   0.000000   0.000000   0.000000
               7          8          9         10         11
     1  C    0.000000   0.000000   0.000000   0.000000   0.000000
     2  C    0.000000   0.000000   0.000000   0.000000   0.000000
     3  C    0.000000   0.000000   0.000000   0.000000   0.000000
     4  C    0.000000   0.000000   0.000000   0.000000   0.000000
     5  C    0.000000   0.000000   0.000000   0.000000   0.000000
     6  C    0.000000   0.000000   0.000000   0.000000   0.000000
     7  Cl   6.975923   0.000000   0.000000   0.000000   0.000000
     8  Cl   0.000000   6.968344   0.000000   0.000000   0.000000
     9  H    0.000000   0.000000   0.821567   0.000000   0.000000
    10  Cl   0.000000   0.000000   0.000000   6.958160   0.000000
    11  H    0.000000   0.000000   0.000000   0.000000   0.830147
          Atomic-Atomic Spin Densities.
               1          2          3          4          5          6
     1  C    0.522915   0.000000   0.000000   0.000000   0.000000   0.000000
     2  C    0.000000  -0.508327   0.000000   0.000000   0.000000   0.000000
     3  C    0.000000   0.000000   1.404957   0.000000   0.000000   0.000000
     4  C    0.000000   0.000000   0.000000  -0.489310   0.000000   0.000000
     5  C    0.000000   0.000000   0.000000   0.000000   0.518275   0.000000
     6  C    0.000000   0.000000   0.000000   0.000000   0.000000  -0.473420
     7  Cl   0.000000   0.000000   0.000000   0.000000   0.000000   0.000000
     8  Cl   0.000000   0.000000   0.000000   0.000000   0.000000   0.000000
     9  H    0.000000   0.000000   0.000000   0.000000   0.000000   0.000000
    10  Cl   0.000000   0.000000   0.000000   0.000000   0.000000   0.000000
    11  H    0.000000   0.000000   0.000000   0.000000   0.000000   0.000000
               7          8          9         10         11
     1  C    0.000000   0.000000   0.000000   0.000000   0.000000
     2  C    0.000000   0.000000   0.000000   0.000000   0.000000
     3  C    0.000000   0.000000   0.000000   0.000000   0.000000
     4  C    0.000000   0.000000   0.000000   0.000000   0.000000
     5  C    0.000000   0.000000   0.000000   0.000000   0.000000
     6  C    0.000000   0.000000   0.000000   0.000000   0.000000
     7  Cl  -0.002699   0.000000   0.000000   0.000000   0.000000
     8  Cl   0.000000   0.014926   0.000000   0.000000   0.000000
     9  H    0.000000   0.000000   0.034204   0.000000   0.000000
    10  Cl   0.000000   0.000000   0.000000  -0.001002   0.000000
    11  H    0.000000   0.000000   0.000000   0.000000  -0.020517
 Mulliken charges and spin densities:
               1          2
     1  C   -0.062973   0.522915
     2  C   -0.100026  -0.508327
     3  C   -0.047450   1.404957
     4  C   -0.055900  -0.489310
     5  C   -0.109170   0.518275
     6  C   -0.070340  -0.473420
     7  Cl   0.024077  -0.002699
     8  Cl   0.031656   0.014926
     9  H    0.178433   0.034204
    10  Cl   0.041840  -0.001002
    11  H    0.169853  -0.020517
 Sum of Mulliken charges =  -0.00000   1.00000
 Mulliken charges and spin densities with hydrogens summed into heavy atoms:
               1          2
     1  C   -0.062973   0.522915
     2  C    0.078407  -0.474123
     3  C   -0.047450   1.404957
     4  C   -0.055900  -0.489310
     5  C    0.060683   0.497758
     6  C   -0.070340  -0.473420
     7  Cl   0.024077  -0.002699
     8  Cl   0.031656   0.014926
    10  Cl   0.041840  -0.001002
 Charge=              0.0000 electrons
 Dipole moment (field-independent basis, Debye):
    X=             -0.0335    Y=             -0.0538    Z=              0.0000  Tot=              0.0633
 N-N= 2.443893149052D+02 E-N=-3.410445532599D+02  KE=-1.121728032265D+02
 Symmetry A'   KE=-8.620686794663D+01
 Symmetry A"   KE=-2.596593527989D+01
 Symmetry A'   SP= 1.000000000000D+00
 Symmetry A"   SP=-7.605027718682D-15
 1\1\GINC-SH02-02N47\FOpt\UAM1\ZDO\C6H2Cl3(2)\JLAPIER\10-Dec-2025\0\\# 
 opt am1 SCF=XQC\\Neutral Radical (removed 4) 12_5\\0,2\C,-3.223253582,
 0.2094788184,0.\C,-2.0208486907,0.9547600929,0.\C,-0.8744051128,0.2099
 871439,0.\C,-0.7305616056,-1.1592041979,0.\C,-1.9373317606,-1.89169260
 68,0.\C,-3.1652745538,-1.2044431948,0.\Cl,-4.5908838242,-2.11860345,0.
 \Cl,-4.6981816409,1.0294196737,0.\H,-2.0149270339,2.0528945613,0.\Cl,0
 .7687163322,-1.9192545494,0.\H,-1.9167985278,-2.9918822913,0.\\Version
 =ES64L-G16RevB.01\State=2-A'\HF=0.0880218\S2=1.302531\S2-1=0.\S2A=1.01
 9707\RMSD=4.404e-09\RMSF=8.845e-05\Dipole=-0.0110738,-0.0223217,0.\PG=
 CS [SG(C6H2Cl3)]\\@


 EVERYTHING'S GOT A MORAL, IF ONLY YOU CAN FIND IT.

                                    -- LEWIS CARROL, ALICE IN WONDERLAND
 Job cpu time:       0 days  0 hours  0 minutes  7.4 seconds.
 Elapsed time:       0 days  0 hours  0 minutes 13.0 seconds.
 File lengths (MBytes):  RWF=     10 Int=      0 D2E=      0 Chk=      2 Scr=      1
 Normal termination of Gaussian 16 at Wed Dec 10 10:41:57 2025.
