 Entering Gaussian System, Link 0=g16
 Initial command:
 /share/software/user/restricted/gaussian/g16.B01/l1.exe "/home/users/jlapier/Chloroaromatics/Gau-24618.inp" -scrdir="/home/users/jlapier/Chloroaromatics/"
 Entering Link 1 = /share/software/user/restricted/gaussian/g16.B01/l1.exe PID=     24621.
  
 Copyright (c) 1988-2017, Gaussian, Inc.  All Rights Reserved.
  
 This is part of the Gaussian(R) 16 program.  It is based on
 the Gaussian(R) 09 system (copyright 2009, Gaussian, Inc.),
 the Gaussian(R) 03 system (copyright 2003, Gaussian, Inc.),
 the Gaussian(R) 98 system (copyright 1998, Gaussian, Inc.),
 the Gaussian(R) 94 system (copyright 1995, Gaussian, Inc.),
 the Gaussian 92(TM) system (copyright 1992, Gaussian, Inc.),
 the Gaussian 90(TM) system (copyright 1990, Gaussian, Inc.),
 the Gaussian 88(TM) system (copyright 1988, Gaussian, Inc.),
 the Gaussian 86(TM) system (copyright 1986, Carnegie Mellon
 University), and the Gaussian 82(TM) system (copyright 1983,
 Carnegie Mellon University). Gaussian is a federally registered
 trademark of Gaussian, Inc.
  
 This software contains proprietary and confidential information,
 including trade secrets, belonging to Gaussian, Inc.
  
 This software is provided under written license and may be
 used, copied, transmitted, or stored only in accord with that
 written license.
  
 The following legend is applicable only to US Government
 contracts under FAR:
  
                    RESTRICTED RIGHTS LEGEND
  
 Use, reproduction and disclosure by the US Government is
 subject to restrictions as set forth in subparagraphs (a)
 and (c) of the Commercial Computer Software - Restricted
 Rights clause in FAR 52.227-19.
  
 Gaussian, Inc.
 340 Quinnipiac St., Bldg. 40, Wallingford CT 06492
  
  
 ---------------------------------------------------------------
 Warning -- This program may not be used in any manner that
 competes with the business of Gaussian, Inc. or will provide
 assistance to any competitor of Gaussian, Inc.  The licensee
 of this program is prohibited from giving any competitor of
 Gaussian, Inc. access to this program.  By using this program,
 the user acknowledges that Gaussian, Inc. is engaged in the
 business of creating and licensing software in the field of
 computational chemistry and represents and warrants to the
 licensee that it is not a competitor of Gaussian, Inc. and that
 it will not use this program in any manner prohibited above.
 ---------------------------------------------------------------
  

 Cite this work as:
 Gaussian 16, Revision B.01,
 M. J. Frisch, G. W. Trucks, H. B. Schlegel, G. E. Scuseria, 
 M. A. Robb, J. R. Cheeseman, G. Scalmani, V. Barone, 
 G. A. Petersson, H. Nakatsuji, X. Li, M. Caricato, A. V. Marenich, 
 J. Bloino, B. G. Janesko, R. Gomperts, B. Mennucci, H. P. Hratchian, 
 J. V. Ortiz, A. F. Izmaylov, J. L. Sonnenberg, D. Williams-Young, 
 F. Ding, F. Lipparini, F. Egidi, J. Goings, B. Peng, A. Petrone, 
 T. Henderson, D. Ranasinghe, V. G. Zakrzewski, J. Gao, N. Rega, 
 G. Zheng, W. Liang, M. Hada, M. Ehara, K. Toyota, R. Fukuda, 
 J. Hasegawa, M. Ishida, T. Nakajima, Y. Honda, O. Kitao, H. Nakai, 
 T. Vreven, K. Throssell, J. A. Montgomery, Jr., J. E. Peralta, 
 F. Ogliaro, M. J. Bearpark, J. J. Heyd, E. N. Brothers, K. N. Kudin, 
 V. N. Staroverov, T. A. Keith, R. Kobayashi, J. Normand, 
 K. Raghavachari, A. P. Rendell, J. C. Burant, S. S. Iyengar, 
 J. Tomasi, M. Cossi, J. M. Millam, M. Klene, C. Adamo, R. Cammi, 
 J. W. Ochterski, R. L. Martin, K. Morokuma, O. Farkas, 
 J. B. Foresman, and D. J. Fox, Gaussian, Inc., Wallingford CT, 2016.
 
 ******************************************
 Gaussian 16:  ES64L-G16RevB.01 20-Dec-2017
                 9-Dec-2025 
 ******************************************
 %mem=2GB
 %nprocshare=1
 Will use up to    1 processors via shared memory.
 %chk=geometry_chks/124ClBzAnionRadical.chk
 -----------------
 # opt am1 SCF=XQC
 -----------------
 1/18=20,19=15,26=1,38=1/1,3;
 2/9=110,12=2,17=6,18=5,40=1/2;
 3/5=2,25=1,41=700000,71=1/1,2,3;
 4/35=1/1;
 5/5=2,8=3,13=1,35=1,38=5/2,8;
 6/7=2,8=2,9=2,10=2,28=1/1;
 7//1,2,3,16;
 1/18=20,19=15,26=1/3(2);
 2/9=110/2;
 99//99;
 2/9=110/2;
 3/5=2,25=1,41=700000,71=1,135=20/1,2,3;
 4/5=5,16=3,35=1/1;
 5/5=2,8=3,13=1,35=1,38=5/2,8;
 7//1,2,3,16;
 1/18=20,19=15,26=1/3(-5);
 2/9=110/2;
 6/7=2,8=2,9=2,10=2,19=2,28=1/1;
 99/9=1/99;
 ------------------------------------
 3-Chloro-Benzene Anion Radical (124)
 ------------------------------------
 Symbolic Z-matrix:
 Charge = -1 Multiplicity = 2
 C                    -3.20928   0.19943   0. 
 C                    -2.0115    0.93555   0. 
 C                    -0.77511   0.2663    0. 
 C                    -0.7365   -1.13907   0. 
 C                    -1.93429  -1.87519   0. 
 C                    -3.17067  -1.20594   0. 
 Cl                   -4.67483  -2.13035   0. 
 Cl                   -4.76193   1.03987   0. 
 H                     0.81614  -1.97951   0. 
 Cl                   -1.8858   -3.64003   0. 
 H                    -2.05998   2.7004    0. 
 H                     0.72905   1.19071   0. 
 
 Add virtual bond connecting atoms H9         and C4         Dist= 3.34D+00.
 Add virtual bond connecting atoms H12        and C3         Dist= 3.34D+00.
 Add virtual bond connecting atoms H11        and C2         Dist= 3.34D+00.

 GradGradGradGradGradGradGradGradGradGradGradGradGradGradGradGradGradGrad
 Berny optimization.
 Initialization pass.
                           ----------------------------
                           !    Initial Parameters    !
                           ! (Angstroms and Degrees)  !
 --------------------------                            --------------------------
 ! Name  Definition              Value          Derivative Info.                !
 --------------------------------------------------------------------------------
 ! R1    R(1,2)                  1.4059         estimate D2E/DX2                !
 ! R2    R(1,6)                  1.4059         estimate D2E/DX2                !
 ! R3    R(1,8)                  1.7655         estimate D2E/DX2                !
 ! R4    R(2,3)                  1.4059         estimate D2E/DX2                !
 ! R5    R(2,11)                 1.7655         estimate D2E/DX2                !
 ! R6    R(3,4)                  1.4059         estimate D2E/DX2                !
 ! R7    R(3,12)                 1.7655         estimate D2E/DX2                !
 ! R8    R(4,5)                  1.4059         estimate D2E/DX2                !
 ! R9    R(4,9)                  1.7655         estimate D2E/DX2                !
 ! R10   R(5,6)                  1.4059         estimate D2E/DX2                !
 ! R11   R(5,10)                 1.7655         estimate D2E/DX2                !
 ! R12   R(6,7)                  1.7655         estimate D2E/DX2                !
 ! A1    A(2,1,6)              119.9999         estimate D2E/DX2                !
 ! A2    A(2,1,8)              119.9999         estimate D2E/DX2                !
 ! A3    A(6,1,8)              120.0001         estimate D2E/DX2                !
 ! A4    A(1,2,3)              120.0            estimate D2E/DX2                !
 ! A5    A(1,2,11)             120.0001         estimate D2E/DX2                !
 ! A6    A(3,2,11)             119.9999         estimate D2E/DX2                !
 ! A7    A(2,3,4)              120.0001         estimate D2E/DX2                !
 ! A8    A(2,3,12)             120.0            estimate D2E/DX2                !
 ! A9    A(4,3,12)             119.9999         estimate D2E/DX2                !
 ! A10   A(3,4,5)              119.9997         estimate D2E/DX2                !
 ! A11   A(3,4,9)              120.0003         estimate D2E/DX2                !
 ! A12   A(5,4,9)              120.0            estimate D2E/DX2                !
 ! A13   A(4,5,6)              120.0            estimate D2E/DX2                !
 ! A14   A(4,5,10)             119.9996         estimate D2E/DX2                !
 ! A15   A(6,5,10)             120.0004         estimate D2E/DX2                !
 ! A16   A(1,6,5)              120.0003         estimate D2E/DX2                !
 ! A17   A(1,6,7)              119.9999         estimate D2E/DX2                !
 ! A18   A(5,6,7)              119.9998         estimate D2E/DX2                !
 ! D1    D(6,1,2,3)              0.0            estimate D2E/DX2                !
 ! D2    D(6,1,2,11)           180.0            estimate D2E/DX2                !
 ! D3    D(8,1,2,3)            180.0            estimate D2E/DX2                !
 ! D4    D(8,1,2,11)             0.0            estimate D2E/DX2                !
 ! D5    D(2,1,6,5)              0.0            estimate D2E/DX2                !
 ! D6    D(2,1,6,7)            180.0            estimate D2E/DX2                !
 ! D7    D(8,1,6,5)            180.0            estimate D2E/DX2                !
 ! D8    D(8,1,6,7)              0.0            estimate D2E/DX2                !
 ! D9    D(1,2,3,4)              0.0            estimate D2E/DX2                !
 ! D10   D(1,2,3,12)           180.0            estimate D2E/DX2                !
 ! D11   D(11,2,3,4)           180.0            estimate D2E/DX2                !
 ! D12   D(11,2,3,12)            0.0            estimate D2E/DX2                !
 ! D13   D(2,3,4,5)              0.0            estimate D2E/DX2                !
 ! D14   D(2,3,4,9)            180.0            estimate D2E/DX2                !
 ! D15   D(12,3,4,5)           180.0            estimate D2E/DX2                !
 ! D16   D(12,3,4,9)             0.0            estimate D2E/DX2                !
 ! D17   D(3,4,5,6)              0.0            estimate D2E/DX2                !
 ! D18   D(3,4,5,10)           180.0            estimate D2E/DX2                !
 ! D19   D(9,4,5,6)            180.0            estimate D2E/DX2                !
 ! D20   D(9,4,5,10)             0.0            estimate D2E/DX2                !
 ! D21   D(4,5,6,1)              0.0            estimate D2E/DX2                !
 ! D22   D(4,5,6,7)            180.0            estimate D2E/DX2                !
 ! D23   D(10,5,6,1)           180.0            estimate D2E/DX2                !
 ! D24   D(10,5,6,7)             0.0            estimate D2E/DX2                !
 --------------------------------------------------------------------------------
 Trust Radius=3.00D-01 FncErr=1.00D-07 GrdErr=1.00D-07 EigMax=2.50D+02 EigMin=1.00D-04
 Number of steps in this run=     64 maximum allowed number of steps=    100.
 GradGradGradGradGradGradGradGradGradGradGradGradGradGradGradGradGradGrad

                          Input orientation:                          
 ---------------------------------------------------------------------
 Center     Atomic      Atomic             Coordinates (Angstroms)
 Number     Number       Type             X           Y           Z
 ---------------------------------------------------------------------
      1          6           0       -3.209280    0.199430    0.000000
      2          6           0       -2.011500    0.935550    0.000000
      3          6           0       -0.775110    0.266300    0.000000
      4          6           0       -0.736500   -1.139070    0.000000
      5          6           0       -1.934290   -1.875190    0.000000
      6          6           0       -3.170670   -1.205940    0.000000
      7         17           0       -4.674830   -2.130350    0.000000
      8         17           0       -4.761930    1.039870    0.000000
      9          1           0        0.816140   -1.979510    0.000000
     10         17           0       -1.885800   -3.640030    0.000000
     11          1           0       -2.059980    2.700400    0.000000
     12          1           0        0.729050    1.190710    0.000000
 ---------------------------------------------------------------------
                    Distance matrix (angstroms):
                    1          2          3          4          5
     1  C    0.000000
     2  C    1.405898   0.000000
     3  C    2.435088   1.405900   0.000000
     4  C    2.811801   2.435092   1.405900   0.000000
     5  C    2.435087   2.811800   2.435093   1.405907   0.000000
     6  C    1.405900   2.435088   2.811796   2.435088   1.405892
     7  Cl   2.752401   4.061166   4.577308   4.061167   2.752393
     8  Cl   1.765520   2.752408   4.061175   4.577321   4.061173
     9  H    4.577312   4.061173   2.752406   1.765511   2.752408
    10  Cl   4.061164   4.577306   4.061163   2.752397   1.765506
    11  H    2.752406   1.765516   2.752405   4.061173   4.577316
    12  H    4.061167   2.752403   1.765512   2.752401   4.061173
                    6          7          8          9         10
     6  C    0.000000
     7  Cl   1.765512   0.000000
     8  Cl   2.752412   3.171416   0.000000
     9  H    4.061165   5.493041   6.342832   0.000000
    10  Cl   2.752396   3.171407   5.493049   3.171404   0.000000
    11  H    4.061173   5.493049   3.171418   5.493052   6.342822
    12  H    4.577308   6.342819   5.493051   3.171416   5.493040
                   11         12
    11  H    0.000000
    12  H    3.171412   0.000000
 Stoichiometry    C6H3Cl3(1-,2)
 Framework group  CS[SG(C6H3Cl3)]
 Deg. of freedom    21
 Full point group                 CS      NOp   2
 Largest Abelian subgroup         CS      NOp   2
 Largest concise Abelian subgroup C1      NOp   1
                         Standard orientation:                         
 ---------------------------------------------------------------------
 Center     Atomic      Atomic             Coordinates (Angstroms)
 Number     Number       Type             X           Y           Z
 ---------------------------------------------------------------------
      1          6           0        0.976541    0.842091    0.000000
      2          6           0        2.194085    0.139143    0.000000
      3          6           0        2.194085   -1.266757    0.000000
      4          6           0        0.976541   -1.969709    0.000000
      5          6           0       -0.241008   -1.266753    0.000000
      6          6           0       -0.241003    0.139139    0.000000
      7         17           0       -1.769981    1.021895    0.000000
      8         17           0        0.976541    2.607611    0.000000
      9          1           0        0.976535   -3.735221    0.000000
     10         17           0       -1.769978   -2.149512    0.000000
     11          1           0        3.723068    1.021899    0.000000
     12          1           0        3.723063   -2.149513    0.000000
 ---------------------------------------------------------------------
 Rotational constants (GHZ):           1.4194274           0.8231885           0.5210238
 Standard basis: VSTO-6G (5D, 7F)
 There are    30 symmetry adapted cartesian basis functions of A'  symmetry.
 There are     9 symmetry adapted cartesian basis functions of A"  symmetry.
 There are    30 symmetry adapted basis functions of A'  symmetry.
 There are     9 symmetry adapted basis functions of A"  symmetry.
    39 basis functions,   234 primitive gaussians,    39 cartesian basis functions
    25 alpha electrons       24 beta electrons
       nuclear repulsion energy       249.1146326635 Hartrees.
 Integral buffers will be    131072 words long.
 Regular integral format.
 Two-electron integral symmetry is turned off.
 Do NDO integrals.
 One-electron integrals computed using PRISM.
 NBasis=    39 RedAO= T EigKep=  1.00D+00  NBF=    30     9
 NBsUse=    39 1.00D-06 EigRej= -1.00D+00 NBFU=    30     9
 Simple Huckel Guess.
 Initial guess orbital symmetries:
 Alpha Orbitals:
       Occupied  (A') (A') (A') (A') (A') (A') (A') (A') (A') (A")
                 (A') (A') (A') (A') (A") (A") (A') (A') (A") (A')
                 (A') (A') (A") (A") (A')
       Virtual   (A") (A") (A') (A') (A") (A') (A') (A') (A') (A')
                 (A') (A') (A') (A')
 Beta  Orbitals:
       Occupied  (A') (A') (A') (A') (A') (A') (A') (A') (A') (A")
                 (A') (A') (A') (A') (A") (A") (A') (A') (A") (A')
                 (A') (A') (A") (A")
       Virtual   (A') (A") (A") (A') (A') (A") (A') (A') (A') (A')
                 (A') (A') (A') (A') (A')
 The electronic state of the initial guess is 2-A'.
 Initial guess <Sx>= 0.0000 <Sy>= 0.0000 <Sz>= 0.5000 <S**2>= 0.7500 S= 0.5000
 Keep J ints in memory in canonical form, NReq=863709.
 Overlap will be assumed to be unity.
 Requested convergence on RMS density matrix=1.00D-08 within  32 cycles.
 Requested convergence on MAX density matrix=1.00D-06.
 Requested convergence on             energy=1.00D-06.
 No special actions if energy rises.
 Fock symm off for IB=2 I1=    1 I=   31 J=   26 Cut=1.00D-07 Err=4.96D-03
 Fock matrix is not symmetric: symmetry in diagonalization turned off.
 Rare condition: small coef for last iteration:  0.000D+00
 Rare condition: small coef for last iteration:  0.000D+00
 Rare condition: small coef for last iteration:  0.000D+00
 Rare condition: small coef for last iteration:  0.000D+00
 Rare condition: small coef for last iteration:  0.000D+00
 Rare condition: small coef for last iteration:  0.000D+00
 Rare condition: small coef for last iteration:  0.000D+00
 Rare condition: small coef for last iteration:  0.000D+00
 Rare condition: small coef for last iteration:  0.000D+00
 Rare condition: small coef for last iteration:  0.000D+00
 Rare condition: small coef for last iteration:  0.000D+00
 Rare condition: small coef for last iteration:  0.000D+00
 >>>>>>>>>> Convergence criterion not met.
 SCF Done:  E(UAM1) =  0.336459729140     A.U. after   33 cycles
            NFock= 32  Conv=0.49D-02     -V/T= 1.0030
 <Sx>= 0.0000 <Sy>= 0.0000 <Sz>= 0.5000 <S**2>= 1.7629 S= 0.9188
 <L.S>=  0.00000000000    
 Annihilation of the first spin contaminant:
 S**2 before annihilation     1.7629,   after     2.1079
 Keep J ints in memory in canonical form, NReq=864109.
 LinEq1:  Iter=  0 NonCon=     1 RMS=5.78D-04 Max=8.55D-03 NDo=     1
 AX will form     1 AO Fock derivatives at one time.
 LinEq1:  Iter=  1 NonCon=     1 RMS=2.11D-04 Max=2.72D-03 NDo=     1
 LinEq1:  Iter=  2 NonCon=     1 RMS=5.70D-05 Max=8.92D-04 NDo=     1
 LinEq1:  Iter=  3 NonCon=     1 RMS=1.03D-05 Max=1.26D-04 NDo=     1
 LinEq1:  Iter=  4 NonCon=     1 RMS=2.62D-06 Max=3.69D-05 NDo=     1
 LinEq1:  Iter=  5 NonCon=     1 RMS=5.52D-07 Max=4.88D-06 NDo=     1
 LinEq1:  Iter=  6 NonCon=     1 RMS=1.13D-07 Max=1.35D-06 NDo=     1
 LinEq1:  Iter=  7 NonCon=     1 RMS=3.56D-08 Max=3.51D-07 NDo=     1
 LinEq1:  Iter=  8 NonCon=     1 RMS=1.16D-08 Max=1.03D-07 NDo=     1
 LinEq1:  Iter=  9 NonCon=     0 RMS=2.28D-09 Max=1.98D-08 NDo=     1
 Linear equations converged to 2.665D-09 2.665D-08 after     9 iterations.
 Gradient too large for Newton-Raphson -- use scaled steepest descent instead.
 LinEq1:  Iter=  0 NonCon=     1 RMS=6.66D-04 Max=8.54D-03 NDo=     1
 LinEq1:  Iter=  1 NonCon=     1 RMS=3.31D-04 Max=5.71D-03 NDo=     1
 LinEq1:  Iter=  2 NonCon=     1 RMS=6.94D-05 Max=8.20D-04 NDo=     1
 LinEq1:  Iter=  3 NonCon=     1 RMS=9.69D-06 Max=1.16D-04 NDo=     1
 LinEq1:  Iter=  4 NonCon=     1 RMS=1.72D-06 Max=1.37D-05 NDo=     1
 LinEq1:  Iter=  5 NonCon=     1 RMS=4.89D-07 Max=4.27D-06 NDo=     1
 LinEq1:  Iter=  6 NonCon=     1 RMS=1.25D-07 Max=1.28D-06 NDo=     1
 LinEq1:  Iter=  7 NonCon=     1 RMS=3.58D-08 Max=3.32D-07 NDo=     1
 LinEq1:  Iter=  8 NonCon=     1 RMS=1.04D-08 Max=6.95D-08 NDo=     1
 LinEq1:  Iter=  9 NonCon=     1 RMS=2.79D-09 Max=1.92D-08 NDo=     1
 LinEq1:  Iter= 10 NonCon=     0 RMS=7.45D-10 Max=5.80D-09 NDo=     1
 Linear equations converged to 2.665D-09 2.665D-08 after    10 iterations.
     Accept linear search using points  1 and  2.
 LinEq1:  Iter=  0 NonCon=     1 RMS=1.34D-04 Max=1.19D-03 NDo=     1
 LinEq1:  Iter=  1 NonCon=     1 RMS=4.51D-05 Max=7.48D-04 NDo=     1
 LinEq1:  Iter=  2 NonCon=     1 RMS=1.20D-05 Max=1.95D-04 NDo=     1
 LinEq1:  Iter=  3 NonCon=     1 RMS=2.12D-06 Max=2.25D-05 NDo=     1
 LinEq1:  Iter=  4 NonCon=     1 RMS=4.55D-07 Max=4.49D-06 NDo=     1
 LinEq1:  Iter=  5 NonCon=     1 RMS=7.72D-08 Max=4.82D-07 NDo=     1
 LinEq1:  Iter=  6 NonCon=     1 RMS=1.60D-08 Max=1.32D-07 NDo=     1
 LinEq1:  Iter=  7 NonCon=     1 RMS=3.62D-09 Max=2.18D-08 NDo=     1
 LinEq1:  Iter=  8 NonCon=     0 RMS=7.49D-10 Max=5.84D-09 NDo=     1
 Linear equations converged to 2.665D-09 2.665D-08 after     8 iterations.
     Minimum is close to point  2 DX=  3.85D-03 DF= -1.86D-10 DXR=  3.83D-03 DFR=  1.47D-05 which will be used.
 LinEq1:  Iter=  0 NonCon=     1 RMS=1.22D-06 Max=1.43D-05 NDo=     1
 LinEq1:  Iter=  1 NonCon=     1 RMS=4.64D-07 Max=5.52D-06 NDo=     1
 LinEq1:  Iter=  2 NonCon=     1 RMS=1.33D-07 Max=1.28D-06 NDo=     1
 LinEq1:  Iter=  3 NonCon=     1 RMS=3.21D-08 Max=2.19D-07 NDo=     1
 LinEq1:  Iter=  4 NonCon=     1 RMS=7.01D-09 Max=4.72D-08 NDo=     1
 LinEq1:  Iter=  5 NonCon=     1 RMS=1.67D-09 Max=1.55D-08 NDo=     1
 LinEq1:  Iter=  6 NonCon=     1 RMS=4.12D-10 Max=3.75D-09 NDo=     1
 LinEq1:  Iter=  7 NonCon=     0 RMS=8.89D-11 Max=6.86D-10 NDo=     1
 Linear equations converged to 1.765D-10 1.765D-09 after     7 iterations.
 LinEq1:  Iter=  0 NonCon=     1 RMS=2.27D-08 Max=1.75D-07 NDo=     1
 LinEq1:  Iter=  1 NonCon=     1 RMS=9.28D-09 Max=1.12D-07 NDo=     1
 LinEq1:  Iter=  2 NonCon=     1 RMS=2.21D-09 Max=1.76D-08 NDo=     1
 LinEq1:  Iter=  3 NonCon=     1 RMS=4.32D-10 Max=2.30D-09 NDo=     1
 LinEq1:  Iter=  4 NonCon=     1 RMS=1.19D-10 Max=9.57D-10 NDo=     1
 LinEq1:  Iter=  5 NonCon=     1 RMS=2.77D-11 Max=2.95D-10 NDo=     1
 LinEq1:  Iter=  6 NonCon=     1 RMS=7.73D-12 Max=7.98D-11 NDo=     1
 LinEq1:  Iter=  7 NonCon=     0 RMS=2.52D-12 Max=2.33D-11 NDo=     1
 Linear equations converged to 3.594D-12 3.594D-11 after     7 iterations.
 QCLLim is confused:  Bigger=F Turned=T
 NLin=  3 IMin12=  2  3 I12=  1  1 IX=  2 XLMin= 0.000D+00 XLMax= 0.000D+00
 X = 0.000D+00 1.000D+00 5.000D-01
 DE= 0.000D+00-2.274D-13-2.274D-13
 QCLLim is confused:  Bigger=F Turned=T
 NLin=  4 IMin12=  2  3 I12=  1  1 IX=  2 XLMin= 0.000D+00 XLMax= 0.000D+00
 X = 0.000D+00 1.000D+00 5.000D-01 3.000D-01
 DE= 0.000D+00-2.274D-13-2.274D-13 5.684D-14
 QCLLim is confused:  Bigger=F Turned=T
 NLin=  5 IMin12=  2  3 I12=  1  1 IX=  2 XLMin= 0.000D+00 XLMax= 0.000D+00
 X = 0.000D+00 1.000D+00 5.000D-01 3.000D-01 1.000D-01
 DE= 0.000D+00-2.274D-13-2.274D-13 5.684D-14 1.137D-13
 QCLLim is confused:  Bigger=F Turned=T
 NLin=  6 IMin12=  2  3 I12=  1  1 IX=  2 XLMin= 0.000D+00 XLMax= 0.000D+00
 X = 0.000D+00 1.000D+00 5.000D-01 3.000D-01 1.000D-01 6.250D-02
 DE= 0.000D+00-2.274D-13-2.274D-13 5.684D-14 1.137D-13-2.842D-14
 QCLLim is confused:  Bigger=F Turned=T
 NLin=  7 IMin12=  2  3 I12=  1  1 IX=  2 XLMin= 0.000D+00 XLMax= 0.000D+00
 X = 0.000D+00 1.000D+00 5.000D-01 3.000D-01 1.000D-01 6.250D-02 3.125D-02
 DE= 0.000D+00-2.274D-13-2.274D-13 5.684D-14 1.137D-13-2.842D-14 1.705D-13
 QCLLim is confused:  Bigger=F Turned=T
 NLin=  8 IMin12=  2  3 I12=  1  1 IX=  2 XLMin= 0.000D+00 XLMax= 0.000D+00
 X = 0.000D+00 1.000D+00 5.000D-01 3.000D-01 1.000D-01 6.250D-02 3.125D-02 1.563D-02
 DE= 0.000D+00-2.274D-13-2.274D-13 5.684D-14 1.137D-13-2.842D-14 1.705D-13 5.684D-14
 QCLLim is confused:  Bigger=F Turned=T
 NLin=  9 IMin12=  2  3 I12=  1  1 IX=  2 XLMin= 0.000D+00 XLMax= 0.000D+00
 X = 0.000D+00 1.000D+00 5.000D-01 3.000D-01 1.000D-01 6.250D-02 3.125D-02 1.563D-02 7.813D-03
 DE= 0.000D+00-2.274D-13-2.274D-13 5.684D-14 1.137D-13-2.842D-14 1.705D-13 5.684D-14 5.684D-14
 QCLLim is confused:  Bigger=F Turned=T
 NLin= 10 IMin12=  2  3 I12=  1  1 IX=  2 XLMin= 0.000D+00 XLMax= 0.000D+00
 X = 0.000D+00 1.000D+00 5.000D-01 3.000D-01 1.000D-01 6.250D-02 3.125D-02 1.563D-02 7.813D-03 3.906D-03
 DE= 0.000D+00-2.274D-13-2.274D-13 5.684D-14 1.137D-13-2.842D-14 1.705D-13 5.684D-14 5.684D-14 1.705D-13
 QCLLim is confused:  Bigger=F Turned=T
 NLin= 11 IMin12=  2  3 I12=  1  1 IX=  2 XLMin= 0.000D+00 XLMax= 0.000D+00
 X = 0.000D+00 1.000D+00 5.000D-01 3.000D-01 1.000D-01 6.250D-02 3.125D-02 1.563D-02 7.813D-03 3.906D-03 1.953D-03
 DE= 0.000D+00-2.274D-13-2.274D-13 5.684D-14 1.137D-13-2.842D-14 1.705D-13 5.684D-14 5.684D-14 1.705D-13 1.705D-13
 SCF Done:  E(UAM1) =  0.331597693075     a.u. after    7 cycles
            Convg  =    0.8699D-08                    74 Fock formations.
              S**2 =  1.7134                  -V/T =  1.0029
 <Sx>= 0.0000 <Sy>= 0.0000 <Sz>= 0.5000 <S**2>= 1.7134 S= 0.9012
 <L.S>=  0.00000000000    
 Annihilation of the first spin contaminant:
 S**2 before annihilation     1.7134,   after     1.9613

 **********************************************************************

            Population analysis using the SCF Density.

 **********************************************************************

 Orbital symmetries:
 Alpha Orbitals:
       Occupied  (A') (A') (A') (A') (A') (A') (A') (A') (A') (A')
                 (A') (A") (A') (A") (A") (A') (A') (A') (A') (A")
                 (A') (A') (A") (A") (A')
       Virtual   (A') (A') (A") (A') (A") (A') (A') (A") (A') (A')
                 (A') (A') (A') (A')
 Beta  Orbitals:
       Occupied  (A') (A') (A') (A') (A') (A') (A') (A') (A') (A')
                 (A') (A") (A') (A") (A") (A') (A') (A') (A') (A")
                 (A') (A") (A") (A')
       Virtual   (A") (A') (A") (A') (A') (A') (A') (A") (A') (A')
                 (A') (A') (A') (A') (A')
 The electronic state is 2-A'.
 Alpha  occ. eigenvalues --   -1.28106  -1.23797  -1.23296  -1.20100  -0.95381
 Alpha  occ. eigenvalues --   -0.94136  -0.67205  -0.65588  -0.50159  -0.44955
 Alpha  occ. eigenvalues --   -0.41911  -0.40556  -0.38545  -0.35189  -0.33206
 Alpha  occ. eigenvalues --   -0.31807  -0.31585  -0.30048  -0.29828  -0.28519
 Alpha  occ. eigenvalues --   -0.24744  -0.21864  -0.20659  -0.18526  -0.07385
 Alpha virt. eigenvalues --    0.15166   0.15914   0.15952   0.15953   0.17990
 Alpha virt. eigenvalues --    0.19756   0.19929   0.27103   0.30205   0.30303
 Alpha virt. eigenvalues --    0.32647   0.34169   0.36532   0.39965
  Beta  occ. eigenvalues --   -1.28360  -1.23734  -1.23354  -1.20454  -0.96167
  Beta  occ. eigenvalues --   -0.94922  -0.67710  -0.67245  -0.50162  -0.45356
  Beta  occ. eigenvalues --   -0.42789  -0.40617  -0.39001  -0.34571  -0.33374
  Beta  occ. eigenvalues --   -0.31831  -0.31709  -0.30087  -0.29951  -0.28908
  Beta  occ. eigenvalues --   -0.22572  -0.20734  -0.20328  -0.16556
  Beta virt. eigenvalues --    0.15748   0.15782   0.16999   0.17638   0.18905
  Beta virt. eigenvalues --    0.20199   0.20881   0.26518   0.28753   0.30131
  Beta virt. eigenvalues --    0.30255   0.31909   0.33621   0.36093   0.38223
          Condensed to atoms (all electrons):
               1          2          3          4          5          6
     1  C    4.044765   0.000000   0.000000   0.000000   0.000000   0.000000
     2  C    0.000000   4.107693   0.000000   0.000000   0.000000   0.000000
     3  C    0.000000   0.000000   4.232444   0.000000   0.000000   0.000000
     4  C    0.000000   0.000000   0.000000   4.107695   0.000000   0.000000
     5  C    0.000000   0.000000   0.000000   0.000000   4.044769   0.000000
     6  C    0.000000   0.000000   0.000000   0.000000   0.000000   4.082717
     7  Cl   0.000000   0.000000   0.000000   0.000000   0.000000   0.000000
     8  Cl   0.000000   0.000000   0.000000   0.000000   0.000000   0.000000
     9  H    0.000000   0.000000   0.000000   0.000000   0.000000   0.000000
    10  Cl   0.000000   0.000000   0.000000   0.000000   0.000000   0.000000
    11  H    0.000000   0.000000   0.000000   0.000000   0.000000   0.000000
    12  H    0.000000   0.000000   0.000000   0.000000   0.000000   0.000000
               7          8          9         10         11         12
     1  C    0.000000   0.000000   0.000000   0.000000   0.000000   0.000000
     2  C    0.000000   0.000000   0.000000   0.000000   0.000000   0.000000
     3  C    0.000000   0.000000   0.000000   0.000000   0.000000   0.000000
     4  C    0.000000   0.000000   0.000000   0.000000   0.000000   0.000000
     5  C    0.000000   0.000000   0.000000   0.000000   0.000000   0.000000
     6  C    0.000000   0.000000   0.000000   0.000000   0.000000   0.000000
     7  Cl   7.081113   0.000000   0.000000   0.000000   0.000000   0.000000
     8  Cl   0.000000   7.106444   0.000000   0.000000   0.000000   0.000000
     9  H    0.000000   0.000000   0.959364   0.000000   0.000000   0.000000
    10  Cl   0.000000   0.000000   0.000000   7.106435   0.000000   0.000000
    11  H    0.000000   0.000000   0.000000   0.000000   0.959367   0.000000
    12  H    0.000000   0.000000   0.000000   0.000000   0.000000   1.167195
          Atomic-Atomic Spin Densities.
               1          2          3          4          5          6
     1  C    0.370459   0.000000   0.000000   0.000000   0.000000   0.000000
     2  C    0.000000  -0.820640   0.000000   0.000000   0.000000   0.000000
     3  C    0.000000   0.000000   0.432273   0.000000   0.000000   0.000000
     4  C    0.000000   0.000000   0.000000  -0.820644   0.000000   0.000000
     5  C    0.000000   0.000000   0.000000   0.000000   0.370456   0.000000
     6  C    0.000000   0.000000   0.000000   0.000000   0.000000  -0.409921
     7  Cl   0.000000   0.000000   0.000000   0.000000   0.000000   0.000000
     8  Cl   0.000000   0.000000   0.000000   0.000000   0.000000   0.000000
     9  H    0.000000   0.000000   0.000000   0.000000   0.000000   0.000000
    10  Cl   0.000000   0.000000   0.000000   0.000000   0.000000   0.000000
    11  H    0.000000   0.000000   0.000000   0.000000   0.000000   0.000000
    12  H    0.000000   0.000000   0.000000   0.000000   0.000000   0.000000
               7          8          9         10         11         12
     1  C    0.000000   0.000000   0.000000   0.000000   0.000000   0.000000
     2  C    0.000000   0.000000   0.000000   0.000000   0.000000   0.000000
     3  C    0.000000   0.000000   0.000000   0.000000   0.000000   0.000000
     4  C    0.000000   0.000000   0.000000   0.000000   0.000000   0.000000
     5  C    0.000000   0.000000   0.000000   0.000000   0.000000   0.000000
     6  C    0.000000   0.000000   0.000000   0.000000   0.000000   0.000000
     7  Cl  -0.007370   0.000000   0.000000   0.000000   0.000000   0.000000
     8  Cl   0.000000  -0.001907   0.000000   0.000000   0.000000   0.000000
     9  H    0.000000   0.000000   0.570104   0.000000   0.000000   0.000000
    10  Cl   0.000000   0.000000   0.000000  -0.001908   0.000000   0.000000
    11  H    0.000000   0.000000   0.000000   0.000000   0.570118   0.000000
    12  H    0.000000   0.000000   0.000000   0.000000   0.000000   0.748980
 Mulliken charges and spin densities:
               1          2
     1  C   -0.044765   0.370459
     2  C   -0.107693  -0.820640
     3  C   -0.232444   0.432273
     4  C   -0.107695  -0.820644
     5  C   -0.044769   0.370456
     6  C   -0.082717  -0.409921
     7  Cl  -0.081113  -0.007370
     8  Cl  -0.106444  -0.001907
     9  H    0.040636   0.570104
    10  Cl  -0.106435  -0.001908
    11  H    0.040633   0.570118
    12  H   -0.167195   0.748980
 Sum of Mulliken charges =  -1.00000   1.00000
 Mulliken charges and spin densities with hydrogens summed into heavy atoms:
               1          2
     1  C   -0.044765   0.370459
     2  C   -0.067060  -0.250522
     3  C   -0.399639   1.181253
     4  C   -0.067058  -0.250540
     5  C   -0.044769   0.370456
     6  C   -0.082717  -0.409921
     7  Cl  -0.081113  -0.007370
     8  Cl  -0.106444  -0.001907
    10  Cl  -0.106435  -0.001908
 Charge=             -1.0000 electrons
 Dipole moment (field-independent basis, Debye):
    X=             -6.4755    Y=              3.7385    Z=              0.0000  Tot=              7.4772
 N-N= 2.491146326635D+02 E-N=-3.570518784352D+02  KE=-1.136382819333D+02
 Symmetry A'   KE=-8.760539787184D+01
 Symmetry A"   KE=-2.603288406151D+01
 Symmetry A'   SP= 1.000000000000D+00
 Symmetry A"   SP=-1.609823385706D-15
 Calling FoFJK, ICntrl=      2127 FMM=F ISym2X=1 I1Cent= 0 IOpClX= 1 NMat=1 NMatS=1 NMatT=0.
 ***** Axes restored to original set *****
 -------------------------------------------------------------------
 Center     Atomic                   Forces (Hartrees/Bohr)
 Number     Number              X              Y              Z
 -------------------------------------------------------------------
      1        6          -0.004695069    0.031533358    0.000000000
      2        6           0.027929562    0.018115363    0.000000000
      3        6          -0.005983105   -0.003678344    0.000000000
      4        6           0.028775458    0.016733198    0.000000000
      5        6           0.026022195   -0.018428094    0.000000000
      6        6          -0.020365574   -0.012509275    0.000000000
      7       17           0.025127510    0.015443059    0.000000000
      8       17           0.023856621   -0.012432793    0.000000000
      9        1          -0.072663738    0.038800680   -0.000000000
     10       17          -0.000315941    0.026894083    0.000000000
     11        1           0.001794158   -0.082352476   -0.000000000
     12        1          -0.029482076   -0.018118758   -0.000000000
 -------------------------------------------------------------------
 Cartesian Forces:  Max     0.082352476 RMS     0.024695418

 GradGradGradGradGradGradGradGradGradGradGradGradGradGradGradGradGradGrad
 Berny optimization.
 FormGI is forming the generalized inverse of G from B-inverse, IUseBI=4.
 Internal  Forces:  Max     0.082372888 RMS     0.022414949
 Search for a local minimum.
 Step number   1 out of a maximum of   64
 All quantities printed in internal units (Hartrees-Bohrs-Radians)
 Mixed Optimization -- RFO/linear search
 Second derivative matrix not updated -- first step.
 ITU=  0
     Eigenvalues ---    0.02011   0.02011   0.02011   0.02011   0.02011
     Eigenvalues ---    0.02011   0.02011   0.02011   0.02011   0.06524
     Eigenvalues ---    0.06524   0.06524   0.16000   0.16000   0.16000
     Eigenvalues ---    0.22085   0.23477   0.24913   0.25000   0.25000
     Eigenvalues ---    0.25000   0.29033   0.29033   0.29034   0.40951
     Eigenvalues ---    0.40971   0.44656   0.44657   0.44657   0.44657
 RFO step:  Lambda=-1.09529826D-01 EMin= 2.01065826D-02
 Linear search not attempted -- first point.
 Maximum step size (   0.300) exceeded in Quadratic search.
    -- Step size scaled by   0.410
 Iteration  1 RMS(Cart)=  0.04981811 RMS(Int)=  0.00008955
 Iteration  2 RMS(Cart)=  0.00014876 RMS(Int)=  0.00001250
 Iteration  3 RMS(Cart)=  0.00000001 RMS(Int)=  0.00001250
 ClnCor:  largest displacement from symmetrization is 1.56D-10 for atom     7.
 Variable       Old X    -DE/DX   Delta X   Delta X   Delta X     New X
                                 (Linear)    (Quad)   (Total)
    R1        2.65676  -0.02912   0.00000  -0.02147  -0.02147   2.63530
    R2        2.65677  -0.00801   0.00000  -0.00459  -0.00461   2.65216
    R3        3.33635  -0.02690   0.00000  -0.02757  -0.02757   3.30878
    R4        2.65677  -0.05927   0.00000  -0.04500  -0.04498   2.61178
    R5        3.33634  -0.08237   0.00000  -0.19319  -0.19319   3.14315
    R6        2.65677  -0.05927   0.00000  -0.04500  -0.04498   2.61178
    R7        3.33633  -0.03460   0.00000  -0.08116  -0.08116   3.25517
    R8        2.65678  -0.02913   0.00000  -0.02147  -0.02147   2.63531
    R9        3.33633  -0.08237   0.00000  -0.19320  -0.19320   3.14314
   R10        2.65675  -0.00800   0.00000  -0.00458  -0.00460   2.65215
   R11        3.33632  -0.02689   0.00000  -0.02757  -0.02757   3.30876
   R12        3.33633  -0.02949   0.00000  -0.03023  -0.03023   3.30610
    A1        2.09439  -0.00868   0.00000  -0.00817  -0.00819   2.08620
    A2        2.09439   0.00363   0.00000   0.00328   0.00329   2.09769
    A3        2.09440   0.00504   0.00000   0.00489   0.00490   2.09930
    A4        2.09439   0.01584   0.00000   0.01705   0.01707   2.11146
    A5        2.09440  -0.00870   0.00000  -0.00971  -0.00972   2.08468
    A6        2.09439  -0.00714   0.00000  -0.00734  -0.00735   2.08705
    A7        2.09440  -0.00272   0.00000  -0.00831  -0.00827   2.08613
    A8        2.09440   0.00136   0.00000   0.00415   0.00413   2.09853
    A9        2.09439   0.00136   0.00000   0.00415   0.00413   2.09853
   A10        2.09439   0.01584   0.00000   0.01705   0.01707   2.11146
   A11        2.09440  -0.00714   0.00000  -0.00734  -0.00735   2.08705
   A12        2.09440  -0.00870   0.00000  -0.00971  -0.00972   2.08468
   A13        2.09439  -0.00868   0.00000  -0.00817  -0.00819   2.08620
   A14        2.09439   0.00363   0.00000   0.00328   0.00329   2.09768
   A15        2.09440   0.00504   0.00000   0.00489   0.00490   2.09930
   A16        2.09440  -0.01161   0.00000  -0.00944  -0.00948   2.08492
   A17        2.09439   0.00581   0.00000   0.00472   0.00474   2.09913
   A18        2.09439   0.00581   0.00000   0.00472   0.00474   2.09913
    D1        0.00000  -0.00000   0.00000   0.00000   0.00000   0.00000
    D2        3.14159  -0.00000   0.00000  -0.00000   0.00000   3.14159
    D3        3.14159   0.00000   0.00000   0.00000   0.00000   3.14159
    D4        0.00000  -0.00000   0.00000  -0.00000   0.00000   0.00000
    D5        0.00000   0.00000   0.00000  -0.00000   0.00000   0.00000
    D6        3.14159   0.00000   0.00000   0.00000   0.00000   3.14159
    D7        3.14159  -0.00000   0.00000  -0.00000   0.00000   3.14159
    D8        0.00000   0.00000   0.00000  -0.00000   0.00000   0.00000
    D9        0.00000  -0.00000   0.00000   0.00000   0.00000   0.00000
   D10        3.14159  -0.00000   0.00000  -0.00000   0.00000   3.14159
   D11        3.14159   0.00000   0.00000   0.00000   0.00000   3.14159
   D12        0.00000   0.00000   0.00000   0.00000   0.00000   0.00000
   D13        0.00000   0.00000   0.00000  -0.00000   0.00000   0.00000
   D14        3.14159  -0.00000   0.00000  -0.00000   0.00000   3.14159
   D15        3.14159   0.00000   0.00000   0.00000   0.00000   3.14159
   D16        0.00000  -0.00000   0.00000  -0.00000   0.00000   0.00000
   D17        0.00000  -0.00000   0.00000  -0.00000   0.00000   0.00000
   D18        3.14159  -0.00000   0.00000  -0.00000   0.00000   3.14159
   D19        3.14159   0.00000   0.00000   0.00000   0.00000   3.14159
   D20        0.00000   0.00000   0.00000   0.00000   0.00000   0.00000
   D21        0.00000   0.00000   0.00000   0.00000   0.00000   0.00000
   D22        3.14159  -0.00000   0.00000  -0.00000   0.00000   3.14159
   D23        3.14159   0.00000   0.00000   0.00000   0.00000   3.14159
   D24        0.00000  -0.00000   0.00000   0.00000   0.00000   0.00000
         Item               Value     Threshold  Converged?
 Maximum Force            0.082373     0.000450     NO 
 RMS     Force            0.022415     0.000300     NO 
 Maximum Displacement     0.228175     0.001800     NO 
 RMS     Displacement     0.049813     0.001200     NO 
 Predicted change in Energy=-4.062381D-02
 GradGradGradGradGradGradGradGradGradGradGradGradGradGradGradGradGradGrad

                          Input orientation:                          
 ---------------------------------------------------------------------
 Center     Atomic      Atomic             Coordinates (Angstroms)
 Number     Number       Type             X           Y           Z
 ---------------------------------------------------------------------
      1          6           0       -3.194507    0.202112    0.000000
      2          6           0       -1.997064    0.916860    0.000000
      3          6           0       -0.778897    0.263972    0.000000
      4          6           0       -0.746654   -1.117748    0.000000
      5          6           0       -1.925223   -1.863222    0.000000
      6          6           0       -3.162614   -1.200988    0.000000
      7         17           0       -4.653144   -2.117020    0.000000
      8         17           0       -4.726220    1.050409    0.000000
      9          1           0        0.718613   -1.904820    0.000000
     10         17           0       -1.860265   -3.612934    0.000000
     11          1           0       -2.037397    2.579655    0.000000
     12          1           0        0.688672    1.165894    0.000000
 ---------------------------------------------------------------------
                    Distance matrix (angstroms):
                    1          2          3          4          5
     1  C    0.000000
     2  C    1.394538   0.000000
     3  C    2.416402   1.382097   0.000000
     4  C    2.781010   2.388128   1.382097   0.000000
     5  C    2.424187   2.781010   2.416405   1.394545   0.000000
     6  C    1.403462   2.417393   2.797894   2.417394   1.403456
     7  Cl   2.739707   4.032269   4.547407   4.032271   2.739702
     8  Cl   1.750929   2.732422   4.024902   4.531871   4.041636
     9  H    4.444286   3.916220   2.635564   1.663277   2.644164
    10  Cl   4.041631   4.531860   4.024892   2.732413   1.750918
    11  H    2.644166   1.663284   2.635566   3.916224   4.444292
    12  H    4.000995   2.697257   1.722563   2.697255   4.000999
                    6          7          8          9         10
     6  C    0.000000
     7  Cl   1.749513   0.000000
     8  Cl   2.741104   3.168272   0.000000
     9  H    3.944529   5.375947   6.195126   0.000000
    10  Cl   2.741094   3.168270   5.473616   3.093261   0.000000
    11  H    3.944537   5.375954   3.093276   5.263659   6.195122
    12  H    4.520457   6.269970   5.416123   3.070860   5.416113
                   11         12
    11  H    0.000000
    12  H    3.070859   0.000000
 Stoichiometry    C6H3Cl3(1-,2)
 Framework group  CS[SG(C6H3Cl3)]
 Deg. of freedom    21
 Full point group                 CS      NOp   2
 Largest Abelian subgroup         CS      NOp   2
 Largest concise Abelian subgroup C1      NOp   1
                         Standard orientation:                         
 ---------------------------------------------------------------------
 Center     Atomic      Atomic             Coordinates (Angstroms)
 Number     Number       Type             X           Y           Z
 ---------------------------------------------------------------------
      1          6           0        1.212089   -0.419247   -0.000000
      2          6           0        1.194047   -1.813668   -0.000000
      3          6           0       -0.000023   -2.509649   -0.000000
      4          6           0       -1.194082   -1.813649   -0.000000
      5          6           0       -1.212098   -0.419221   -0.000000
      6          6           0        0.000000    0.288245    0.000000
      7         17           0        0.000017    2.037758    0.000000
      8         17           0        2.736814    0.441547    0.000000
      9          1           0       -2.631854   -2.649892   -0.000000
     10         17           0       -2.736802    0.441588   -0.000000
     11          1           0        2.631806   -2.649947   -0.000000
     12          1           0       -0.000039   -4.232212   -0.000000
 ---------------------------------------------------------------------
 Rotational constants (GHZ):           1.4441471           0.8321981           0.5279588
 Standard basis: VSTO-6G (5D, 7F)
 There are    30 symmetry adapted cartesian basis functions of A'  symmetry.
 There are     9 symmetry adapted cartesian basis functions of A"  symmetry.
 There are    30 symmetry adapted basis functions of A'  symmetry.
 There are     9 symmetry adapted basis functions of A"  symmetry.
    39 basis functions,   234 primitive gaussians,    39 cartesian basis functions
    25 alpha electrons       24 beta electrons
       nuclear repulsion energy       250.5594625093 Hartrees.
 Integral buffers will be    131072 words long.
 Regular integral format.
 Two-electron integral symmetry is turned off.
 Do NDO integrals.
 One-electron integrals computed using PRISM.
 NBasis=    39 RedAO= T EigKep=  1.00D+00  NBF=    30     9
 NBsUse=    39 1.00D-06 EigRej= -1.00D+00 NBFU=    30     9
 Initial guess from the checkpoint file:  "geometry_chks/124ClBzAnionRadical.chk"
 B after Tr=    -0.000000   -0.000000   -0.000000
         Rot=    0.866023   -0.000000   -0.000000    0.500004 Ang=  60.00 deg.
 Initial guess orbital symmetries:
 Alpha Orbitals:
       Occupied  (A') (A') (A') (A') (A') (A') (A') (A') (A') (A')
                 (A') (A") (A') (A") (A") (A') (A') (A') (A') (A")
                 (A') (A') (A") (A") (A')
       Virtual   (A') (A') (A") (A') (A") (A') (A') (A") (A') (A')
                 (A') (A') (A') (A')
 Beta  Orbitals:
       Occupied  (A') (A') (A') (A') (A') (A') (A') (A') (A') (A')
                 (A') (A") (A') (A") (A") (A') (A') (A') (A') (A")
                 (A') (A") (A") (A')
       Virtual   (A") (A') (A") (A') (A') (A') (A') (A") (A') (A')
                 (A') (A') (A') (A') (A')
 Initial guess <Sx>= 0.0000 <Sy>= 0.0000 <Sz>= 0.5000 <S**2>= 1.7134 S= 0.9012
 Keep J ints in memory in canonical form, NReq=863709.
 Overlap will be assumed to be unity.
 Requested convergence on RMS density matrix=1.00D-08 within  32 cycles.
 Requested convergence on MAX density matrix=1.00D-06.
 Requested convergence on             energy=1.00D-06.
 No special actions if energy rises.
 Fock symm off for IB=2 I1=    1 I=   31 J=   18 Cut=1.00D-07 Err=4.78D-03
 Fock matrix is not symmetric: symmetry in diagonalization turned off.
 SCF Done:  E(UAM1) =  0.283210245851     A.U. after   26 cycles
            NFock= 25  Conv=0.67D-08     -V/T= 1.0025
 <Sx>= 0.0000 <Sy>= 0.0000 <Sz>= 0.5000 <S**2>= 1.0446 S= 0.6378
 <L.S>=  0.00000000000    
 Annihilation of the first spin contaminant:
 S**2 before annihilation     1.0446,   after     0.8398
 QCSCF skips out because SCF is already converged.
 Calling FoFJK, ICntrl=      2127 FMM=F ISym2X=1 I1Cent= 0 IOpClX= 1 NMat=1 NMatS=1 NMatT=0.
 ***** Axes restored to original set *****
 -------------------------------------------------------------------
 Center     Atomic                   Forces (Hartrees/Bohr)
 Number     Number              X              Y              Z
 -------------------------------------------------------------------
      1        6          -0.010750173    0.022113275    0.000000000
      2        6           0.004865904    0.081366580    0.000000000
      3        6           0.022738350    0.013973262   -0.000000000
      4        6           0.074788471   -0.032414126    0.000000000
      5        6           0.014880365   -0.019575240   -0.000000000
      6        6          -0.019098736   -0.011733162   -0.000000000
      7       17           0.018352933    0.011279314   -0.000000000
      8       17           0.016590479   -0.009067905   -0.000000000
      9        1          -0.100662014    0.053401055   -0.000000000
     10       17          -0.000596291    0.018892834    0.000000000
     11        1           0.002173192   -0.113927217   -0.000000000
     12        1          -0.023282482   -0.014308670   -0.000000000
 -------------------------------------------------------------------
 Cartesian Forces:  Max     0.113927217 RMS     0.034803559

 GradGradGradGradGradGradGradGradGradGradGradGradGradGradGradGradGradGrad
 Berny optimization.
 Using GEDIIS/GDIIS optimizer.
 FormGI is forming the generalized inverse of G from B-inverse, IUseBI=4.
 Internal  Forces:  Max     0.113948083 RMS     0.023377951
 Search for a local minimum.
 Step number   2 out of a maximum of   64
 All quantities printed in internal units (Hartrees-Bohrs-Radians)
 Mixed Optimization -- RFO/linear search
 Update second derivatives using D2CorX and points    1    2
 DE= -4.84D-02 DEPred=-4.06D-02 R= 1.19D+00
 TightC=F SS=  1.41D+00  RLast= 3.00D-01 DXNew= 5.0454D-01 9.0000D-01
 Trust test= 1.19D+00 RLast= 3.00D-01 DXMaxT set to 5.05D-01
 ITU=  1  0
 Use linear search instead of GDIIS.
     Eigenvalues ---   -0.77464   0.01871   0.02011   0.02011   0.02011
     Eigenvalues ---    0.02011   0.02011   0.02011   0.02011   0.02011
     Eigenvalues ---    0.02011   0.06524   0.08785   0.15999   0.16000
     Eigenvalues ---    0.16000   0.22190   0.23454   0.24938   0.25000
     Eigenvalues ---    0.25000   0.25006   0.29032   0.29033   0.30186
     Eigenvalues ---    0.40887   0.42176   0.44642   0.44656   0.44657
 RFO step:  Lambda=-7.81018945D-01 EMin=-7.74635753D-01
 I=     1 Eig=   -7.75D-01 Dot1=  4.15D-02
 I=     1 Stepn=  6.00D-01 RXN=   6.00D-01 EDone=F
 Mixed    1 eigenvectors in step.  Raw Step.Grad=  4.15D-02.
 RFO eigenvector is Hessian eigenvector with negative curvature.
 Taking step of  6.00D-01 in eigenvector direction(s).  Step.Grad=  4.76D-04.
 Skip linear search -- no minimum in search direction.
 Maximum step size (   0.505) exceeded in Quadratic search.
    -- Step size not scaled.
 Iteration  1 RMS(Cart)=  0.07378929 RMS(Int)=  0.01948769
 Iteration  2 RMS(Cart)=  0.01735864 RMS(Int)=  0.00060993
 Iteration  3 RMS(Cart)=  0.00012969 RMS(Int)=  0.00060192
 Iteration  4 RMS(Cart)=  0.00000003 RMS(Int)=  0.00060192
 ClnCor:  largest displacement from symmetrization is 1.13D-08 for atom     9.
 Variable       Old X    -DE/DX   Delta X   Delta X   Delta X     New X
                                 (Linear)    (Quad)   (Total)
    R1        2.63530  -0.01125   0.00000   0.12120   0.12116   2.75646
    R2        2.65216  -0.00053   0.00000   0.04653   0.04563   2.69778
    R3        3.30878  -0.01891   0.00000   0.06589   0.06589   3.37466
    R4        2.61178  -0.01960   0.00000   0.27037   0.27125   2.88304
    R5        3.14315  -0.11395   0.00000  -0.27356  -0.27356   2.86959
    R6        2.61178  -0.01960   0.00000   0.27037   0.27125   2.88304
    R7        3.25517  -0.02733   0.00000   0.07352   0.07352   3.32869
    R8        2.63531  -0.01126   0.00000   0.12121   0.12117   2.75647
    R9        3.14314  -0.11395   0.00000  -0.27356  -0.27356   2.86958
   R10        2.65215  -0.00053   0.00000   0.04651   0.04561   2.69775
   R11        3.30876  -0.01890   0.00000   0.06587   0.06587   3.37463
   R12        3.30610  -0.02154   0.00000   0.06637   0.06637   3.37247
    A1        2.08620  -0.00415   0.00000   0.03363   0.03266   2.11887
    A2        2.09769   0.00190   0.00000  -0.01261  -0.01213   2.08556
    A3        2.09930   0.00225   0.00000  -0.02102  -0.02054   2.07876
    A4        2.11146   0.01129   0.00000  -0.03584  -0.03492   2.07654
    A5        2.08468  -0.00657   0.00000   0.01693   0.01647   2.10114
    A6        2.08705  -0.00472   0.00000   0.01892   0.01845   2.10550
    A7        2.08613  -0.00858   0.00000  -0.03691  -0.03495   2.05118
    A8        2.09853   0.00429   0.00000   0.01845   0.01748   2.11601
    A9        2.09853   0.00429   0.00000   0.01845   0.01748   2.11600
   A10        2.11146   0.01129   0.00000  -0.03585  -0.03492   2.07654
   A11        2.08705  -0.00472   0.00000   0.01892   0.01845   2.10551
   A12        2.08468  -0.00657   0.00000   0.01693   0.01647   2.10114
   A13        2.08620  -0.00415   0.00000   0.03363   0.03267   2.11887
   A14        2.09768   0.00190   0.00000  -0.01261  -0.01213   2.08555
   A15        2.09930   0.00225   0.00000  -0.02102  -0.02054   2.07876
   A16        2.08492  -0.00570   0.00000   0.04133   0.03946   2.12438
   A17        2.09913   0.00285   0.00000  -0.02066  -0.01973   2.07941
   A18        2.09913   0.00285   0.00000  -0.02067  -0.01973   2.07940
    D1        0.00000  -0.00000   0.00000  -0.00000  -0.00000   0.00000
    D2        3.14159  -0.00000   0.00000  -0.00000   0.00000   3.14159
    D3        3.14159   0.00000   0.00000   0.00000   0.00000   3.14159
    D4       -0.00000  -0.00000   0.00000   0.00000   0.00000   0.00000
    D5       -0.00000   0.00000   0.00000   0.00000   0.00000   0.00000
    D6        3.14159   0.00000   0.00000   0.00000   0.00000   3.14159
    D7        3.14159  -0.00000   0.00000  -0.00000   0.00000   3.14159
    D8        0.00000  -0.00000   0.00000  -0.00000  -0.00000   0.00000
    D9       -0.00000   0.00000   0.00000  -0.00000   0.00000   0.00000
   D10        3.14159  -0.00000   0.00000  -0.00000   0.00000   3.14159
   D11        3.14159   0.00000   0.00000   0.00000   0.00000   3.14159
   D12        0.00000   0.00000   0.00000   0.00000  -0.00000   0.00000
   D13        0.00000   0.00000   0.00000   0.00000  -0.00000   0.00000
   D14        3.14159  -0.00000   0.00000  -0.00000   0.00000   3.14159
   D15        3.14159   0.00000   0.00000   0.00000   0.00000   3.14159
   D16        0.00000  -0.00000   0.00000   0.00000  -0.00000   0.00000
   D17        0.00000  -0.00000   0.00000  -0.00000   0.00000   0.00000
   D18        3.14159  -0.00000   0.00000  -0.00000   0.00000   3.14159
   D19        3.14159   0.00000   0.00000   0.00000   0.00000   3.14159
   D20        0.00000   0.00000   0.00000   0.00000  -0.00000   0.00000
   D21        0.00000  -0.00000   0.00000  -0.00000  -0.00000   0.00000
   D22        3.14159  -0.00000   0.00000  -0.00000   0.00000   3.14159
   D23        3.14159   0.00000   0.00000   0.00000   0.00000   3.14159
   D24       -0.00000  -0.00000   0.00000  -0.00000   0.00000   0.00000
         Item               Value     Threshold  Converged?
 Maximum Force            0.113948     0.000450     NO 
 RMS     Force            0.023378     0.000300     NO 
 Maximum Displacement     0.290867     0.001800     NO 
 RMS     Displacement     0.087987     0.001200     NO 
 Predicted change in Energy=-1.808671D-01
 GradGradGradGradGradGradGradGradGradGradGradGradGradGradGradGradGradGrad

                          Input orientation:                          
 ---------------------------------------------------------------------
 Center     Atomic      Atomic             Coordinates (Angstroms)
 Number     Number       Type             X           Y           Z
 ---------------------------------------------------------------------
      1          6           0       -3.226820    0.223108   -0.000000
      2          6           0       -2.015193    1.035284   -0.000000
      3          6           0       -0.658123    0.338197   -0.000000
      4          6           0       -0.649189   -1.187415   -0.000000
      5          6           0       -1.921091   -1.901533   -0.000000
      6          6           0       -3.166226   -1.203212    0.000000
      7         17           0       -4.686676   -2.137640    0.000000
      8         17           0       -4.822594    1.024709    0.000000
      9          1           0        0.661876   -1.953572   -0.000000
     10         17           0       -1.926737   -3.687300    0.000000
     11          1           0       -2.106521    2.551055   -0.000000
     12          1           0        0.842592    1.260489   -0.000000
 ---------------------------------------------------------------------
                    Distance matrix (angstroms):
                    1          2          3          4          5
     1  C    0.000000
     2  C    1.458654   0.000000
     3  C    2.571274   1.525637   0.000000
     4  C    2.938325   2.608899   1.525638   0.000000
     5  C    2.493797   2.938324   2.571279   1.458663   0.000000
     6  C    1.427606   2.517090   2.943895   2.517086   1.427590
     7  Cl   2.775663   4.147803   4.728531   4.147798   2.775645
     8  Cl   1.785793   2.807421   4.220677   4.723431   4.120875
     9  H    4.456444   4.012476   2.644731   1.518516   2.583491
    10  Cl   4.120862   4.723413   4.220665   2.807411   1.785777
    11  H    2.583488   1.518519   2.644730   4.012477   4.456447
    12  H    4.199556   2.866644   1.761468   2.866643   4.199562
                    6          7          8          9         10
     6  C    0.000000
     7  Cl   1.784635   0.000000
     8  Cl   2.776182   3.165268   0.000000
     9  H    3.900949   5.351718   6.240959   0.000000
    10  Cl   2.776154   3.165235   5.530734   3.115562   0.000000
    11  H    3.900960   5.351734   3.115571   5.287314   6.240945
    12  H    4.705363   6.489998   5.670090   3.219138   5.670080
                   11         12
    11  H    0.000000
    12  H    3.219134   0.000000
 Stoichiometry    C6H3Cl3(1-,2)
 Framework group  CS[SG(C6H3Cl3)]
 Deg. of freedom    21
 Full point group                 CS      NOp   2
 Largest Abelian subgroup         CS      NOp   2
 Largest concise Abelian subgroup C1      NOp   1
                         Standard orientation:                         
 ---------------------------------------------------------------------
 Center     Atomic      Atomic             Coordinates (Angstroms)
 Number     Number       Type             X           Y           Z
 ---------------------------------------------------------------------
      1          6           0        1.246889   -0.432732    0.000000
      2          6           0        1.304403   -1.890251    0.000000
      3          6           0       -0.000065   -2.681410    0.000000
      4          6           0       -1.304496   -1.890191   -0.000000
      5          6           0       -1.246908   -0.432664   -0.000000
      6          6           0        0.000000    0.262485   -0.000000
      7         17           0        0.000037    2.047120   -0.000000
      8         17           0        2.765387    0.507068    0.000000
      9          1           0       -2.643720   -2.605990   -0.000000
     10         17           0       -2.765347    0.507198   -0.000000
     11          1           0        2.643593   -2.606122    0.000000
     12          1           0       -0.000107   -4.442878    0.000000
 ---------------------------------------------------------------------
 Rotational constants (GHZ):           1.3491548           0.8059359           0.5045413
 Standard basis: VSTO-6G (5D, 7F)
 There are    30 symmetry adapted cartesian basis functions of A'  symmetry.
 There are     9 symmetry adapted cartesian basis functions of A"  symmetry.
 There are    30 symmetry adapted basis functions of A'  symmetry.
 There are     9 symmetry adapted basis functions of A"  symmetry.
    39 basis functions,   234 primitive gaussians,    39 cartesian basis functions
    25 alpha electrons       24 beta electrons
       nuclear repulsion energy       246.2741054849 Hartrees.
 Integral buffers will be    131072 words long.
 Regular integral format.
 Two-electron integral symmetry is turned off.
 Do NDO integrals.
 One-electron integrals computed using PRISM.
 NBasis=    39 RedAO= T EigKep=  1.00D+00  NBF=    30     9
 NBsUse=    39 1.00D-06 EigRej= -1.00D+00 NBFU=    30     9
 Initial guess from the checkpoint file:  "geometry_chks/124ClBzAnionRadical.chk"
 B after Tr=    -0.000000   -0.000000   -0.000000
         Rot=    1.000000    0.000000    0.000000    0.000007 Ang=   0.00 deg.
 Initial guess orbital symmetries:
 Alpha Orbitals:
       Occupied  (A') (A') (A') (A') (A') (A') (A') (A') (A') (A')
                 (A') (A") (A') (A") (A") (A') (A') (A') (A') (A")
                 (A') (A') (A") (A") (A')
       Virtual   (A') (A") (A') (A") (A') (A') (A') (A") (A') (A')
                 (A') (A') (A') (A')
 Beta  Orbitals:
       Occupied  (A') (A') (A') (A') (A') (A') (A') (A') (A') (A')
                 (A') (A") (A') (A") (A") (A') (A') (A') (A') (A")
                 (A') (A") (A") (A')
       Virtual   (A") (A') (A") (A') (A') (A') (A') (A") (A') (A')
                 (A') (A') (A') (A') (A')
 Initial guess <Sx>= 0.0000 <Sy>= 0.0000 <Sz>= 0.5000 <S**2>= 1.0446 S= 0.6378
 Keep J ints in memory in canonical form, NReq=863709.
 Overlap will be assumed to be unity.
 Requested convergence on RMS density matrix=1.00D-08 within  32 cycles.
 Requested convergence on MAX density matrix=1.00D-06.
 Requested convergence on             energy=1.00D-06.
 No special actions if energy rises.
 Fock symm off for IB=2 I1=    1 I=   31 J=   25 Cut=1.00D-07 Err=1.97D-02
 Fock matrix is not symmetric: symmetry in diagonalization turned off.
 SCF Done:  E(UAM1) =  0.281477552651     A.U. after   25 cycles
            NFock= 24  Conv=0.93D-08     -V/T= 1.0025
 <Sx>= 0.0000 <Sy>= 0.0000 <Sz>= 0.5000 <S**2>= 1.2755 S= 0.7351
 <L.S>=  0.00000000000    
 Annihilation of the first spin contaminant:
 S**2 before annihilation     1.2755,   after     0.9932
 QCSCF skips out because SCF is already converged.
 Calling FoFJK, ICntrl=      2127 FMM=F ISym2X=1 I1Cent= 0 IOpClX= 1 NMat=1 NMatS=1 NMatT=0.
 ***** Axes restored to original set *****
 -------------------------------------------------------------------
 Center     Atomic                   Forces (Hartrees/Bohr)
 Number     Number              X              Y              Z
 -------------------------------------------------------------------
      1        6           0.037868664    0.027097994    0.000000000
      2        6           0.024447854   -0.001142833    0.000000000
      3        6          -0.057290085   -0.035211154   -0.000000000
      4        6           0.010020565    0.022329043    0.000000000
      5        6           0.041293697    0.021546355    0.000000000
      6        6          -0.000097638   -0.000048503    0.000000000
      7       17           0.032127188    0.019745933   -0.000000000
      8       17           0.033047978   -0.014872996   -0.000000000
      9        1          -0.107837608    0.063190351   -0.000000000
     10       17           0.001659516    0.036195514   -0.000000000
     11        1           0.007665689   -0.124752507   -0.000000000
     12        1          -0.022905820   -0.014077197   -0.000000000
 -------------------------------------------------------------------
 Cartesian Forces:  Max     0.124752507 RMS     0.035774297

 GradGradGradGradGradGradGradGradGradGradGradGradGradGradGradGradGradGrad
 Berny optimization.
 Using GEDIIS/GDIIS optimizer.
 FormGI is forming the generalized inverse of G from B-inverse, IUseBI=4.
 Internal  Forces:  Max     0.124987791 RMS     0.039485981
 Search for a local minimum.
 Step number   3 out of a maximum of   64
 All quantities printed in internal units (Hartrees-Bohrs-Radians)
 Mixed Optimization -- RFO/linear search
 Update second derivatives using D2CorX and points    2    3
 ITU=  0  1  0
 Use linear search instead of GDIIS.
     Eigenvalues ---    0.01151   0.02011   0.02011   0.02011   0.02011
     Eigenvalues ---    0.02011   0.02011   0.02011   0.02011   0.02011
     Eigenvalues ---    0.06524   0.06708   0.15991   0.16000   0.16000
     Eigenvalues ---    0.21846   0.23547   0.24373   0.25000   0.25000
     Eigenvalues ---    0.25006   0.26645   0.29033   0.29037   0.34461
     Eigenvalues ---    0.41228   0.44389   0.44656   0.44657   0.63813
 RFO step:  Lambda=-1.68689711D-01 EMin= 1.15106760D-02
 Quartic linear search produced a step of -0.49582.
 Maximum step size (   0.505) exceeded in Quadratic search.
    -- Step size scaled by   0.569
 Iteration  1 RMS(Cart)=  0.09553647 RMS(Int)=  0.00078983
 Iteration  2 RMS(Cart)=  0.00113657 RMS(Int)=  0.00010037
 Iteration  3 RMS(Cart)=  0.00000040 RMS(Int)=  0.00010037
 ClnCor:  largest displacement from symmetrization is 3.08D-10 for atom     9.
 Variable       Old X    -DE/DX   Delta X   Delta X   Delta X     New X
                                 (Linear)    (Quad)   (Total)
    R1        2.75646  -0.08626  -0.06007  -0.02150  -0.08158   2.67488
    R2        2.69778  -0.04803  -0.02262   0.00158  -0.02089   2.67690
    R3        3.37466  -0.03621  -0.03267  -0.05036  -0.08303   3.29164
    R4        2.88304  -0.11528  -0.13449  -0.04186  -0.17650   2.70654
    R5        2.86959  -0.12499   0.13564  -0.33393  -0.19829   2.67130
    R6        2.88304  -0.11528  -0.13449  -0.04186  -0.17650   2.70653
    R7        3.32869  -0.02689  -0.03645  -0.11945  -0.15590   3.17279
    R8        2.75647  -0.08626  -0.06008  -0.02151  -0.08159   2.67489
    R9        2.86958  -0.12499   0.13564  -0.33393  -0.19830   2.67128
   R10        2.69775  -0.04802  -0.02261   0.00159  -0.02087   2.67689
   R11        3.37463  -0.03620  -0.03266  -0.05034  -0.08301   3.29162
   R12        3.37247  -0.03771  -0.03291  -0.05673  -0.08964   3.28284
    A1        2.11887  -0.00756  -0.01619  -0.01127  -0.02730   2.09156
    A2        2.08556   0.00118   0.00601   0.00480   0.01074   2.09629
    A3        2.07876   0.00639   0.01018   0.00647   0.01657   2.09533
    A4        2.07654   0.02077   0.01731   0.03078   0.04794   2.12448
    A5        2.10114  -0.01017  -0.00816  -0.01809  -0.02618   2.07497
    A6        2.10550  -0.01060  -0.00915  -0.01269  -0.02176   2.08374
    A7        2.05118  -0.00768   0.01733  -0.02663  -0.00963   2.04155
    A8        2.11601   0.00384  -0.00866   0.01332   0.00481   2.12082
    A9        2.11600   0.00384  -0.00866   0.01332   0.00481   2.12082
   A10        2.07654   0.02077   0.01731   0.03078   0.04794   2.12448
   A11        2.10551  -0.01060  -0.00915  -0.01269  -0.02176   2.08374
   A12        2.10114  -0.01017  -0.00816  -0.01809  -0.02618   2.07496
   A13        2.11887  -0.00757  -0.01620  -0.01127  -0.02730   2.09156
   A14        2.08555   0.00118   0.00601   0.00480   0.01073   2.09629
   A15        2.07876   0.00639   0.01018   0.00646   0.01657   2.09533
   A16        2.12438  -0.01874  -0.01956  -0.01239  -0.03164   2.09274
   A17        2.07941   0.00937   0.00978   0.00620   0.01582   2.09522
   A18        2.07940   0.00937   0.00978   0.00620   0.01582   2.09522
    D1       -0.00000  -0.00000   0.00000  -0.00000   0.00000   0.00000
    D2        3.14159  -0.00000   0.00000  -0.00000   0.00000   3.14159
    D3        3.14159   0.00000   0.00000   0.00000   0.00000   3.14159
    D4        0.00000   0.00000   0.00000  -0.00000  -0.00000   0.00000
    D5        0.00000   0.00000   0.00000   0.00000  -0.00000   0.00000
    D6        3.14159   0.00000   0.00000   0.00000   0.00000   3.14159
    D7        3.14159  -0.00000   0.00000  -0.00000   0.00000   3.14159
    D8       -0.00000  -0.00000   0.00000  -0.00000   0.00000   0.00000
    D9        0.00000  -0.00000   0.00000  -0.00000   0.00000   0.00000
   D10        3.14159  -0.00000   0.00000  -0.00000   0.00000   3.14159
   D11        3.14159   0.00000   0.00000   0.00000   0.00000   3.14159
   D12       -0.00000   0.00000   0.00000   0.00000   0.00000   0.00000
   D13       -0.00000   0.00000   0.00000   0.00000   0.00000   0.00000
   D14        3.14159  -0.00000   0.00000  -0.00000   0.00000   3.14159
   D15        3.14159   0.00000   0.00000   0.00000   0.00000   3.14159
   D16        0.00000   0.00000   0.00000  -0.00000  -0.00000   0.00000
   D17        0.00000   0.00000   0.00000  -0.00000  -0.00000   0.00000
   D18        3.14159  -0.00000   0.00000  -0.00000   0.00000   3.14159
   D19        3.14159   0.00000   0.00000   0.00000   0.00000   3.14159
   D20       -0.00000  -0.00000   0.00000   0.00000   0.00000   0.00000
   D21       -0.00000  -0.00000   0.00000  -0.00000   0.00000   0.00000
   D22        3.14159  -0.00000   0.00000  -0.00000   0.00000   3.14159
   D23        3.14159   0.00000   0.00000   0.00000   0.00000   3.14159
   D24        0.00000  -0.00000   0.00000  -0.00000  -0.00000   0.00000
         Item               Value     Threshold  Converged?
 Maximum Force            0.124988     0.000450     NO 
 RMS     Force            0.039486     0.000300     NO 
 Maximum Displacement     0.345619     0.001800     NO 
 RMS     Displacement     0.095750     0.001200     NO 
 Predicted change in Energy=-9.864382D-02
 GradGradGradGradGradGradGradGradGradGradGradGradGradGradGradGradGradGrad

                          Input orientation:                          
 ---------------------------------------------------------------------
 Center     Atomic      Atomic             Coordinates (Angstroms)
 Number     Number       Type             X           Y           Z
 ---------------------------------------------------------------------
      1          6           0       -3.193653    0.219173   -0.000000
      2          6           0       -1.985000    0.955892   -0.000000
      3          6           0       -0.707876    0.307620   -0.000000
      4          6           0       -0.706383   -1.124616   -0.000000
      5          6           0       -1.909614   -1.870164   -0.000000
      6          6           0       -3.155926   -1.196878    0.000000
      7         17           0       -4.635966   -2.106466    0.000000
      8         17           0       -4.724030    1.051048    0.000000
      9          1           0        0.525994   -1.817044   -0.000000
     10         17           0       -1.858707   -3.611272    0.000000
     11          1           0       -2.046092    2.368161   -0.000000
     12          1           0        0.722554    1.186716   -0.000000
 ---------------------------------------------------------------------
                    Distance matrix (angstroms):
                    1          2          3          4          5
     1  C    0.000000
     2  C    1.415484   0.000000
     3  C    2.487350   1.432237   0.000000
     4  C    2.827062   2.442002   1.432236   0.000000
     5  C    2.452363   2.827061   2.487352   1.415489   0.000000
     6  C    1.416554   2.450610   2.873407   2.450609   1.416548
     7  Cl   2.736579   4.050390   4.610608   4.050390   2.736573
     8  Cl   1.741858   2.740683   4.084383   4.568917   4.056404
     9  H    4.240514   3.740891   2.456956   1.413581   2.436188
    10  Cl   4.056401   4.568910   4.084376   2.740677   1.741852
    11  H    2.436195   1.413590   2.456961   3.740898   4.240522
    12  H    4.033958   2.717375   1.678970   2.717373   4.033960
                    6          7          8          9         10
     6  C    0.000000
     7  Cl   1.737202   0.000000
     8  Cl   2.740825   3.158742   0.000000
     9  H    3.733784   5.170068   5.982367   0.000000
    10  Cl   2.740816   3.158735   5.472413   2.984302   0.000000
    11  H    3.733797   5.170081   2.984315   4.912390   5.982369
    12  H    4.552376   6.289578   5.448274   3.010184   5.448266
                   11         12
    11  H    0.000000
    12  H    3.010185   0.000000
 Stoichiometry    C6H3Cl3(1-,2)
 Framework group  CS[SG(C6H3Cl3)]
 Deg. of freedom    21
 Full point group                 CS      NOp   2
 Largest Abelian subgroup         CS      NOp   2
 Largest concise Abelian subgroup C1      NOp   1
                         Standard orientation:                         
 ---------------------------------------------------------------------
 Center     Atomic      Atomic             Coordinates (Angstroms)
 Number     Number       Type             X           Y           Z
 ---------------------------------------------------------------------
      1          6           0        1.226182   -0.414979    0.000000
      2          6           0        1.221000   -1.830454    0.000000
      3          6           0       -0.000002   -2.579092   -0.000000
      4          6           0       -1.221003   -1.830454   -0.000000
      5          6           0       -1.226181   -0.414974   -0.000000
      6          6           0       -0.000002    0.294315    0.000000
      7         17           0       -0.000002    2.031517    0.000000
      8         17           0        2.736209    0.453289    0.000000
      9          1           0       -2.456194   -2.517849   -0.000000
     10         17           0       -2.736204    0.453288   -0.000000
     11          1           0        2.456196   -2.517860    0.000000
     12          1           0       -0.000004   -4.258062   -0.000000
 ---------------------------------------------------------------------
 Rotational constants (GHZ):           1.4262662           0.8317129           0.5253565
 Standard basis: VSTO-6G (5D, 7F)
 There are    30 symmetry adapted cartesian basis functions of A'  symmetry.
 There are     9 symmetry adapted cartesian basis functions of A"  symmetry.
 There are    30 symmetry adapted basis functions of A'  symmetry.
 There are     9 symmetry adapted basis functions of A"  symmetry.
    39 basis functions,   234 primitive gaussians,    39 cartesian basis functions
    25 alpha electrons       24 beta electrons
       nuclear repulsion energy       250.3657868905 Hartrees.
 Integral buffers will be    131072 words long.
 Regular integral format.
 Two-electron integral symmetry is turned off.
 Do NDO integrals.
 One-electron integrals computed using PRISM.
 NBasis=    39 RedAO= T EigKep=  1.00D+00  NBF=    30     9
 NBsUse=    39 1.00D-06 EigRej= -1.00D+00 NBFU=    30     9
 Initial guess from the checkpoint file:  "geometry_chks/124ClBzAnionRadical.chk"
 B after Tr=    -0.000000    0.000000    0.000000
         Rot=    1.000000   -0.000000   -0.000000   -0.000012 Ang=  -0.00 deg.
 Initial guess orbital symmetries:
 Alpha Orbitals:
       Occupied  (A') (A') (A') (A') (A') (A') (A') (A') (A') (A')
                 (A') (A") (A') (A") (A") (A') (A') (A') (A') (A")
                 (A') (A') (A") (A") (A')
       Virtual   (A') (A") (A") (A') (A') (A') (A') (A") (A') (A')
                 (A') (A') (A') (A')
 Beta  Orbitals:
       Occupied  (A') (A') (A') (A') (A') (A') (A') (A') (A') (A')
                 (A') (A") (A') (A") (A") (A') (A') (A') (A') (A")
                 (A') (A") (A") (A')
       Virtual   (A') (A") (A') (A") (A') (A') (A') (A") (A') (A')
                 (A') (A') (A') (A') (A')
 Initial guess <Sx>= 0.0000 <Sy>= 0.0000 <Sz>= 0.5000 <S**2>= 1.2755 S= 0.7351
 Keep J ints in memory in canonical form, NReq=863709.
 Overlap will be assumed to be unity.
 Requested convergence on RMS density matrix=1.00D-08 within  32 cycles.
 Requested convergence on MAX density matrix=1.00D-06.
 Requested convergence on             energy=1.00D-06.
 No special actions if energy rises.
 Fock symm off for IB=2 I1=    1 I=   31 J=   25 Cut=1.00D-07 Err=5.96D-03
 Fock matrix is not symmetric: symmetry in diagonalization turned off.
 SCF Done:  E(UAM1) =  0.176281375097     A.U. after   20 cycles
            NFock= 19  Conv=0.74D-08     -V/T= 1.0015
 <Sx>= 0.0000 <Sy>= 0.0000 <Sz>= 0.5000 <S**2>= 0.9583 S= 0.5992
 <L.S>=  0.00000000000    
 Annihilation of the first spin contaminant:
 S**2 before annihilation     0.9583,   after     0.7824
 QCSCF skips out because SCF is already converged.
 Calling FoFJK, ICntrl=      2127 FMM=F ISym2X=1 I1Cent= 0 IOpClX= 1 NMat=1 NMatS=1 NMatT=0.
 ***** Axes restored to original set *****
 -------------------------------------------------------------------
 Center     Atomic                   Forces (Hartrees/Bohr)
 Number     Number              X              Y              Z
 -------------------------------------------------------------------
      1        6           0.019441710    0.009149565    0.000000000
      2        6           0.011117277    0.058622113    0.000000000
      3        6          -0.017494999   -0.010752622    0.000000000
      4        6           0.057320004   -0.016561044    0.000000000
      5        6           0.016950249    0.013214024    0.000000000
      6        6          -0.000597492   -0.000362708   -0.000000000
      7       17           0.013677992    0.008406480   -0.000000000
      8       17           0.014301475   -0.007056741   -0.000000000
      9        1          -0.098257893    0.055553932   -0.000000000
     10       17           0.000164254    0.015943551    0.000000000
     11        1           0.005179819   -0.112757504   -0.000000000
     12        1          -0.021802398   -0.013399047   -0.000000000
 -------------------------------------------------------------------
 Cartesian Forces:  Max     0.112757504 RMS     0.031344379

 GradGradGradGradGradGradGradGradGradGradGradGradGradGradGradGradGradGrad
 Berny optimization.
 Using GEDIIS/GDIIS optimizer.
 FormGI is forming the generalized inverse of G from B-inverse, IUseBI=4.
 Internal  Forces:  Max     0.112876012 RMS     0.026157942
 Search for a local minimum.
 Step number   4 out of a maximum of   64
 All quantities printed in internal units (Hartrees-Bohrs-Radians)
 Mixed Optimization -- RFO/linear search
 Update second derivatives using D2CorX and points    3    4
 DE= -1.05D-01 DEPred=-9.86D-02 R= 1.07D+00
 TightC=F SS=  1.41D+00  RLast= 4.61D-01 DXNew= 8.4853D-01 1.3816D+00
 Trust test= 1.07D+00 RLast= 4.61D-01 DXMaxT set to 8.49D-01
 ITU=  1  0  1  0
 Use linear search instead of GDIIS.
     Eigenvalues ---    0.01207   0.02011   0.02011   0.02011   0.02011
     Eigenvalues ---    0.02011   0.02011   0.02011   0.02011   0.02011
     Eigenvalues ---    0.06524   0.06818   0.16000   0.16000   0.16000
     Eigenvalues ---    0.22172   0.23471   0.24710   0.25000   0.25000
     Eigenvalues ---    0.25004   0.27346   0.29033   0.29034   0.31174
     Eigenvalues ---    0.40954   0.44104   0.44656   0.44657   0.53044
 RFO step:  Lambda=-9.96487667D-02 EMin= 1.20746466D-02
 Quartic linear search produced a step of  1.02636.
 Maximum step size (   0.849) exceeded in Quadratic search.
    -- Step size scaled by   0.953
 Iteration  1 RMS(Cart)=  0.05631045 RMS(Int)=  0.11058485
 Iteration  2 RMS(Cart)=  0.03768733 RMS(Int)=  0.07208053
 Iteration  3 RMS(Cart)=  0.03773207 RMS(Int)=  0.03359088
 Iteration  4 RMS(Cart)=  0.03292962 RMS(Int)=  0.00021400
 Iteration  5 RMS(Cart)=  0.00000010 RMS(Int)=  0.00021400
 ClnCor:  largest displacement from symmetrization is 1.69D-08 for atom     7.
 Variable       Old X    -DE/DX   Delta X   Delta X   Delta X     New X
                                 (Linear)    (Quad)   (Total)
    R1        2.67488  -0.03750  -0.08373   0.06343  -0.02029   2.65459
    R2        2.67690  -0.02245  -0.02144   0.01704  -0.00472   2.67218
    R3        3.29164  -0.01594  -0.08521   0.03091  -0.05431   3.23733
    R4        2.70654  -0.05387  -0.18115   0.15604  -0.02480   2.68174
    R5        2.67130  -0.11288  -0.20351  -0.57101  -0.77453   1.89677
    R6        2.70653  -0.05387  -0.18115   0.15604  -0.02480   2.68174
    R7        3.17279  -0.02559  -0.16001  -0.05308  -0.21309   2.95970
    R8        2.67489  -0.03750  -0.08374   0.06343  -0.02030   2.65458
    R9        2.67128  -0.11287  -0.20352  -0.57100  -0.77452   1.89676
   R10        2.67689  -0.02245  -0.02142   0.01703  -0.00471   2.67218
   R11        3.29162  -0.01593  -0.08519   0.03090  -0.05429   3.23733
   R12        3.28284  -0.01605  -0.09200   0.03296  -0.05904   3.22380
    A1        2.09156  -0.00251  -0.02802   0.02642  -0.00194   2.08963
    A2        2.09629   0.00022   0.01102  -0.01122  -0.00003   2.09626
    A3        2.09533   0.00229   0.01700  -0.01520   0.00197   2.09730
    A4        2.12448   0.00870   0.04920  -0.02110   0.02843   2.15291
    A5        2.07497  -0.00395  -0.02687   0.01267  -0.01436   2.06061
    A6        2.08374  -0.00475  -0.02233   0.00843  -0.01407   2.06967
    A7        2.04155  -0.00181  -0.00988  -0.02549  -0.03468   2.00687
    A8        2.12082   0.00091   0.00494   0.01274   0.01734   2.13816
    A9        2.12082   0.00091   0.00494   0.01274   0.01734   2.13816
   A10        2.12448   0.00870   0.04920  -0.02110   0.02843   2.15290
   A11        2.08374  -0.00475  -0.02234   0.00843  -0.01407   2.06967
   A12        2.07496  -0.00395  -0.02687   0.01268  -0.01436   2.06061
   A13        2.09156  -0.00251  -0.02802   0.02643  -0.00193   2.08963
   A14        2.09629   0.00022   0.01102  -0.01121  -0.00003   2.09626
   A15        2.09533   0.00229   0.01701  -0.01521   0.00196   2.09730
   A16        2.09274  -0.01055  -0.03248   0.01484  -0.01831   2.07443
   A17        2.09522   0.00528   0.01624  -0.00742   0.00915   2.10438
   A18        2.09522   0.00528   0.01624  -0.00742   0.00915   2.10438
    D1       -0.00000   0.00000   0.00000   0.00000   0.00000   0.00000
    D2        3.14159  -0.00000   0.00000   0.00000   0.00000   3.14159
[...]
    D1       -0.00000  -0.00000   0.00000  -0.00000   0.00000   0.00000
    D2        3.14159  -0.00000   0.00000  -0.00000   0.00000   3.14159
    D3        3.14159   0.00000   0.00000   0.00000   0.00000   3.14159
    D4        0.00000  -0.00000   0.00000   0.00000  -0.00000   0.00000
    D5        0.00000   0.00000   0.00000   0.00000  -0.00000   0.00000
    D6        3.14159   0.00000   0.00000   0.00000   0.00000   3.14159
    D7        3.14159  -0.00000   0.00000  -0.00000   0.00000   3.14159
    D8        0.00000   0.00000   0.00000   0.00000  -0.00000   0.00000
    D9        0.00000  -0.00000   0.00000  -0.00000   0.00000   0.00000
   D10        3.14159  -0.00000   0.00000  -0.00000   0.00000   3.14159
   D11        3.14159   0.00000   0.00000   0.00000   0.00000   3.14159
   D12       -0.00000   0.00000   0.00000   0.00000   0.00000   0.00000
   D13       -0.00000   0.00000   0.00000   0.00000   0.00000   0.00000
   D14        3.14159  -0.00000   0.00000  -0.00000   0.00000   3.14159
   D15        3.14159   0.00000   0.00000   0.00000   0.00000   3.14159
   D16        0.00000  -0.00000   0.00000  -0.00000   0.00000   0.00000
   D17        0.00000  -0.00000   0.00000   0.00000  -0.00000   0.00000
   D18        3.14159  -0.00000   0.00000  -0.00000   0.00000   3.14159
   D19        3.14159   0.00000   0.00000   0.00000   0.00000   3.14159
   D20       -0.00000   0.00000   0.00000  -0.00000   0.00000   0.00000
   D21       -0.00000  -0.00000   0.00000  -0.00000   0.00000   0.00000
   D22        3.14159  -0.00000   0.00000  -0.00000   0.00000   3.14159
   D23        3.14159   0.00000   0.00000   0.00000   0.00000   3.14159
   D24       -0.00000  -0.00000   0.00000  -0.00000   0.00000   0.00000
         Item               Value     Threshold  Converged?
 Maximum Force            0.000261     0.000450     YES
 RMS     Force            0.000072     0.000300     YES
 Maximum Displacement     0.001657     0.001800     YES
 RMS     Displacement     0.000447     0.001200     YES
 Predicted change in Energy=-6.753469D-07
 Optimization completed.
    -- Stationary point found.
                           ----------------------------
                           !   Optimized Parameters   !
                           ! (Angstroms and Degrees)  !
 --------------------------                            --------------------------
 ! Name  Definition              Value          Derivative Info.                !
 --------------------------------------------------------------------------------
 ! R1    R(1,2)                  1.4022         -DE/DX =    0.0001              !
 ! R2    R(1,6)                  1.3988         -DE/DX =    0.0                 !
 ! R3    R(1,8)                  1.797          -DE/DX =    0.0003              !
 ! R4    R(2,3)                  1.3983         -DE/DX =   -0.0001              !
 ! R5    R(2,11)                 1.0977         -DE/DX =    0.0                 !
 ! R6    R(3,4)                  1.3984         -DE/DX =   -0.0002              !
 ! R7    R(3,12)                 1.0987         -DE/DX =    0.0                 !
 ! R8    R(4,5)                  1.4022         -DE/DX =    0.0001              !
 ! R9    R(4,9)                  1.098          -DE/DX =   -0.0002              !
 ! R10   R(5,6)                  1.3988         -DE/DX =    0.0                 !
 ! R11   R(5,10)                 1.797          -DE/DX =    0.0003              !
 ! R12   R(6,7)                  1.7084         -DE/DX =    0.0                 !
 ! A1    A(2,1,6)              119.6779         -DE/DX =    0.0001              !
 ! A2    A(2,1,8)              116.4123         -DE/DX =   -0.0001              !
 ! A3    A(6,1,8)              123.9098         -DE/DX =    0.0                 !
 ! A4    A(1,2,3)              119.9635         -DE/DX =    0.0                 !
 ! A5    A(1,2,11)             119.8638         -DE/DX =    0.0                 !
 ! A6    A(3,2,11)             120.1727         -DE/DX =    0.0                 !
 ! A7    A(2,3,4)              120.2321         -DE/DX =    0.0001              !
 ! A8    A(2,3,12)             119.884          -DE/DX =    0.0                 !
 ! A9    A(4,3,12)             119.884          -DE/DX =    0.0                 !
 ! A10   A(3,4,5)              119.9629         -DE/DX =    0.0                 !
 ! A11   A(3,4,9)              120.1729         -DE/DX =    0.0                 !
 ! A12   A(5,4,9)              119.8641         -DE/DX =    0.0                 !
 ! A13   A(4,5,6)              119.6781         -DE/DX =    0.0001              !
 ! A14   A(4,5,10)             116.4123         -DE/DX =   -0.0001              !
 ! A15   A(6,5,10)             123.9096         -DE/DX =    0.0                 !
 ! A16   A(1,6,5)              120.4855         -DE/DX =   -0.0001              !
 ! A17   A(1,6,7)              119.7573         -DE/DX =    0.0001              !
 ! A18   A(5,6,7)              119.7573         -DE/DX =    0.0001              !
 ! D1    D(6,1,2,3)              0.0            -DE/DX =    0.0                 !
 ! D2    D(6,1,2,11)           180.0            -DE/DX =    0.0                 !
 ! D3    D(8,1,2,3)            180.0            -DE/DX =    0.0                 !
 ! D4    D(8,1,2,11)             0.0            -DE/DX =    0.0                 !
 ! D5    D(2,1,6,5)              0.0            -DE/DX =    0.0                 !
 ! D6    D(2,1,6,7)            180.0            -DE/DX =    0.0                 !
 ! D7    D(8,1,6,5)            180.0            -DE/DX =    0.0                 !
 ! D8    D(8,1,6,7)              0.0            -DE/DX =    0.0                 !
 ! D9    D(1,2,3,4)              0.0            -DE/DX =    0.0                 !
 ! D10   D(1,2,3,12)           180.0            -DE/DX =    0.0                 !
 ! D11   D(11,2,3,4)           180.0            -DE/DX =    0.0                 !
 ! D12   D(11,2,3,12)            0.0            -DE/DX =    0.0                 !
 ! D13   D(2,3,4,5)              0.0            -DE/DX =    0.0                 !
 ! D14   D(2,3,4,9)            180.0            -DE/DX =    0.0                 !
 ! D15   D(12,3,4,5)           180.0            -DE/DX =    0.0                 !
 ! D16   D(12,3,4,9)             0.0            -DE/DX =    0.0                 !
 ! D17   D(3,4,5,6)              0.0            -DE/DX =    0.0                 !
 ! D18   D(3,4,5,10)           180.0            -DE/DX =    0.0                 !
 ! D19   D(9,4,5,6)            180.0            -DE/DX =    0.0                 !
 ! D20   D(9,4,5,10)             0.0            -DE/DX =    0.0                 !
 ! D21   D(4,5,6,1)              0.0            -DE/DX =    0.0                 !
 ! D22   D(4,5,6,7)            180.0            -DE/DX =    0.0                 !
 ! D23   D(10,5,6,1)           180.0            -DE/DX =    0.0                 !
 ! D24   D(10,5,6,7)             0.0            -DE/DX =    0.0                 !
 --------------------------------------------------------------------------------
 GradGradGradGradGradGradGradGradGradGradGradGradGradGradGradGradGradGrad

                          Input orientation:                          
 ---------------------------------------------------------------------
 Center     Atomic      Atomic             Coordinates (Angstroms)
 Number     Number       Type             X           Y           Z
 ---------------------------------------------------------------------
      1          6           0       -3.127747    0.245823   -0.000000
      2          6           0       -1.932067    0.978372   -0.000000
      3          6           0       -0.703668    0.310232   -0.000000
      4          6           0       -0.662433   -1.087511    0.000000
      5          6           0       -1.856086   -1.823366    0.000000
      6          6           0       -3.083410   -1.152285   -0.000000
      7         17           0       -4.538881   -2.046774   -0.000000
      8         17           0       -4.650156    1.200584   -0.000000
      9          1           0        0.302627   -1.611127    0.000000
     10         17           0       -1.691952   -3.612880    0.000000
     11          1           0       -1.963299    2.075604   -0.000000
     12          1           0        0.232372    0.885497    0.000000
 ---------------------------------------------------------------------
                    Distance matrix (angstroms):
                    1          2          3          4          5
     1  C    0.000000
     2  C    1.402241   0.000000
     3  C    2.424935   1.398347   0.000000
     4  C    2.802776   2.424839   1.398351   0.000000
     5  C    2.428717   2.802769   2.424935   1.402245   0.000000
     6  C    1.398811   2.421837   2.793229   2.421844   1.398812
     7  Cl   2.692081   3.993368   4.501593   3.993374   2.692082
     8  Cl   1.797025   2.727158   4.045677   4.597534   4.117172
     9  H    3.900734   3.420433   2.168929   1.097959   2.169121
    10  Cl   4.117171   4.597527   4.045679   2.727160   1.797025
    11  H    2.168879   1.097676   2.168688   3.420168   3.900444
    12  H    3.420465   2.166430   1.098681   2.166433   3.420467
                    6          7          8          9         10
     6  C    0.000000
     7  Cl   1.708364   0.000000
     8  Cl   2.826781   3.249264   0.000000
     9  H    3.416984   4.861069   5.695242   0.000000
    10  Cl   2.826779   3.249261   5.649815   2.825838   0.000000
    11  H    3.416712   4.860825   2.825750   4.327402   5.694952
    12  H    3.891910   5.600274   4.892684   2.497613   4.892690
                   11         12
    11  H    0.000000
    12  H    2.497463   0.000000
 Stoichiometry    C6H3Cl3(1-,2)
 Framework group  CS[SG(C6H3Cl3)]
 Deg. of freedom    21
 Full point group                 CS      NOp   2
 Largest Abelian subgroup         CS      NOp   2
 Largest concise Abelian subgroup C1      NOp   1
                         Standard orientation:                         
 ---------------------------------------------------------------------
 Center     Atomic      Atomic             Coordinates (Angstroms)
 Number     Number       Type             X           Y           Z
 ---------------------------------------------------------------------
      1          6           0        1.214361   -0.395493    0.000000
      2          6           0        1.212419   -1.797732    0.000000
      3          6           0        0.000003   -2.494455    0.000000
      4          6           0       -1.212420   -1.797736    0.000000
      5          6           0       -1.214356   -0.395493   -0.000000
      6          6           0        0.000003    0.298775   -0.000000
      7         17           0        0.000003    2.007138   -0.000000
      8         17           0        2.824911    0.401645    0.000000
      9          1           0       -2.163824   -2.345774    0.000000
     10         17           0       -2.824904    0.401649   -0.000000
     11          1           0        2.163578   -2.345627    0.000000
     12          1           0        0.000006   -3.593135    0.000000
 ---------------------------------------------------------------------
 Rotational constants (GHZ):           1.5192420           0.7918600           0.5205426

 **********************************************************************

            Population analysis using the SCF Density.

 **********************************************************************

 Orbital symmetries:
 Alpha Orbitals:
       Occupied  (A') (A') (A') (A') (A') (A') (A') (A') (A') (A')
                 (A') (A') (A') (A") (A') (A') (A") (A") (A') (A")
                 (A') (A') (A") (A") (A')
       Virtual   (A') (A") (A") (A') (A") (A') (A') (A') (A') (A')
                 (A') (A') (A') (A')
 Beta  Orbitals:
       Occupied  (A') (A') (A') (A') (A') (A') (A') (A') (A') (A')
                 (A') (A') (A") (A') (A') (A") (A') (A") (A') (A")
                 (A') (A') (A") (A")
       Virtual   (A") (A") (A') (A') (A") (A') (A') (A') (A') (A')
                 (A') (A') (A') (A') (A')
 The electronic state is 2-A'.
 Alpha  occ. eigenvalues --   -1.28567  -1.21212  -1.16367  -1.15237  -0.98680
 Alpha  occ. eigenvalues --   -0.98049  -0.70383  -0.69778  -0.51587  -0.45710
 Alpha  occ. eigenvalues --   -0.44555  -0.39758  -0.38298  -0.38012  -0.31807
 Alpha  occ. eigenvalues --   -0.31396  -0.30370  -0.29654  -0.27305  -0.26721
 Alpha  occ. eigenvalues --   -0.25429  -0.25028  -0.19239  -0.18758  -0.02951
 Alpha virt. eigenvalues --    0.14189   0.16705   0.16963   0.21836   0.25040
 Alpha virt. eigenvalues --    0.27768   0.29465   0.30137   0.31683   0.32322
 Alpha virt. eigenvalues --    0.34107   0.34290   0.35432   0.35783
  Beta  occ. eigenvalues --   -1.28264  -1.21122  -1.14278  -1.13216  -0.98077
  Beta  occ. eigenvalues --   -0.97755  -0.70169  -0.68335  -0.51210  -0.44349
  Beta  occ. eigenvalues --   -0.44314  -0.38867  -0.37863  -0.37519  -0.30974
  Beta  occ. eigenvalues --   -0.30764  -0.30670  -0.28300  -0.26943  -0.25804
  Beta  occ. eigenvalues --   -0.24837  -0.24386  -0.19580  -0.19065
  Beta virt. eigenvalues --    0.16878   0.18745   0.20829   0.24452   0.25772
  Beta virt. eigenvalues --    0.25866   0.28249   0.29441   0.29970   0.32408
  Beta virt. eigenvalues --    0.32604   0.34216   0.34838   0.36276   0.36290
          Condensed to atoms (all electrons):
               1          2          3          4          5          6
     1  C    4.038729   0.000000   0.000000   0.000000   0.000000   0.000000
     2  C    0.000000   4.175399   0.000000   0.000000   0.000000   0.000000
     3  C    0.000000   0.000000   4.148220   0.000000   0.000000   0.000000
     4  C    0.000000   0.000000   0.000000   4.175409   0.000000   0.000000
     5  C    0.000000   0.000000   0.000000   0.000000   4.038725   0.000000
     6  C    0.000000   0.000000   0.000000   0.000000   0.000000   4.070400
     7  Cl   0.000000   0.000000   0.000000   0.000000   0.000000   0.000000
     8  Cl   0.000000   0.000000   0.000000   0.000000   0.000000   0.000000
     9  H    0.000000   0.000000   0.000000   0.000000   0.000000   0.000000
    10  Cl   0.000000   0.000000   0.000000   0.000000   0.000000   0.000000
    11  H    0.000000   0.000000   0.000000   0.000000   0.000000   0.000000
    12  H    0.000000   0.000000   0.000000   0.000000   0.000000   0.000000
               7          8          9         10         11         12
     1  C    0.000000   0.000000   0.000000   0.000000   0.000000   0.000000
     2  C    0.000000   0.000000   0.000000   0.000000   0.000000   0.000000
     3  C    0.000000   0.000000   0.000000   0.000000   0.000000   0.000000
     4  C    0.000000   0.000000   0.000000   0.000000   0.000000   0.000000
     5  C    0.000000   0.000000   0.000000   0.000000   0.000000   0.000000
     6  C    0.000000   0.000000   0.000000   0.000000   0.000000   0.000000
     7  Cl   7.066590   0.000000   0.000000   0.000000   0.000000   0.000000
     8  Cl   0.000000   7.308184   0.000000   0.000000   0.000000   0.000000
     9  H    0.000000   0.000000   0.882531   0.000000   0.000000   0.000000
    10  Cl   0.000000   0.000000   0.000000   7.308188   0.000000   0.000000
    11  H    0.000000   0.000000   0.000000   0.000000   0.882541   0.000000
    12  H    0.000000   0.000000   0.000000   0.000000   0.000000   0.905084
          Atomic-Atomic Spin Densities.
               1          2          3          4          5          6
     1  C    0.634578   0.000000   0.000000   0.000000   0.000000   0.000000
     2  C    0.000000  -0.425077   0.000000   0.000000   0.000000   0.000000
     3  C    0.000000   0.000000   0.411199   0.000000   0.000000   0.000000
     4  C    0.000000   0.000000   0.000000  -0.425091   0.000000   0.000000
     5  C    0.000000   0.000000   0.000000   0.000000   0.634585   0.000000
     6  C    0.000000   0.000000   0.000000   0.000000   0.000000  -0.390685
     7  Cl   0.000000   0.000000   0.000000   0.000000   0.000000   0.000000
     8  Cl   0.000000   0.000000   0.000000   0.000000   0.000000   0.000000
     9  H    0.000000   0.000000   0.000000   0.000000   0.000000   0.000000
    10  Cl   0.000000   0.000000   0.000000   0.000000   0.000000   0.000000
    11  H    0.000000   0.000000   0.000000   0.000000   0.000000   0.000000
    12  H    0.000000   0.000000   0.000000   0.000000   0.000000   0.000000
               7          8          9         10         11         12
     1  C    0.000000   0.000000   0.000000   0.000000   0.000000   0.000000
     2  C    0.000000   0.000000   0.000000   0.000000   0.000000   0.000000
     3  C    0.000000   0.000000   0.000000   0.000000   0.000000   0.000000
     4  C    0.000000   0.000000   0.000000   0.000000   0.000000   0.000000
     5  C    0.000000   0.000000   0.000000   0.000000   0.000000   0.000000
     6  C    0.000000   0.000000   0.000000   0.000000   0.000000   0.000000
     7  Cl   0.019750   0.000000   0.000000   0.000000   0.000000   0.000000
     8  Cl   0.000000   0.257222   0.000000   0.000000   0.000000   0.000000
     9  H    0.000000   0.000000   0.022374   0.000000   0.000000   0.000000
    10  Cl   0.000000   0.000000   0.000000   0.257225   0.000000   0.000000
    11  H    0.000000   0.000000   0.000000   0.000000   0.022364   0.000000
    12  H    0.000000   0.000000   0.000000   0.000000   0.000000  -0.018445
 Mulliken charges and spin densities:
               1          2
     1  C   -0.038729   0.634578
     2  C   -0.175399  -0.425077
     3  C   -0.148220   0.411199
     4  C   -0.175409  -0.425091
     5  C   -0.038725   0.634585
     6  C   -0.070400  -0.390685
     7  Cl  -0.066590   0.019750
     8  Cl  -0.308184   0.257222
     9  H    0.117469   0.022374
    10  Cl  -0.308188   0.257225
    11  H    0.117459   0.022364
    12  H    0.094916  -0.018445
 Sum of Mulliken charges =  -1.00000   1.00000
 Mulliken charges and spin densities with hydrogens summed into heavy atoms:
               1          2
     1  C   -0.038729   0.634578
     2  C   -0.057940  -0.402713
     3  C   -0.053304   0.392754
     4  C   -0.057940  -0.402717
     5  C   -0.038725   0.634585
     6  C   -0.070400  -0.390685
     7  Cl  -0.066590   0.019750
     8  Cl  -0.308184   0.257222
    10  Cl  -0.308188   0.257225
 Charge=             -1.0000 electrons
 Dipole moment (field-independent basis, Debye):
    X=             -0.0001    Y=             -1.8153    Z=              0.0000  Tot=              1.8153
 N-N= 2.528283405327D+02 E-N=-3.637418080208D+02  KE=-1.151890444521D+02
 Symmetry A'   KE=-8.918550260254D+01
 Symmetry A"   KE=-2.600354184960D+01
 Symmetry A'   SP= 1.000000000000D+00
 Symmetry A"   SP=-7.771561172376D-16
 1\1\GINC-SH02-01N16\FOpt\UAM1\ZDO\C6H3Cl3(1-,2)\JLAPIER\09-Dec-2025\0\
 \# opt am1 SCF=XQC\\3-Chloro-Benzene Anion Radical (124)\\-1,2\C,-3.12
 77468116,0.2458232352,0.\C,-1.9320667071,0.9783723068,0.\C,-0.70366773
 47,0.3102322884,0.\C,-0.6624327645,-1.0875106809,0.\C,-1.8560856103,-1
 .8233662845,0.\C,-3.0834099846,-1.1522852875,0.\Cl,-4.5388813784,-2.04
 67735494,0.\Cl,-4.6501563437,1.2005843961,0.\H,0.3026266882,-1.6111274
 121,0.\Cl,-1.6919520298,-3.6128800201,0.\H,-1.9632989073,2.0756040311,
 0.\H,0.2323715838,0.8854969769,0.\\Version=ES64L-G16RevB.01\State=2-A'
 \HF=0.0053306\S2=1.168671\S2-1=0.\S2A=0.89903\RMSD=3.720e-09\RMSF=1.36
 0e-04\Dipole=0.608505,0.3739226,0.\PG=CS [SG(C6H3Cl3)]\\@


 I FIND THAT THE THREE TRULY GREAT TIMES FOR THINKING THOUGHTS
 ARE WHEN I AM STANDING IN THE SHOWER, SITTING ON THE JOHN, OR WALKING.

                                    -- COLIN FLETCHER
 Job cpu time:       0 days  0 hours  0 minutes 11.3 seconds.
 Elapsed time:       0 days  0 hours  0 minutes 24.1 seconds.
 File lengths (MBytes):  RWF=     10 Int=      0 D2E=      0 Chk=      2 Scr=      1
 Normal termination of Gaussian 16 at Tue Dec  9 08:35:06 2025.
