 Entering Gaussian System, Link 0=g16
 Initial command:
 /share/software/user/restricted/gaussian/g16.B01/l1.exe "/home/users/jlapier/Chloroaromatics/Gau-19564.inp" -scrdir="/home/users/jlapier/Chloroaromatics/"
 Entering Link 1 = /share/software/user/restricted/gaussian/g16.B01/l1.exe PID=     19567.
  
 Copyright (c) 1988-2017, Gaussian, Inc.  All Rights Reserved.
  
 This is part of the Gaussian(R) 16 program.  It is based on
 the Gaussian(R) 09 system (copyright 2009, Gaussian, Inc.),
 the Gaussian(R) 03 system (copyright 2003, Gaussian, Inc.),
 the Gaussian(R) 98 system (copyright 1998, Gaussian, Inc.),
 the Gaussian(R) 94 system (copyright 1995, Gaussian, Inc.),
 the Gaussian 92(TM) system (copyright 1992, Gaussian, Inc.),
 the Gaussian 90(TM) system (copyright 1990, Gaussian, Inc.),
 the Gaussian 88(TM) system (copyright 1988, Gaussian, Inc.),
 the Gaussian 86(TM) system (copyright 1986, Carnegie Mellon
 University), and the Gaussian 82(TM) system (copyright 1983,
 Carnegie Mellon University). Gaussian is a federally registered
 trademark of Gaussian, Inc.
  
 This software contains proprietary and confidential information,
 including trade secrets, belonging to Gaussian, Inc.
  
 This software is provided under written license and may be
 used, copied, transmitted, or stored only in accord with that
 written license.
  
 The following legend is applicable only to US Government
 contracts under FAR:
  
                    RESTRICTED RIGHTS LEGEND
  
 Use, reproduction and disclosure by the US Government is
 subject to restrictions as set forth in subparagraphs (a)
 and (c) of the Commercial Computer Software - Restricted
 Rights clause in FAR 52.227-19.
  
 Gaussian, Inc.
 340 Quinnipiac St., Bldg. 40, Wallingford CT 06492
  
  
 ---------------------------------------------------------------
 Warning -- This program may not be used in any manner that
 competes with the business of Gaussian, Inc. or will provide
 assistance to any competitor of Gaussian, Inc.  The licensee
 of this program is prohibited from giving any competitor of
 Gaussian, Inc. access to this program.  By using this program,
 the user acknowledges that Gaussian, Inc. is engaged in the
 business of creating and licensing software in the field of
 computational chemistry and represents and warrants to the
 licensee that it is not a competitor of Gaussian, Inc. and that
 it will not use this program in any manner prohibited above.
 ---------------------------------------------------------------
  

 Cite this work as:
 Gaussian 16, Revision B.01,
 M. J. Frisch, G. W. Trucks, H. B. Schlegel, G. E. Scuseria, 
 M. A. Robb, J. R. Cheeseman, G. Scalmani, V. Barone, 
 G. A. Petersson, H. Nakatsuji, X. Li, M. Caricato, A. V. Marenich, 
 J. Bloino, B. G. Janesko, R. Gomperts, B. Mennucci, H. P. Hratchian, 
 J. V. Ortiz, A. F. Izmaylov, J. L. Sonnenberg, D. Williams-Young, 
 F. Ding, F. Lipparini, F. Egidi, J. Goings, B. Peng, A. Petrone, 
 T. Henderson, D. Ranasinghe, V. G. Zakrzewski, J. Gao, N. Rega, 
 G. Zheng, W. Liang, M. Hada, M. Ehara, K. Toyota, R. Fukuda, 
 J. Hasegawa, M. Ishida, T. Nakajima, Y. Honda, O. Kitao, H. Nakai, 
 T. Vreven, K. Throssell, J. A. Montgomery, Jr., J. E. Peralta, 
 F. Ogliaro, M. J. Bearpark, J. J. Heyd, E. N. Brothers, K. N. Kudin, 
 V. N. Staroverov, T. A. Keith, R. Kobayashi, J. Normand, 
 K. Raghavachari, A. P. Rendell, J. C. Burant, S. S. Iyengar, 
 J. Tomasi, M. Cossi, J. M. Millam, M. Klene, C. Adamo, R. Cammi, 
 J. W. Ochterski, R. L. Martin, K. Morokuma, O. Farkas, 
 J. B. Foresman, and D. J. Fox, Gaussian, Inc., Wallingford CT, 2016.
 
 ******************************************
 Gaussian 16:  ES64L-G16RevB.01 20-Dec-2017
                 9-Dec-2025 
 ******************************************
 %mem=2GB
 %nprocshare=1
 Will use up to    1 processors via shared memory.
 %chk=geometry_chks/124ClBzAnionRadical.chk
 -----------------
 # opt am1 SCF=XQC
 -----------------
 1/18=20,19=15,26=1,38=1/1,3;
 2/9=110,12=2,17=6,18=5,40=1/2;
 3/5=2,25=1,41=700000,71=1/1,2,3;
 4/35=1/1;
 5/5=2,8=3,13=1,35=1,38=5/2,8;
 6/7=2,8=2,9=2,10=2,28=1/1;
 7//1,2,3,16;
 1/18=20,19=15,26=1/3(2);
 2/9=110/2;
 99//99;
 2/9=110/2;
 3/5=2,25=1,41=700000,71=1,135=20/1,2,3;
 4/5=5,16=3,35=1/1;
 5/5=2,8=3,13=1,35=1,38=5/2,8;
 7//1,2,3,16;
 1/18=20,19=15,26=1/3(-5);
 2/9=110/2;
 6/7=2,8=2,9=2,10=2,19=2,28=1/1;
 99/9=1/99;
 ------------------------------------
 3-Chloro-Benzene Anion Radical (124)
 ------------------------------------
 Symbolic Z-matrix:
 Charge = -1 Multiplicity = 2
 C                    -3.20928   0.19943   0. 
 C                    -2.0115    0.93555   0. 
 C                    -0.77511   0.2663    0. 
 C                    -0.7365   -1.13907   0. 
 C                    -1.93429  -1.87519   0. 
 C                    -3.17067  -1.20594   0. 
 Cl                   -4.67483  -2.13035   0. 
 Cl                   -4.76193   1.03987   0. 
 H                    -2.05998   2.7004    0. 
 Cl                    0.72905   1.19071   0. 
 H                     0.81614  -1.97951   0. 
 H                    -1.8858   -3.64003   0. 
 
 Add virtual bond connecting atoms H12        and C5         Dist= 3.34D+00.
 Add virtual bond connecting atoms H11        and C4         Dist= 3.34D+00.
 Add virtual bond connecting atoms H9         and C2         Dist= 3.34D+00.

 GradGradGradGradGradGradGradGradGradGradGradGradGradGradGradGradGradGrad
 Berny optimization.
 Initialization pass.
                           ----------------------------
                           !    Initial Parameters    !
                           ! (Angstroms and Degrees)  !
 --------------------------                            --------------------------
 ! Name  Definition              Value          Derivative Info.                !
 --------------------------------------------------------------------------------
 ! R1    R(1,2)                  1.4059         estimate D2E/DX2                !
 ! R2    R(1,6)                  1.4059         estimate D2E/DX2                !
 ! R3    R(1,8)                  1.7655         estimate D2E/DX2                !
 ! R4    R(2,3)                  1.4059         estimate D2E/DX2                !
 ! R5    R(2,9)                  1.7655         estimate D2E/DX2                !
 ! R6    R(3,4)                  1.4059         estimate D2E/DX2                !
 ! R7    R(3,10)                 1.7655         estimate D2E/DX2                !
 ! R8    R(4,5)                  1.4059         estimate D2E/DX2                !
 ! R9    R(4,11)                 1.7655         estimate D2E/DX2                !
 ! R10   R(5,6)                  1.4059         estimate D2E/DX2                !
 ! R11   R(5,12)                 1.7655         estimate D2E/DX2                !
 ! R12   R(6,7)                  1.7655         estimate D2E/DX2                !
 ! A1    A(2,1,6)              119.9999         estimate D2E/DX2                !
 ! A2    A(2,1,8)              119.9999         estimate D2E/DX2                !
 ! A3    A(6,1,8)              120.0001         estimate D2E/DX2                !
 ! A4    A(1,2,3)              120.0            estimate D2E/DX2                !
 ! A5    A(1,2,9)              120.0001         estimate D2E/DX2                !
 ! A6    A(3,2,9)              119.9999         estimate D2E/DX2                !
 ! A7    A(2,3,4)              120.0001         estimate D2E/DX2                !
 ! A8    A(2,3,10)             120.0            estimate D2E/DX2                !
 ! A9    A(4,3,10)             119.9999         estimate D2E/DX2                !
 ! A10   A(3,4,5)              119.9997         estimate D2E/DX2                !
 ! A11   A(3,4,11)             120.0003         estimate D2E/DX2                !
 ! A12   A(5,4,11)             120.0            estimate D2E/DX2                !
 ! A13   A(4,5,6)              120.0            estimate D2E/DX2                !
 ! A14   A(4,5,12)             119.9996         estimate D2E/DX2                !
 ! A15   A(6,5,12)             120.0004         estimate D2E/DX2                !
 ! A16   A(1,6,5)              120.0003         estimate D2E/DX2                !
 ! A17   A(1,6,7)              119.9999         estimate D2E/DX2                !
 ! A18   A(5,6,7)              119.9998         estimate D2E/DX2                !
 ! D1    D(6,1,2,3)              0.0            estimate D2E/DX2                !
 ! D2    D(6,1,2,9)            180.0            estimate D2E/DX2                !
 ! D3    D(8,1,2,3)            180.0            estimate D2E/DX2                !
 ! D4    D(8,1,2,9)              0.0            estimate D2E/DX2                !
 ! D5    D(2,1,6,5)              0.0            estimate D2E/DX2                !
 ! D6    D(2,1,6,7)            180.0            estimate D2E/DX2                !
 ! D7    D(8,1,6,5)            180.0            estimate D2E/DX2                !
 ! D8    D(8,1,6,7)              0.0            estimate D2E/DX2                !
 ! D9    D(1,2,3,4)              0.0            estimate D2E/DX2                !
 ! D10   D(1,2,3,10)           180.0            estimate D2E/DX2                !
 ! D11   D(9,2,3,4)            180.0            estimate D2E/DX2                !
 ! D12   D(9,2,3,10)             0.0            estimate D2E/DX2                !
 ! D13   D(2,3,4,5)              0.0            estimate D2E/DX2                !
 ! D14   D(2,3,4,11)           180.0            estimate D2E/DX2                !
 ! D15   D(10,3,4,5)           180.0            estimate D2E/DX2                !
 ! D16   D(10,3,4,11)            0.0            estimate D2E/DX2                !
 ! D17   D(3,4,5,6)              0.0            estimate D2E/DX2                !
 ! D18   D(3,4,5,12)           180.0            estimate D2E/DX2                !
 ! D19   D(11,4,5,6)           180.0            estimate D2E/DX2                !
 ! D20   D(11,4,5,12)            0.0            estimate D2E/DX2                !
 ! D21   D(4,5,6,1)              0.0            estimate D2E/DX2                !
 ! D22   D(4,5,6,7)            180.0            estimate D2E/DX2                !
 ! D23   D(12,5,6,1)           180.0            estimate D2E/DX2                !
 ! D24   D(12,5,6,7)             0.0            estimate D2E/DX2                !
 --------------------------------------------------------------------------------
 Trust Radius=3.00D-01 FncErr=1.00D-07 GrdErr=1.00D-07 EigMax=2.50D+02 EigMin=1.00D-04
 Number of steps in this run=     64 maximum allowed number of steps=    100.
 GradGradGradGradGradGradGradGradGradGradGradGradGradGradGradGradGradGrad

                          Input orientation:                          
 ---------------------------------------------------------------------
 Center     Atomic      Atomic             Coordinates (Angstroms)
 Number     Number       Type             X           Y           Z
 ---------------------------------------------------------------------
      1          6           0       -3.209280    0.199430    0.000000
      2          6           0       -2.011500    0.935550    0.000000
      3          6           0       -0.775110    0.266300    0.000000
      4          6           0       -0.736500   -1.139070    0.000000
      5          6           0       -1.934290   -1.875190    0.000000
      6          6           0       -3.170670   -1.205940    0.000000
      7         17           0       -4.674830   -2.130350    0.000000
      8         17           0       -4.761930    1.039870    0.000000
      9          1           0       -2.059980    2.700400    0.000000
     10         17           0        0.729050    1.190710    0.000000
     11          1           0        0.816140   -1.979510    0.000000
     12          1           0       -1.885800   -3.640030    0.000000
 ---------------------------------------------------------------------
                    Distance matrix (angstroms):
                    1          2          3          4          5
     1  C    0.000000
     2  C    1.405898   0.000000
     3  C    2.435088   1.405900   0.000000
     4  C    2.811801   2.435092   1.405900   0.000000
     5  C    2.435087   2.811800   2.435093   1.405907   0.000000
     6  C    1.405900   2.435088   2.811796   2.435088   1.405892
     7  Cl   2.752401   4.061166   4.577308   4.061167   2.752393
     8  Cl   1.765520   2.752408   4.061175   4.577321   4.061173
     9  H    2.752406   1.765516   2.752405   4.061173   4.577316
    10  Cl   4.061167   2.752403   1.765512   2.752401   4.061173
    11  H    4.577312   4.061173   2.752406   1.765511   2.752408
    12  H    4.061164   4.577306   4.061163   2.752397   1.765506
                    6          7          8          9         10
     6  C    0.000000
     7  Cl   1.765512   0.000000
     8  Cl   2.752412   3.171416   0.000000
     9  H    4.061173   5.493049   3.171418   0.000000
    10  Cl   4.577308   6.342819   5.493051   3.171412   0.000000
    11  H    4.061165   5.493041   6.342832   5.493052   3.171416
    12  H    2.752396   3.171407   5.493049   6.342822   5.493040
                   11         12
    11  H    0.000000
    12  H    3.171404   0.000000
 Stoichiometry    C6H3Cl3(1-,2)
 Framework group  CS[SG(C6H3Cl3)]
 Deg. of freedom    21
 Full point group                 CS      NOp   2
 Largest Abelian subgroup         CS      NOp   2
 Largest concise Abelian subgroup C1      NOp   1
                         Standard orientation:                         
 ---------------------------------------------------------------------
 Center     Atomic      Atomic             Coordinates (Angstroms)
 Number     Number       Type             X           Y           Z
 ---------------------------------------------------------------------
      1          6           0        0.000000    0.842092    0.000000
      2          6           0        1.217544    0.139143    0.000000
      3          6           0        1.217544   -1.266757    0.000000
      4          6           0        0.000000   -1.969709    0.000000
      5          6           0       -1.217549   -1.266752    0.000000
      6          6           0       -1.217544    0.139139    0.000000
      7         17           0       -2.746522    1.021895    0.000000
      8         17           0        0.000001    2.607612    0.000000
      9          1           0        2.746527    1.021899    0.000000
     10         17           0        2.746522   -2.149513    0.000000
     11          1           0       -0.000005   -3.735221    0.000000
     12          1           0       -2.746518   -2.149512    0.000000
 ---------------------------------------------------------------------
 Rotational constants (GHZ):           1.7786906           0.5747802           0.4344036
 Standard basis: VSTO-6G (5D, 7F)
 There are    30 symmetry adapted cartesian basis functions of A'  symmetry.
 There are     9 symmetry adapted cartesian basis functions of A"  symmetry.
 There are    30 symmetry adapted basis functions of A'  symmetry.
 There are     9 symmetry adapted basis functions of A"  symmetry.
    39 basis functions,   234 primitive gaussians,    39 cartesian basis functions
    25 alpha electrons       24 beta electrons
       nuclear repulsion energy       246.3204445346 Hartrees.
 Integral buffers will be    131072 words long.
 Regular integral format.
 Two-electron integral symmetry is turned off.
 Do NDO integrals.
 One-electron integrals computed using PRISM.
 NBasis=    39 RedAO= T EigKep=  1.00D+00  NBF=    30     9
 NBsUse=    39 1.00D-06 EigRej= -1.00D+00 NBFU=    30     9
 Simple Huckel Guess.
 Initial guess orbital symmetries:
 Alpha Orbitals:
       Occupied  (A') (A') (A') (A') (A') (A') (A') (A') (A') (A")
                 (A') (A') (A') (A') (A") (A') (A") (A') (A") (A')
                 (A') (A') (A") (A") (A')
       Virtual   (A") (A') (A") (A') (A") (A') (A') (A') (A') (A')
                 (A') (A') (A') (A')
 Beta  Orbitals:
       Occupied  (A') (A') (A') (A') (A') (A') (A') (A') (A') (A")
                 (A') (A') (A') (A') (A") (A') (A") (A') (A") (A')
                 (A') (A') (A") (A")
       Virtual   (A') (A") (A') (A") (A') (A") (A') (A') (A') (A')
                 (A') (A') (A') (A') (A')
 The electronic state of the initial guess is 2-A'.
 Initial guess <Sx>= 0.0000 <Sy>= 0.0000 <Sz>= 0.5000 <S**2>= 0.7500 S= 0.5000
 Keep J ints in memory in canonical form, NReq=863709.
 Overlap will be assumed to be unity.
 Requested convergence on RMS density matrix=1.00D-08 within  32 cycles.
 Requested convergence on MAX density matrix=1.00D-06.
 Requested convergence on             energy=1.00D-06.
 No special actions if energy rises.
 Fock symm off for IB=2 I1=    1 I=   31 J=   26 Cut=1.00D-07 Err=6.54D-03
 Fock matrix is not symmetric: symmetry in diagonalization turned off.
 Rare condition: small coef for last iteration:  0.000D+00
 Rare condition: small coef for last iteration:  0.000D+00
 Rare condition: small coef for last iteration:  0.000D+00
 Rare condition: small coef for last iteration:  0.000D+00
 Rare condition: small coef for last iteration:  0.000D+00
 Rare condition: small coef for last iteration:  0.000D+00
 Rare condition: small coef for last iteration:  0.000D+00
 Rare condition: small coef for last iteration:  0.000D+00
 Rare condition: small coef for last iteration:  0.000D+00
 >>>>>>>>>> Convergence criterion not met.
 SCF Done:  E(UAM1) =  0.336982382709     A.U. after   33 cycles
            NFock= 32  Conv=0.14D-04     -V/T= 1.0030
 <Sx>= 0.0000 <Sy>= 0.0000 <Sz>= 0.5000 <S**2>= 1.0809 S= 0.6537
 <L.S>=  0.00000000000    
 Annihilation of the first spin contaminant:
 S**2 before annihilation     1.0809,   after     0.7715
 Keep J ints in memory in canonical form, NReq=864109.
 LinEq1:  Iter=  0 NonCon=     1 RMS=1.24D-06 Max=1.82D-05 NDo=     1
 AX will form     1 AO Fock derivatives at one time.
 LinEq1:  Iter=  1 NonCon=     1 RMS=1.23D-07 Max=9.14D-07 NDo=     1
 LinEq1:  Iter=  2 NonCon=     1 RMS=3.73D-08 Max=4.20D-07 NDo=     1
 LinEq1:  Iter=  3 NonCon=     1 RMS=1.61D-08 Max=1.61D-07 NDo=     1
 LinEq1:  Iter=  4 NonCon=     1 RMS=4.68D-09 Max=4.66D-08 NDo=     1
 LinEq1:  Iter=  5 NonCon=     1 RMS=1.52D-09 Max=1.34D-08 NDo=     1
 LinEq1:  Iter=  6 NonCon=     1 RMS=4.05D-10 Max=3.89D-09 NDo=     1
 LinEq1:  Iter=  7 NonCon=     1 RMS=1.25D-10 Max=1.57D-09 NDo=     1
 LinEq1:  Iter=  8 NonCon=     0 RMS=3.87D-11 Max=4.40D-10 NDo=     1
 Linear equations converged to 1.287D-10 1.287D-09 after     8 iterations.
 LinEq1:  Iter=  0 NonCon=     1 RMS=2.28D-07 Max=2.59D-06 NDo=     1
 LinEq1:  Iter=  1 NonCon=     1 RMS=1.03D-07 Max=1.16D-06 NDo=     1
 LinEq1:  Iter=  2 NonCon=     1 RMS=3.25D-08 Max=4.04D-07 NDo=     1
 LinEq1:  Iter=  3 NonCon=     1 RMS=9.85D-09 Max=9.34D-08 NDo=     1
 LinEq1:  Iter=  4 NonCon=     1 RMS=2.79D-09 Max=3.15D-08 NDo=     1
 LinEq1:  Iter=  5 NonCon=     1 RMS=9.20D-10 Max=8.05D-09 NDo=     1
 LinEq1:  Iter=  6 NonCon=     1 RMS=3.15D-10 Max=2.95D-09 NDo=     1
 LinEq1:  Iter=  7 NonCon=     1 RMS=1.03D-10 Max=8.96D-10 NDo=     1
 LinEq1:  Iter=  8 NonCon=     0 RMS=1.93D-11 Max=2.61D-10 NDo=     1
 Linear equations converged to 3.438D-11 3.438D-10 after     8 iterations.
 LinEq1:  Iter=  0 NonCon=     1 RMS=1.29D-07 Max=1.75D-06 NDo=     1
 LinEq1:  Iter=  1 NonCon=     1 RMS=3.96D-08 Max=4.16D-07 NDo=     1
 LinEq1:  Iter=  2 NonCon=     1 RMS=8.76D-09 Max=7.39D-08 NDo=     1
 LinEq1:  Iter=  3 NonCon=     1 RMS=3.65D-09 Max=4.48D-08 NDo=     1
 LinEq1:  Iter=  4 NonCon=     1 RMS=1.10D-09 Max=1.12D-08 NDo=     1
 LinEq1:  Iter=  5 NonCon=     1 RMS=3.76D-10 Max=4.67D-09 NDo=     1
 LinEq1:  Iter=  6 NonCon=     1 RMS=1.16D-10 Max=1.29D-09 NDo=     1
 LinEq1:  Iter=  7 NonCon=     1 RMS=3.20D-11 Max=3.45D-10 NDo=     1
 LinEq1:  Iter=  8 NonCon=     0 RMS=1.19D-11 Max=1.56D-10 NDo=     1
 Linear equations converged to 2.332D-11 2.332D-10 after     8 iterations.
 LinEq1:  Iter=  0 NonCon=     1 RMS=2.59D-08 Max=3.39D-07 NDo=     1
 LinEq1:  Iter=  1 NonCon=     1 RMS=1.30D-08 Max=1.57D-07 NDo=     1
 LinEq1:  Iter=  2 NonCon=     1 RMS=3.51D-09 Max=3.90D-08 NDo=     1
 LinEq1:  Iter=  3 NonCon=     1 RMS=1.09D-09 Max=1.37D-08 NDo=     1
 LinEq1:  Iter=  4 NonCon=     1 RMS=3.33D-10 Max=3.28D-09 NDo=     1
 LinEq1:  Iter=  5 NonCon=     1 RMS=1.23D-10 Max=1.16D-09 NDo=     1
 LinEq1:  Iter=  6 NonCon=     1 RMS=4.06D-11 Max=3.50D-10 NDo=     1
 LinEq1:  Iter=  7 NonCon=     1 RMS=9.89D-12 Max=9.40D-11 NDo=     1
 LinEq1:  Iter=  8 NonCon=     0 RMS=2.93D-12 Max=2.86D-11 NDo=     1
 Linear equations converged to 3.790D-12 3.790D-11 after     8 iterations.
 LinEq1:  Iter=  0 NonCon=     1 RMS=1.68D-08 Max=1.64D-07 NDo=     1
 LinEq1:  Iter=  1 NonCon=     1 RMS=5.72D-09 Max=5.29D-08 NDo=     1
 LinEq1:  Iter=  2 NonCon=     1 RMS=1.36D-09 Max=1.18D-08 NDo=     1
 LinEq1:  Iter=  3 NonCon=     1 RMS=5.38D-10 Max=6.77D-09 NDo=     1
 LinEq1:  Iter=  4 NonCon=     1 RMS=1.78D-10 Max=1.76D-09 NDo=     1
 LinEq1:  Iter=  5 NonCon=     1 RMS=6.51D-11 Max=6.32D-10 NDo=     1
 LinEq1:  Iter=  6 NonCon=     1 RMS=1.77D-11 Max=1.90D-10 NDo=     1
 LinEq1:  Iter=  7 NonCon=     1 RMS=4.85D-12 Max=6.28D-11 NDo=     1
 LinEq1:  Iter=  8 NonCon=     0 RMS=2.04D-12 Max=2.76D-11 NDo=     1
 Linear equations converged to 2.964D-12 2.964D-11 after     8 iterations.
 SCF Done:  E(UAM1) =  0.336982373363     a.u. after    6 cycles
            Convg  =    0.3452D-07                    46 Fock formations.
              S**2 =  1.0809                  -V/T =  1.0030
 <Sx>= 0.0000 <Sy>= 0.0000 <Sz>= 0.5000 <S**2>= 1.0809 S= 0.6537
 <L.S>=  0.00000000000    
 Annihilation of the first spin contaminant:
 S**2 before annihilation     1.0809,   after     0.7715

 **********************************************************************

            Population analysis using the SCF Density.

 **********************************************************************

 Orbital symmetries:
 Alpha Orbitals:
       Occupied  (A') (A') (A') (A') (A') (A') (A') (A') (A') (A')
                 (A') (A") (A') (A") (A") (A') (A') (A') (A') (A")
                 (A') (A') (A") (A") (A')
       Virtual   (A') (A') (A") (A") (A') (A') (A') (A") (A') (A')
                 (A') (A') (A') (A')
 Beta  Orbitals:
       Occupied  (A') (A') (A') (A') (A') (A') (A') (A') (A') (A')
                 (A') (A") (A') (A") (A") (A') (A') (A') (A') (A")
                 (A') (A") (A") (A')
       Virtual   (A') (A") (A") (A') (A') (A') (A') (A") (A') (A')
                 (A') (A') (A') (A') (A')
 The electronic state is 2-A'.
 Alpha  occ. eigenvalues --   -1.27157  -1.23147  -1.22275  -1.19479  -0.95998
 Alpha  occ. eigenvalues --   -0.93303  -0.67938  -0.65358  -0.48304  -0.44506
 Alpha  occ. eigenvalues --   -0.43721  -0.39333  -0.37495  -0.34466  -0.32903
 Alpha  occ. eigenvalues --   -0.31878  -0.30019  -0.29397  -0.28439  -0.27950
 Alpha  occ. eigenvalues --   -0.25758  -0.22090  -0.19365  -0.18667  -0.06554
 Alpha virt. eigenvalues --    0.13225   0.15352   0.16063   0.17038   0.17775
 Alpha virt. eigenvalues --    0.19217   0.20560   0.26590   0.30655   0.31218
 Alpha virt. eigenvalues --    0.33008   0.34440   0.35362   0.39024
  Beta  occ. eigenvalues --   -1.27260  -1.23141  -1.22146  -1.19477  -0.96191
  Beta  occ. eigenvalues --   -0.93776  -0.68138  -0.65962  -0.48396  -0.44721
  Beta  occ. eigenvalues --   -0.43880  -0.39324  -0.37640  -0.34340  -0.32923
  Beta  occ. eigenvalues --   -0.31927  -0.29909  -0.29319  -0.28654  -0.28025
  Beta  occ. eigenvalues --   -0.22748  -0.19534  -0.18982  -0.18686
  Beta virt. eigenvalues --    0.13834   0.15769   0.16656   0.17420   0.18624
  Beta virt. eigenvalues --    0.20423   0.25100   0.25815   0.25916   0.30765
  Beta virt. eigenvalues --    0.31166   0.32753   0.33647   0.35510   0.37591
          Condensed to atoms (all electrons):
               1          2          3          4          5          6
     1  C    4.083931   0.000000   0.000000   0.000000   0.000000   0.000000
     2  C    0.000000   4.142190   0.000000   0.000000   0.000000   0.000000
     3  C    0.000000   0.000000   4.038488   0.000000   0.000000   0.000000
     4  C    0.000000   0.000000   0.000000   4.171746   0.000000   0.000000
     5  C    0.000000   0.000000   0.000000   0.000000   4.173734   0.000000
     6  C    0.000000   0.000000   0.000000   0.000000   0.000000   4.028281
     7  Cl   0.000000   0.000000   0.000000   0.000000   0.000000   0.000000
     8  Cl   0.000000   0.000000   0.000000   0.000000   0.000000   0.000000
     9  H    0.000000   0.000000   0.000000   0.000000   0.000000   0.000000
    10  Cl   0.000000   0.000000   0.000000   0.000000   0.000000   0.000000
    11  H    0.000000   0.000000   0.000000   0.000000   0.000000   0.000000
    12  H    0.000000   0.000000   0.000000   0.000000   0.000000   0.000000
               7          8          9         10         11         12
     1  C    0.000000   0.000000   0.000000   0.000000   0.000000   0.000000
     2  C    0.000000   0.000000   0.000000   0.000000   0.000000   0.000000
     3  C    0.000000   0.000000   0.000000   0.000000   0.000000   0.000000
     4  C    0.000000   0.000000   0.000000   0.000000   0.000000   0.000000
     5  C    0.000000   0.000000   0.000000   0.000000   0.000000   0.000000
     6  C    0.000000   0.000000   0.000000   0.000000   0.000000   0.000000
     7  Cl   7.114161   0.000000   0.000000   0.000000   0.000000   0.000000
     8  Cl   0.000000   7.101925   0.000000   0.000000   0.000000   0.000000
     9  H    0.000000   0.000000   0.889030   0.000000   0.000000   0.000000
    10  Cl   0.000000   0.000000   0.000000   7.130533   0.000000   0.000000
    11  H    0.000000   0.000000   0.000000   0.000000   1.071037   0.000000
    12  H    0.000000   0.000000   0.000000   0.000000   0.000000   1.054943
          Atomic-Atomic Spin Densities.
               1          2          3          4          5          6
     1  C    0.091696   0.000000   0.000000   0.000000   0.000000   0.000000
     2  C    0.000000  -0.133724   0.000000   0.000000   0.000000   0.000000
     3  C    0.000000   0.000000   0.056451   0.000000   0.000000   0.000000
     4  C    0.000000   0.000000   0.000000  -0.227982   0.000000   0.000000
     5  C    0.000000   0.000000   0.000000   0.000000  -0.111123   0.000000
     6  C    0.000000   0.000000   0.000000   0.000000   0.000000  -0.097721
     7  Cl   0.000000   0.000000   0.000000   0.000000   0.000000   0.000000
     8  Cl   0.000000   0.000000   0.000000   0.000000   0.000000   0.000000
     9  H    0.000000   0.000000   0.000000   0.000000   0.000000   0.000000
    10  Cl   0.000000   0.000000   0.000000   0.000000   0.000000   0.000000
    11  H    0.000000   0.000000   0.000000   0.000000   0.000000   0.000000
    12  H    0.000000   0.000000   0.000000   0.000000   0.000000   0.000000
               7          8          9         10         11         12
     1  C    0.000000   0.000000   0.000000   0.000000   0.000000   0.000000
     2  C    0.000000   0.000000   0.000000   0.000000   0.000000   0.000000
     3  C    0.000000   0.000000   0.000000   0.000000   0.000000   0.000000
     4  C    0.000000   0.000000   0.000000   0.000000   0.000000   0.000000
     5  C    0.000000   0.000000   0.000000   0.000000   0.000000   0.000000
     6  C    0.000000   0.000000   0.000000   0.000000   0.000000   0.000000
     7  Cl   0.022563   0.000000   0.000000   0.000000   0.000000   0.000000
     8  Cl   0.000000  -0.010551   0.000000   0.000000   0.000000   0.000000
     9  H    0.000000   0.000000   0.036315   0.000000   0.000000   0.000000
    10  Cl   0.000000   0.000000   0.000000   0.023233   0.000000   0.000000
    11  H    0.000000   0.000000   0.000000   0.000000   0.691128   0.000000
    12  H    0.000000   0.000000   0.000000   0.000000   0.000000   0.659714
 Mulliken charges and spin densities:
               1          2
     1  C   -0.083931   0.091696
     2  C   -0.142190  -0.133724
     3  C   -0.038488   0.056451
     4  C   -0.171746  -0.227982
     5  C   -0.173734  -0.111123
     6  C   -0.028281  -0.097721
     7  Cl  -0.114161   0.022563
     8  Cl  -0.101925  -0.010551
     9  H    0.110970   0.036315
    10  Cl  -0.130533   0.023233
    11  H   -0.071037   0.691128
    12  H   -0.054943   0.659714
 Sum of Mulliken charges =  -1.00000   1.00000
 Mulliken charges and spin densities with hydrogens summed into heavy atoms:
               1          2
     1  C   -0.083931   0.091696
     2  C   -0.031221  -0.097409
     3  C   -0.038488   0.056451
     4  C   -0.242783   0.463146
     5  C   -0.228677   0.548591
     6  C   -0.028281  -0.097721
     7  Cl  -0.114161   0.022563
     8  Cl  -0.101925  -0.010551
    10  Cl  -0.130533   0.023233
 Charge=             -1.0000 electrons
 Dipole moment (field-independent basis, Debye):
    X=              2.5287    Y=              5.4369    Z=              0.0000  Tot=              5.9962
 N-N= 2.463204445346D+02 E-N=-3.515375080719D+02  KE=-1.138234329057D+02
 Symmetry A'   KE=-8.776295326662D+01
 Symmetry A"   KE=-2.606047963911D+01
 Symmetry A'   SP= 1.000000000000D+00
 Symmetry A"   SP= 3.330669073875D-16
 Calling FoFJK, ICntrl=      2127 FMM=F ISym2X=1 I1Cent= 0 IOpClX= 1 NMat=1 NMatS=1 NMatT=0.
 ***** Axes restored to original set *****
 -------------------------------------------------------------------
 Center     Atomic                   Forces (Hartrees/Bohr)
 Number     Number              X              Y              Z
 -------------------------------------------------------------------
      1        6          -0.000081081    0.027881723    0.000000000
      2        6          -0.006487334    0.073560254    0.000000000
      3        6           0.008214065   -0.012301616    0.000000000
      4        6          -0.025256372   -0.022267552    0.000000000
      5        6           0.029049076    0.011393649    0.000000000
      6        6           0.013468928   -0.035715337    0.000000000
      7       17           0.021636014    0.013165766    0.000000000
      8       17           0.026608724   -0.010118220    0.000000000
      9        1           0.002675840   -0.117470657   -0.000000000
     10       17          -0.022704554   -0.010462914    0.000000000
     11        1          -0.045755174    0.024448751   -0.000000000
     12        1          -0.001368133    0.057886152   -0.000000000
 -------------------------------------------------------------------
 Cartesian Forces:  Max     0.117470657 RMS     0.029786780

 GradGradGradGradGradGradGradGradGradGradGradGradGradGradGradGradGradGrad
 Berny optimization.
 FormGI is forming the generalized inverse of G from B-inverse, IUseBI=4.
 Internal  Forces:  Max     0.117499838 RMS     0.025043279
 Search for a local minimum.
 Step number   1 out of a maximum of   64
 All quantities printed in internal units (Hartrees-Bohrs-Radians)
 Mixed Optimization -- RFO/linear search
 Second derivative matrix not updated -- first step.
 ITU=  0
     Eigenvalues ---    0.02011   0.02011   0.02011   0.02011   0.02011
     Eigenvalues ---    0.02011   0.02011   0.02011   0.02011   0.06524
     Eigenvalues ---    0.06524   0.06524   0.16000   0.16000   0.16000
     Eigenvalues ---    0.22374   0.23491   0.24609   0.25000   0.25000
     Eigenvalues ---    0.25000   0.29033   0.29033   0.29033   0.40810
     Eigenvalues ---    0.41112   0.44656   0.44657   0.44657   0.44657
 RFO step:  Lambda=-1.28725477D-01 EMin= 2.01065826D-02
 Linear search not attempted -- first point.
 Maximum step size (   0.300) exceeded in Quadratic search.
    -- Step size scaled by   0.394
 Iteration  1 RMS(Cart)=  0.04529919 RMS(Int)=  0.00530238
 Iteration  2 RMS(Cart)=  0.00506654 RMS(Int)=  0.00001586
 Iteration  3 RMS(Cart)=  0.00000019 RMS(Int)=  0.00001586
 ClnCor:  largest displacement from symmetrization is 6.33D-09 for atom     9.
 Variable       Old X    -DE/DX   Delta X   Delta X   Delta X     New X
                                 (Linear)    (Quad)   (Total)
    R1        2.65676  -0.03824   0.00000  -0.02533  -0.02536   2.63141
    R2        2.65677  -0.00746   0.00000  -0.00442  -0.00443   2.65233
    R3        3.33635  -0.02822   0.00000  -0.02656  -0.02656   3.30979
    R4        2.65677  -0.03130   0.00000  -0.02127  -0.02128   2.63549
    R5        3.33634  -0.11750   0.00000  -0.23896  -0.23896   3.09738
    R6        2.65677  -0.04165   0.00000  -0.02926  -0.02925   2.62752
    R7        3.33633  -0.02482   0.00000  -0.02337  -0.02337   3.31297
    R8        2.65678  -0.07162   0.00000  -0.05000  -0.04997   2.60681
    R9        3.33633  -0.05188   0.00000  -0.10550  -0.10550   3.23083
   R10        2.65675  -0.04273   0.00000  -0.02949  -0.02948   2.62727
   R11        3.33632  -0.05790   0.00000  -0.11775  -0.11775   3.21857
   R12        3.33633  -0.02533   0.00000  -0.02384  -0.02384   3.31249
    A1        2.09439  -0.00967   0.00000  -0.00791  -0.00796   2.08644
    A2        2.09439  -0.00145   0.00000  -0.00259  -0.00257   2.09182
    A3        2.09440   0.01112   0.00000   0.01050   0.01053   2.10492
    A4        2.09439   0.00490   0.00000   0.00702   0.00698   2.10138
    A5        2.09440  -0.00337   0.00000  -0.00477  -0.00475   2.08965
    A6        2.09439  -0.00153   0.00000  -0.00226  -0.00224   2.09216
    A7        2.09440  -0.00648   0.00000  -0.00786  -0.00786   2.08654
    A8        2.09440  -0.00172   0.00000  -0.00124  -0.00124   2.09316
    A9        2.09439   0.00820   0.00000   0.00910   0.00909   2.10349
   A10        2.09439   0.00804   0.00000   0.00606   0.00611   2.10050
   A11        2.09440  -0.00355   0.00000  -0.00239  -0.00241   2.09199
   A12        2.09440  -0.00449   0.00000  -0.00367  -0.00369   2.09070
   A13        2.09439   0.01161   0.00000   0.01096   0.01100   2.10540
   A14        2.09439  -0.00618   0.00000  -0.00599  -0.00601   2.08838
   A15        2.09440  -0.00543   0.00000  -0.00498  -0.00499   2.08941
   A16        2.09440  -0.00840   0.00000  -0.00827  -0.00828   2.08612
   A17        2.09439   0.00439   0.00000   0.00433   0.00433   2.09873
   A18        2.09439   0.00401   0.00000   0.00394   0.00395   2.09834
    D1        0.00000  -0.00000   0.00000  -0.00000   0.00000   0.00000
    D2        3.14159  -0.00000   0.00000  -0.00000   0.00000   3.14159
    D3        3.14159  -0.00000   0.00000  -0.00000   0.00000   3.14159
    D4        0.00000  -0.00000   0.00000  -0.00000   0.00000   0.00000
    D5        0.00000  -0.00000   0.00000  -0.00000   0.00000   0.00000
    D6        3.14159   0.00000   0.00000   0.00000   0.00000   3.14159
    D7        3.14159  -0.00000   0.00000  -0.00000   0.00000   3.14159
    D8        0.00000  -0.00000   0.00000  -0.00000   0.00000   0.00000
    D9        0.00000   0.00000   0.00000   0.00000   0.00000   0.00000
   D10        3.14159   0.00000   0.00000   0.00000   0.00000   3.14159
   D11        3.14159   0.00000   0.00000   0.00000   0.00000   3.14159
   D12        0.00000   0.00000   0.00000   0.00000   0.00000   0.00000
   D13        0.00000  -0.00000   0.00000  -0.00000   0.00000   0.00000
   D14        3.14159  -0.00000   0.00000  -0.00000   0.00000   3.14159
   D15        3.14159  -0.00000   0.00000  -0.00000   0.00000   3.14159
   D16        0.00000  -0.00000   0.00000  -0.00000   0.00000   0.00000
   D17        0.00000  -0.00000   0.00000  -0.00000   0.00000   0.00000
   D18        3.14159  -0.00000   0.00000  -0.00000   0.00000   3.14159
   D19        3.14159   0.00000   0.00000   0.00000   0.00000   3.14159
   D20        0.00000   0.00000   0.00000   0.00000   0.00000   0.00000
   D21        0.00000   0.00000   0.00000   0.00000   0.00000   0.00000
   D22        3.14159   0.00000   0.00000   0.00000   0.00000   3.14159
   D23        3.14159   0.00000   0.00000   0.00000   0.00000   3.14159
   D24        0.00000   0.00000   0.00000   0.00000   0.00000   0.00000
         Item               Value     Threshold  Converged?
 Maximum Force            0.117500     0.000450     NO 
 RMS     Force            0.025043     0.000300     NO 
 Maximum Displacement     0.262080     0.001800     NO 
 RMS     Displacement     0.049034     0.001200     NO 
 Predicted change in Energy=-4.655554D-02
 GradGradGradGradGradGradGradGradGradGradGradGradGradGradGradGradGradGrad

                          Input orientation:                          
 ---------------------------------------------------------------------
 Center     Atomic      Atomic             Coordinates (Angstroms)
 Number     Number       Type             X           Y           Z
 ---------------------------------------------------------------------
      1          6           0       -3.199399    0.201159    0.000000
      2          6           0       -2.008755    0.923216    0.000000
      3          6           0       -0.781564    0.260629    0.000000
      4          6           0       -0.752822   -1.129497    0.000000
      5          6           0       -1.928578   -1.850963    0.000000
      6          6           0       -3.158000   -1.201785    0.000000
      7         17           0       -4.645537   -2.129081    0.000000
      8         17           0       -4.732554    1.047956    0.000000
      9          1           0       -2.051839    2.561713    0.000000
     10         17           0        0.709945    1.182001    0.000000
     11          1           0        0.747143   -1.949936    0.000000
     12          1           0       -1.872742   -3.553241    0.000000
 ---------------------------------------------------------------------
                    Distance matrix (angstroms):
                    1          2          3          4          5
     1  C    0.000000
     2  C    1.392480   0.000000
     3  C    2.418567   1.394639   0.000000
     4  C    2.785029   2.406449   1.390424   0.000000
     5  C    2.413751   2.775337   2.403011   1.379462   0.000000
     6  C    1.403554   2.415862   2.790359   2.406264   1.390292
     7  Cl   2.742504   4.033501   4.543237   4.019004   2.731156
     8  Cl   1.751464   2.726654   4.028673   4.536471   4.033115
     9  H    2.624712   1.639064   2.628418   3.913116   4.414398
    10  Cl   4.030512   2.730989   1.753147   2.735455   4.020034
    11  H    4.494709   3.981203   2.687666   1.709682   2.677550
    12  H    3.981901   4.478522   3.966898   2.669973   1.703193
                    6          7          8          9         10
     6  C    0.000000
     7  Cl   1.752896   0.000000
     8  Cl   2.746007   3.178228   0.000000
     9  H    3.922691   5.360114   3.078586   0.000000
    10  Cl   4.543505   6.296384   5.444150   3.087241   0.000000
    11  H    3.976163   5.395654   6.246153   5.309358   3.132158
    12  H    2.679782   3.117149   5.417521   6.117576   5.393773
                   11         12
    11  H    0.000000
    12  H    3.071544   0.000000
 Stoichiometry    C6H3Cl3(1-,2)
 Framework group  CS[SG(C6H3Cl3)]
 Deg. of freedom    21
 Full point group                 CS      NOp   2
 Largest Abelian subgroup         CS      NOp   2
 Largest concise Abelian subgroup C1      NOp   1
                         Standard orientation:                         
 ---------------------------------------------------------------------
 Center     Atomic      Atomic             Coordinates (Angstroms)
 Number     Number       Type             X           Y           Z
 ---------------------------------------------------------------------
      1          6           0        0.000000    0.840186   -0.000000
      2          6           0        1.203032    0.138962   -0.000000
      3          6           0        1.206999   -1.255671   -0.000000
      4          6           0       -0.000610   -1.944843    0.000000
      5          6           0       -1.196012   -1.256417    0.000000
      6          6           0       -1.212825    0.133773    0.000000
      7         17           0       -2.737970    0.997819    0.000000
      8         17           0        0.011750    2.591611   -0.000000
      9          1           0        2.622005    0.959356   -0.000000
     10         17           0        2.728837   -2.126036   -0.000000
     11          1           0       -0.005053   -3.654519    0.000000
     12          1           0       -2.664931   -2.118475    0.000000
 ---------------------------------------------------------------------
 Rotational constants (GHZ):           1.7966127           0.5851915           0.4414143
 Standard basis: VSTO-6G (5D, 7F)
 There are    30 symmetry adapted cartesian basis functions of A'  symmetry.
 There are     9 symmetry adapted cartesian basis functions of A"  symmetry.
 There are    30 symmetry adapted basis functions of A'  symmetry.
 There are     9 symmetry adapted basis functions of A"  symmetry.
    39 basis functions,   234 primitive gaussians,    39 cartesian basis functions
    25 alpha electrons       24 beta electrons
       nuclear repulsion energy       247.8655978134 Hartrees.
 Integral buffers will be    131072 words long.
 Regular integral format.
 Two-electron integral symmetry is turned off.
 Do NDO integrals.
 One-electron integrals computed using PRISM.
 NBasis=    39 RedAO= T EigKep=  1.00D+00  NBF=    30     9
 NBsUse=    39 1.00D-06 EigRej= -1.00D+00 NBFU=    30     9
 Initial guess from the checkpoint file:  "geometry_chks/124ClBzAnionRadical.chk"
 B after Tr=     0.000000   -0.000000    0.000000
         Rot=    1.000000   -0.000000    0.000000   -0.000912 Ang=  -0.10 deg.
 Initial guess orbital symmetries:
 Alpha Orbitals:
       Occupied  (A') (A') (A') (A') (A') (A') (A') (A') (A') (A')
                 (A') (A") (A') (A") (A") (A') (A') (A') (A') (A")
                 (A') (A') (A") (A") (A')
       Virtual   (A') (A') (A") (A") (A') (A') (A') (A") (A') (A')
                 (A') (A') (A') (A')
 Beta  Orbitals:
       Occupied  (A') (A') (A') (A') (A') (A') (A') (A') (A') (A')
                 (A') (A") (A') (A") (A") (A') (A') (A') (A') (A")
                 (A') (A") (A") (A')
       Virtual   (A') (A") (A") (A') (A') (A') (A') (A") (A') (A')
                 (A') (A') (A') (A') (A')
 Initial guess <Sx>= 0.0000 <Sy>= 0.0000 <Sz>= 0.5000 <S**2>= 1.0809 S= 0.6537
 Keep J ints in memory in canonical form, NReq=863709.
 Overlap will be assumed to be unity.
 Requested convergence on RMS density matrix=1.00D-08 within  32 cycles.
 Requested convergence on MAX density matrix=1.00D-06.
 Requested convergence on             energy=1.00D-06.
 No special actions if energy rises.
 Fock symm off for IB=2 I1=    1 I=   31 J=   22 Cut=1.00D-07 Err=3.32D-03
 Fock matrix is not symmetric: symmetry in diagonalization turned off.
 Rare condition: small coef for last iteration:  0.000D+00
 Rare condition: small coef for last iteration:  0.000D+00
 Rare condition: small coef for last iteration:  0.000D+00
 Rare condition: small coef for last iteration:  0.000D+00
 >>>>>>>>>> Convergence criterion not met.
 SCF Done:  E(UAM1) =  0.287078217771     A.U. after   33 cycles
            NFock= 32  Conv=0.29D-07     -V/T= 1.0025
 <Sx>= 0.0000 <Sy>= 0.0000 <Sz>= 0.5000 <S**2>= 0.9804 S= 0.6092
 <L.S>=  0.00000000000    
 Annihilation of the first spin contaminant:
 S**2 before annihilation     0.9804,   after     0.7552
 Keep J ints in memory in canonical form, NReq=864109.
 SCF Done:  E(UAM1) =  0.287078217771     a.u. after    1 cycles
            Convg  =    0.3982D-07                     1 Fock formations.
              S**2 =  0.9804                  -V/T =  1.0025
 <Sx>= 0.0000 <Sy>= 0.0000 <Sz>= 0.5000 <S**2>= 0.9804 S= 0.6092
 <L.S>=  0.00000000000    
 Annihilation of the first spin contaminant:
 S**2 before annihilation     0.9804,   after     0.7552
 Calling FoFJK, ICntrl=      2127 FMM=F ISym2X=1 I1Cent= 0 IOpClX= 1 NMat=1 NMatS=1 NMatT=0.
 ***** Axes restored to original set *****
 -------------------------------------------------------------------
 Center     Atomic                   Forces (Hartrees/Bohr)
 Number     Number              X              Y              Z
 -------------------------------------------------------------------
      1        6          -0.009372207    0.021826118    0.000000000
      2        6          -0.006207683    0.101024445    0.000000000
      3        6           0.017447450   -0.002853433    0.000000000
      4        6           0.011289206   -0.031384934    0.000000000
      5        6           0.020648303   -0.020560756    0.000000000
      6        6           0.000817737   -0.029491650    0.000000000
      7       17           0.015713374    0.010391413    0.000000000
      8       17           0.019747280   -0.007645343    0.000000000
      9        1           0.002753572   -0.122417826   -0.000000000
     10       17          -0.016353724   -0.006911964    0.000000000
     11        1          -0.054737617    0.029642783   -0.000000000
     12        1          -0.001745693    0.058381148   -0.000000000
 -------------------------------------------------------------------
 Cartesian Forces:  Max     0.122417826 RMS     0.032211006

 GradGradGradGradGradGradGradGradGradGradGradGradGradGradGradGradGradGrad
 Berny optimization.
 Using GEDIIS/GDIIS optimizer.
 FormGI is forming the generalized inverse of G from B-inverse, IUseBI=4.
 Internal  Forces:  Max     0.122447907 RMS     0.022209871
 Search for a local minimum.
 Step number   2 out of a maximum of   64
 All quantities printed in internal units (Hartrees-Bohrs-Radians)
 Mixed Optimization -- RFO/linear search
 Update second derivatives using D2CorX and points    1    2
 DE= -4.99D-02 DEPred=-4.66D-02 R= 1.07D+00
 TightC=F SS=  1.41D+00  RLast= 3.00D-01 DXNew= 5.0454D-01 9.0000D-01
 Trust test= 1.07D+00 RLast= 3.00D-01 DXMaxT set to 5.05D-01
 ITU=  1  0
 Use linear search instead of GDIIS.
 Linear search step of   0.600 exceeds DXMaxT=   0.505 but not scaled.
 Quartic linear search produced a step of  2.00000.
 Iteration  1 RMS(Cart)=  0.07098840 RMS(Int)=  0.03816301
 Iteration  2 RMS(Cart)=  0.02692639 RMS(Int)=  0.01060521
 Iteration  3 RMS(Cart)=  0.01015325 RMS(Int)=  0.00009748
 Iteration  4 RMS(Cart)=  0.00000003 RMS(Int)=  0.00009748
 ClnCor:  largest displacement from symmetrization is 7.83D-09 for atom     9.
 Variable       Old X    -DE/DX   Delta X   Delta X   Delta X     New X
                                 (Linear)    (Quad)   (Total)
    R1        2.63141  -0.01673  -0.05071   0.00000  -0.05089   2.58052
    R2        2.65233   0.00216  -0.00887   0.00000  -0.00898   2.64335
    R3        3.30979  -0.02098  -0.05312   0.00000  -0.05312   3.25667
    R4        2.63549  -0.01216  -0.04256   0.00000  -0.04262   2.59286
    R5        3.09738  -0.12245  -0.47792   0.00000  -0.47792   2.61946
    R6        2.62752  -0.01929  -0.05849   0.00000  -0.05838   2.56915
    R7        3.31297  -0.01755  -0.04673   0.00000  -0.04673   3.26624
    R8        2.60681  -0.03950  -0.09995   0.00000  -0.09977   2.50703
    R9        3.23083  -0.06225  -0.21100   0.00000  -0.21100   3.01983
   R10        2.62727  -0.02090  -0.05896   0.00000  -0.05889   2.56838
   R11        3.21857  -0.05841  -0.23551   0.00000  -0.23551   2.98306
   R12        3.31249  -0.01883  -0.04768   0.00000  -0.04768   3.26481
    A1        2.08644  -0.00578  -0.01591   0.00000  -0.01620   2.07024
    A2        2.09182  -0.00184  -0.00514   0.00000  -0.00499   2.08683
    A3        2.10492   0.00761   0.02105   0.00000   0.02120   2.12612
    A4        2.10138   0.00387   0.01397   0.00000   0.01373   2.11511
    A5        2.08965  -0.00265  -0.00949   0.00000  -0.00938   2.08027
    A6        2.09216  -0.00121  -0.00447   0.00000  -0.00436   2.08780
    A7        2.08654  -0.00668  -0.01571   0.00000  -0.01565   2.07089
    A8        2.09316  -0.00115  -0.00248   0.00000  -0.00251   2.09065
    A9        2.10349   0.00784   0.01819   0.00000   0.01816   2.12165
   A10        2.10050   0.00722   0.01221   0.00000   0.01250   2.11299
   A11        2.09199  -0.00319  -0.00483   0.00000  -0.00497   2.08701
   A12        2.09070  -0.00403  -0.00738   0.00000  -0.00752   2.08318
   A13        2.10540   0.00766   0.02200   0.00000   0.02223   2.12763
   A14        2.08838  -0.00410  -0.01201   0.00000  -0.01213   2.07625
   A15        2.08941  -0.00356  -0.00999   0.00000  -0.01010   2.07930
   A16        2.08612  -0.00629  -0.01656   0.00000  -0.01661   2.06951
   A17        2.09873   0.00231   0.00867   0.00000   0.00869   2.10742
   A18        2.09834   0.00398   0.00789   0.00000   0.00792   2.10625
    D1        0.00000  -0.00000   0.00000   0.00000   0.00000   0.00000
    D2        3.14159  -0.00000   0.00000   0.00000   0.00000   3.14159
    D3        3.14159  -0.00000   0.00000   0.00000   0.00000   3.14159
    D4        0.00000  -0.00000   0.00000   0.00000  -0.00000   0.00000
    D5       -0.00000  -0.00000   0.00000   0.00000   0.00000   0.00000
    D6        3.14159   0.00000   0.00000   0.00000   0.00000   3.14159
    D7        3.14159  -0.00000   0.00000   0.00000   0.00000   3.14159
    D8        0.00000  -0.00000   0.00000   0.00000   0.00000   0.00000
    D9       -0.00000   0.00000   0.00000   0.00000   0.00000   0.00000
   D10        3.14159   0.00000   0.00000   0.00000   0.00000   3.14159
   D11        3.14159   0.00000   0.00000   0.00000   0.00000   3.14159
   D12        0.00000   0.00000   0.00000   0.00000   0.00000   0.00000
   D13        0.00000  -0.00000   0.00000   0.00000  -0.00000   0.00000
   D14        3.14159  -0.00000   0.00000   0.00000   0.00000   3.14159
   D15        3.14159  -0.00000   0.00000   0.00000   0.00000   3.14159
   D16       -0.00000  -0.00000   0.00000   0.00000   0.00000   0.00000
   D17       -0.00000  -0.00000   0.00000   0.00000   0.00000   0.00000
   D18        3.14159  -0.00000   0.00000   0.00000   0.00000   3.14159
   D19        3.14159   0.00000   0.00000   0.00000   0.00000   3.14159
   D20        0.00000  -0.00000   0.00000   0.00000  -0.00000   0.00000
   D21        0.00000   0.00000   0.00000   0.00000  -0.00000   0.00000
   D22        3.14159   0.00000   0.00000   0.00000   0.00000   3.14159
   D23        3.14159   0.00000   0.00000   0.00000   0.00000   3.14159
   D24       -0.00000   0.00000   0.00000   0.00000   0.00000   0.00000
         Item               Value     Threshold  Converged?
 Maximum Force            0.122448     0.000450     NO 
 RMS     Force            0.022210     0.000300     NO 
 Maximum Displacement     0.523734     0.001800     NO 
 RMS     Displacement     0.098024     0.001200     NO 
 Predicted change in Energy=-9.251863D-02
 GradGradGradGradGradGradGradGradGradGradGradGradGradGradGradGradGradGrad

                          Input orientation:                          
 ---------------------------------------------------------------------
 Center     Atomic      Atomic             Coordinates (Angstroms)
 Number     Number       Type             X           Y           Z
 ---------------------------------------------------------------------
      1          6           0       -3.179257    0.204670    0.000000
      2          6           0       -2.003280    0.898796    0.000000
      3          6           0       -0.794755    0.249117    0.000000
      4          6           0       -0.785466   -1.110384    0.000000
      5          6           0       -1.917153   -1.802716   -0.000000
      6          6           0       -3.132011   -1.193334   -0.000000
      7         17           0       -4.586156   -2.126226   -0.000000
      8         17           0       -4.673496    1.063272    0.000000
      9          1           0       -2.036194    2.284565    0.000000
     10         17           0        0.671777    1.163838    0.000000
     11          1           0        0.609681   -1.889644   -0.000000
     12          1           0       -1.848389   -3.379785   -0.000000
 ---------------------------------------------------------------------
                    Distance matrix (angstroms):
                    1          2          3          4          5
     1  C    0.000000
     2  C    1.365552   0.000000
     3  C    2.384916   1.372084   0.000000
     4  C    2.731227   2.349441   1.359533   0.000000
     5  C    2.371182   2.702884   2.338760   1.326664   0.000000
     6  C    1.398802   2.377192   2.746531   2.348011   1.359127
     7  Cl   2.722580   3.977689   4.474033   3.934104   2.688537
     8  Cl   1.723353   2.675276   3.963265   4.454385   3.976343
     9  H    2.373301   1.386160   2.384159   3.618010   4.089014
    10  Cl   3.968685   2.688155   1.728419   2.701045   3.937385
    11  H    4.329226   3.821382   2.558660   1.598024   2.528329
    12  H    3.823549   4.281383   3.778766   2.505990   1.578567
                    6          7          8          9         10
     6  C    0.000000
     7  Cl   1.727664   0.000000
     8  Cl   2.732845   3.190693   0.000000
     9  H    3.646450   5.094839   2.906358   0.000000
    10  Cl   4.474937   6.202450   5.346218   2.930722   0.000000
    11  H    3.805931   5.201220   6.052410   4.942133   3.054114
    12  H    2.535400   3.011108   5.265166   5.667462   5.195743
                   11         12
    11  H    0.000000
    12  H    2.874478   0.000000
 Stoichiometry    C6H3Cl3(1-,2)
 Framework group  CS[SG(C6H3Cl3)]
 Deg. of freedom    21
 Full point group                 CS      NOp   2
 Largest Abelian subgroup         CS      NOp   2
 Largest concise Abelian subgroup C1      NOp   1
                         Standard orientation:                         
 ---------------------------------------------------------------------
 Center     Atomic      Atomic             Coordinates (Angstroms)
 Number     Number       Type             X           Y           Z
 ---------------------------------------------------------------------
      1          6           0        0.000000    0.836398    0.000000
      2          6           0        1.174258    0.139369    0.000000
      3          6           0        1.186088   -1.232664    0.000000
      4          6           0       -0.001291   -1.894829    0.000000
      5          6           0       -1.152669   -1.235764    0.000000
      6          6           0       -1.202873    0.122435    0.000000
      7         17           0       -2.720273    0.948464    0.000000
      8         17           0        0.033879    2.559418    0.000000
      9          1           0        2.373300    0.834881    0.000000
     10         17           0        2.693516   -2.078295    0.000000
     11          1           0       -0.013283   -3.492808    0.000000
     12          1           0       -2.502173   -2.054735    0.000000
 ---------------------------------------------------------------------
 Rotational constants (GHZ):           1.8329572           0.6070071           0.4559976
 Standard basis: VSTO-6G (5D, 7F)
 There are    30 symmetry adapted cartesian basis functions of A'  symmetry.
 There are     9 symmetry adapted cartesian basis functions of A"  symmetry.
 There are    30 symmetry adapted basis functions of A'  symmetry.
 There are     9 symmetry adapted basis functions of A"  symmetry.
    39 basis functions,   234 primitive gaussians,    39 cartesian basis functions
    25 alpha electrons       24 beta electrons
       nuclear repulsion energy       251.1061128679 Hartrees.
 Integral buffers will be    131072 words long.
 Regular integral format.
 Two-electron integral symmetry is turned off.
 Do NDO integrals.
 One-electron integrals computed using PRISM.
 NBasis=    39 RedAO= T EigKep=  1.00D+00  NBF=    30     9
 NBsUse=    39 1.00D-06 EigRej= -1.00D+00 NBFU=    30     9
 Initial guess from the checkpoint file:  "geometry_chks/124ClBzAnionRadical.chk"
 B after Tr=    -0.000000    0.000000    0.000000
         Rot=    0.999998    0.000000   -0.000000   -0.002025 Ang=  -0.23 deg.
 Initial guess orbital symmetries:
 Alpha Orbitals:
       Occupied  (A') (A') (A') (A') (A') (A') (A') (A') (A') (A')
                 (A') (A") (A') (A") (A") (A') (A') (A') (A') (A")
                 (A') (A') (A") (A") (A')
       Virtual   (A') (A") (A') (A") (A') (A') (A') (A") (A') (A')
                 (A') (A') (A') (A')
 Beta  Orbitals:
       Occupied  (A') (A') (A') (A') (A') (A') (A') (A') (A') (A')
                 (A') (A") (A') (A") (A") (A') (A') (A') (A') (A")
                 (A') (A") (A") (A')
       Virtual   (A') (A") (A") (A') (A') (A') (A') (A") (A') (A')
                 (A') (A') (A') (A') (A')
 Initial guess <Sx>= 0.0000 <Sy>= 0.0000 <Sz>= 0.5000 <S**2>= 0.9804 S= 0.6092
 Keep J ints in memory in canonical form, NReq=863709.
 Overlap will be assumed to be unity.
 Requested convergence on RMS density matrix=1.00D-08 within  32 cycles.
 Requested convergence on MAX density matrix=1.00D-06.
 Requested convergence on             energy=1.00D-06.
 No special actions if energy rises.
 Fock symm off for IB=2 I1=    1 I=   31 J=   22 Cut=1.00D-07 Err=3.31D-03
 Fock matrix is not symmetric: symmetry in diagonalization turned off.
 Rare condition: small coef for last iteration:  0.000D+00
 Rare condition: small coef for last iteration:  0.000D+00
 Rare condition: small coef for last iteration:  0.000D+00
 >>>>>>>>>> Convergence criterion not met.
 SCF Done:  E(UAM1) =  0.201523010282     A.U. after   33 cycles
            NFock= 32  Conv=0.70D-08     -V/T= 1.0018
 <Sx>= 0.0000 <Sy>= 0.0000 <Sz>= 0.5000 <S**2>= 0.8644 S= 0.5557
 <L.S>=  0.00000000000    
 Annihilation of the first spin contaminant:
 S**2 before annihilation     0.8644,   after     0.7536
 Keep J ints in memory in canonical form, NReq=864109.
 SCF Done:  E(UAM1) =  0.201523010282     a.u. after    1 cycles
            Convg  =    0.7485D-08                     1 Fock formations.
              S**2 =  0.8644                  -V/T =  1.0018
 <Sx>= 0.0000 <Sy>= 0.0000 <Sz>= 0.5000 <S**2>= 0.8644 S= 0.5557
 <L.S>=  0.00000000000    
 Annihilation of the first spin contaminant:
 S**2 before annihilation     0.8644,   after     0.7536
 Calling FoFJK, ICntrl=      2127 FMM=F ISym2X=1 I1Cent= 0 IOpClX= 1 NMat=1 NMatS=1 NMatT=0.
 ***** Axes restored to original set *****
 -------------------------------------------------------------------
 Center     Atomic                   Forces (Hartrees/Bohr)
 Number     Number              X              Y              Z
 -------------------------------------------------------------------
      1        6          -0.033478074    0.004920748    0.000000000
      2        6          -0.003319497    0.139525068    0.000000000
      3        6           0.038807114    0.018674784    0.000000000
      4        6           0.095708580   -0.048965322    0.000000000
      5        6          -0.004644096   -0.086943437    0.000000000
      6        6          -0.029901339   -0.016631162    0.000000000
      7       17           0.001781955    0.003425164   -0.000000000
      8       17           0.004407420   -0.001844954    0.000000000
      9        1           0.002400091   -0.105205134   -0.000000000
     10       17          -0.001997159    0.001018460    0.000000000
     11        1          -0.067101034    0.037636702   -0.000000000
     12        1          -0.002663961    0.054389082   -0.000000000
 -------------------------------------------------------------------
 Cartesian Forces:  Max     0.139525068 RMS     0.041762600

 GradGradGradGradGradGradGradGradGradGradGradGradGradGradGradGradGradGrad
 Berny optimization.
 Using GEDIIS/GDIIS optimizer.
 FormGI is forming the generalized inverse of G from B-inverse, IUseBI=4.
 Internal  Forces:  Max     0.105232461 RMS     0.022266962
 Search for a local minimum.
 Step number   3 out of a maximum of   64
 All quantities printed in internal units (Hartrees-Bohrs-Radians)
 Mixed Optimization -- RFO/linear search
 Update second derivatives using D2CorX and points    2    3
 ITU=  0  1  0
 Use linear search instead of GDIIS.
 Linear search step of   0.601 exceeds DXMaxT=   0.505 but not scaled.
 Quartic linear search produced a step of  1.00090.
 Iteration  1 RMS(Cart)=  0.07098800 RMS(Int)=  0.03822576
 Iteration  2 RMS(Cart)=  0.02693548 RMS(Int)=  0.01066414
 Iteration  3 RMS(Cart)=  0.01020927 RMS(Int)=  0.00013545
 Iteration  4 RMS(Cart)=  0.00000006 RMS(Int)=  0.00013545
 ClnCor:  largest displacement from symmetrization is 1.19D-08 for atom    10.
 Variable       Old X    -DE/DX   Delta X   Delta X   Delta X     New X
                                 (Linear)    (Quad)   (Total)
    R1        2.58052   0.03658  -0.05093   0.00000  -0.05118   2.52934
    R2        2.64335   0.02367  -0.00899   0.00000  -0.00915   2.63420
    R3        3.25667  -0.00474  -0.05317   0.00000  -0.05317   3.20349
    R4        2.59286   0.03397  -0.04266   0.00000  -0.04275   2.55012
    R5        2.61946  -0.10523  -0.47835   0.00000  -0.47835   2.14111
    R6        2.56915   0.03333  -0.05843   0.00000  -0.05826   2.51089
    R7        3.26624  -0.00116  -0.04677   0.00000  -0.04677   3.21947
    R8        2.50703   0.04068  -0.09986   0.00000  -0.09962   2.40742
    R9        3.01983  -0.07694  -0.21119   0.00000  -0.21119   2.80864
   R10        2.56838   0.02875  -0.05895   0.00000  -0.05885   2.50953
   R11        2.98306  -0.05445  -0.23572   0.00000  -0.23572   2.74734
   R12        3.26481  -0.00335  -0.04772   0.00000  -0.04772   3.21709
    A1        2.07024   0.00452  -0.01622   0.00000  -0.01662   2.05361
    A2        2.08683  -0.00323  -0.00500   0.00000  -0.00480   2.08204
    A3        2.12612  -0.00129   0.02121   0.00000   0.02142   2.14754
    A4        2.11511   0.00099   0.01375   0.00000   0.01343   2.12854
    A5        2.08027  -0.00062  -0.00939   0.00000  -0.00923   2.07104
    A6        2.08780  -0.00036  -0.00436   0.00000  -0.00420   2.08360
    A7        2.07089  -0.00592  -0.01567   0.00000  -0.01559   2.05530
    A8        2.09065  -0.00018  -0.00251   0.00000  -0.00255   2.08810
    A9        2.12165   0.00610   0.01818   0.00000   0.01814   2.13979
   A10        2.11299   0.00182   0.01251   0.00000   0.01290   2.12589
   A11        2.08701  -0.00112  -0.00498   0.00000  -0.00517   2.08184
   A12        2.08318  -0.00070  -0.00753   0.00000  -0.00773   2.07545
   A13        2.12763   0.00038   0.02225   0.00000   0.02257   2.15020
   A14        2.07625   0.00024  -0.01214   0.00000  -0.01230   2.06395
   A15        2.07930  -0.00063  -0.01011   0.00000  -0.01027   2.06903
   A16        2.06951  -0.00179  -0.01662   0.00000  -0.01669   2.05282
   A17        2.10742  -0.00224   0.00870   0.00000   0.00874   2.11615
   A18        2.10625   0.00403   0.00792   0.00000   0.00796   2.11421
    D1        0.00000  -0.00000   0.00000   0.00000   0.00000   0.00000
    D2        3.14159  -0.00000   0.00000   0.00000   0.00000   3.14159
    D3        3.14159  -0.00000   0.00000   0.00000   0.00000   3.14159
    D4       -0.00000  -0.00000   0.00000   0.00000   0.00000   0.00000
    D5       -0.00000  -0.00000   0.00000   0.00000   0.00000   0.00000
    D6        3.14159   0.00000   0.00000   0.00000   0.00000   3.14159
    D7        3.14159  -0.00000   0.00000   0.00000   0.00000   3.14159
    D8        0.00000   0.00000   0.00000   0.00000  -0.00000   0.00000
    D9       -0.00000   0.00000   0.00000   0.00000   0.00000   0.00000
   D10        3.14159   0.00000   0.00000   0.00000   0.00000   3.14159
   D11        3.14159   0.00000   0.00000   0.00000   0.00000   3.14159
   D12        0.00000   0.00000   0.00000   0.00000  -0.00000   0.00000
   D13        0.00000  -0.00000   0.00000   0.00000   0.00000   0.00000
   D14        3.14159  -0.00000   0.00000   0.00000   0.00000   3.14159
   D15        3.14159  -0.00000   0.00000   0.00000   0.00000   3.14159
   D16       -0.00000  -0.00000   0.00000   0.00000   0.00000   0.00000
   D17       -0.00000  -0.00000   0.00000   0.00000   0.00000   0.00000
   D18        3.14159  -0.00000   0.00000   0.00000   0.00000   3.14159
   D19        3.14159   0.00000   0.00000   0.00000   0.00000   3.14159
   D20        0.00000  -0.00000   0.00000   0.00000   0.00000   0.00000
   D21        0.00000   0.00000   0.00000   0.00000  -0.00000   0.00000
   D22        3.14159  -0.00000   0.00000   0.00000   0.00000   3.14159
   D23        3.14159   0.00000   0.00000   0.00000   0.00000   3.14159
   D24       -0.00000   0.00000   0.00000   0.00000   0.00000   0.00000
         Item               Value     Threshold  Converged?
 Maximum Force            0.105232     0.000450     NO 
 RMS     Force            0.022267     0.000300     NO 
 Maximum Displacement     0.523639     0.001800     NO 
 RMS     Displacement     0.098050     0.001200     NO 
 Predicted change in Energy=-5.475646D-02
 GradGradGradGradGradGradGradGradGradGradGradGradGradGradGradGradGradGrad

                          Input orientation:                          
 ---------------------------------------------------------------------
 Center     Atomic      Atomic             Coordinates (Angstroms)
 Number     Number       Type             X           Y           Z
 ---------------------------------------------------------------------
      1          6           0       -3.158566    0.208280    0.000000
      2          6           0       -1.997788    0.874686    0.000000
      3          6           0       -0.808315    0.237344    0.000000
      4          6           0       -0.818128   -1.091324    0.000000
      5          6           0       -1.905723   -1.754714   -0.000000
      6          6           0       -3.105131   -1.184656   -0.000000
      7         17           0       -4.525671   -2.122881   -0.000000
      8         17           0       -4.613963    1.077520    0.000000
      9          1           0       -2.021480    2.007467    0.000000
     10         17           0        0.633673    1.144623    0.000000
     11          1           0        0.472840   -1.827794   -0.000000
     12          1           0       -1.826447   -3.206380   -0.000000
 ---------------------------------------------------------------------
                    Distance matrix (angstroms):
                    1          2          3          4          5
     1  C    0.000000
     2  C    1.338470   0.000000
     3  C    2.350430   1.349463   0.000000
     4  C    2.677054   2.292770   1.328704   0.000000
     5  C    2.328724   2.631011   2.274334   1.273950   0.000000
     6  C    1.393960   2.338183   2.701379   2.288907   1.327985
     7  Cl   2.702460   3.921174   4.403340   3.848375   2.645690
     8  Cl   1.695216   2.624026   3.897287   4.371755   3.918687
     9  H    2.128389   1.133029   2.145951   3.324239   3.763961
    10  Cl   3.906125   2.645270   1.703668   2.665930   3.854177
    11  H    4.163257   3.661612   2.430258   1.486266   2.379686
    12  H    3.665303   4.084661   3.591075   2.343110   1.453829
                    6          7          8          9         10
     6  C    0.000000
     7  Cl   1.702410   0.000000
     8  Cl   2.719193   3.201619   0.000000
     9  H    3.371046   4.830192   2.754227   0.000000
    10  Cl   4.405020   6.106997   5.248065   2.791835   0.000000
    11  H    3.635314   5.007214   5.858021   4.575026   2.976765
    12  H    2.392154   2.908571   5.110973   5.217493   4.998341
                   11         12
    11  H    0.000000
    12  H    2.680898   0.000000
 Stoichiometry    C6H3Cl3(1-,2)
 Framework group  CS[SG(C6H3Cl3)]
 Deg. of freedom    21
 Full point group                 CS      NOp   2
 Largest Abelian subgroup         CS      NOp   2
 Largest concise Abelian subgroup C1      NOp   1
                         Standard orientation:                         
 ---------------------------------------------------------------------
 Center     Atomic      Atomic             Coordinates (Angstroms)
 Number     Number       Type             X           Y           Z
 ---------------------------------------------------------------------
      1          6           0        0.000000    0.832637    0.000000
      2          6           0        1.145781    0.140765    0.000000
      3          6           0        1.165355   -1.208556    0.000000
      4          6           0       -0.001323   -1.844417   -0.000000
      5          6           0       -1.108970   -1.215079   -0.000000
      6          6           0       -1.192203    0.110295   -0.000000
      7         17           0       -2.701682    0.897489   -0.000000
      8         17           0        0.054240    2.526986    0.000000
      9          1           0        2.124905    0.710915    0.000000
     10         17           0        2.658174   -2.029516    0.000000
     11          1           0       -0.019208   -3.330575   -0.000000
     12          1           0       -2.339998   -1.988506   -0.000000
 ---------------------------------------------------------------------
 Rotational constants (GHZ):           1.8699785           0.6302638           0.4713862
 Standard basis: VSTO-6G (5D, 7F)
 There are    30 symmetry adapted cartesian basis functions of A'  symmetry.
 There are     9 symmetry adapted cartesian basis functions of A"  symmetry.
 There are    30 symmetry adapted basis functions of A'  symmetry.
 There are     9 symmetry adapted basis functions of A"  symmetry.
    39 basis functions,   234 primitive gaussians,    39 cartesian basis functions
    25 alpha electrons       24 beta electrons
       nuclear repulsion energy       254.5781277045 Hartrees.
 Integral buffers will be    131072 words long.
 Regular integral format.
 Two-electron integral symmetry is turned off.
 Do NDO integrals.
 One-electron integrals computed using PRISM.
 NBasis=    39 RedAO= T EigKep=  1.00D+00  NBF=    30     9
 NBsUse=    39 1.00D-06 EigRej= -1.00D+00 NBFU=    30     9
 Initial guess from the checkpoint file:  "geometry_chks/124ClBzAnionRadical.chk"
 B after Tr=     0.000000   -0.000000   -0.000000
         Rot=    0.999997   -0.000000   -0.000000   -0.002296 Ang=  -0.26 deg.
 Initial guess orbital symmetries:
 Alpha Orbitals:
       Occupied  (A') (A') (A') (A') (A') (A') (A') (A') (A') (A')
                 (A') (A") (A') (A") (A') (A") (A') (A') (A') (A")
                 (A') (A') (A") (A") (A')
       Virtual   (A") (A') (A") (A') (A') (A') (A') (A") (A') (A')
                 (A') (A') (A') (A')
 Beta  Orbitals:
       Occupied  (A') (A') (A') (A') (A') (A') (A') (A') (A') (A')
                 (A') (A") (A') (A") (A') (A") (A') (A') (A') (A")
                 (A') (A") (A") (A')
       Virtual   (A") (A") (A') (A') (A') (A') (A') (A") (A') (A')
                 (A') (A') (A') (A') (A')
 Initial guess <Sx>= 0.0000 <Sy>= 0.0000 <Sz>= 0.5000 <S**2>= 0.8644 S= 0.5557
 Keep J ints in memory in canonical form, NReq=863709.
 Overlap will be assumed to be unity.
 Requested convergence on RMS density matrix=1.00D-08 within  32 cycles.
 Requested convergence on MAX density matrix=1.00D-06.
 Requested convergence on             energy=1.00D-06.
 No special actions if energy rises.
 Fock symm off for IB=2 I1=    1 I=   31 J=   22 Cut=1.00D-07 Err=3.81D-03
 Fock matrix is not symmetric: symmetry in diagonalization turned off.
 Rare condition: small coef for last iteration:  0.000D+00
 Rare condition: small coef for last iteration:  0.000D+00
 Rare condition: small coef for last iteration:  0.000D+00
 Rare condition: small coef for last iteration:  0.000D+00
 Rare condition: small coef for last iteration:  0.000D+00
 Rare condition: small coef for last iteration:  0.000D+00
 >>>>>>>>>> Convergence criterion not met.
 SCF Done:  E(UAM1) =  0.163225269944     A.U. after   33 cycles
            NFock= 32  Conv=0.18D-04     -V/T= 1.0014
 <Sx>= 0.0000 <Sy>= 0.0000 <Sz>= 0.5000 <S**2>= 0.8068 S= 0.5280
 <L.S>=  0.00000000000    
 Annihilation of the first spin contaminant:
 S**2 before annihilation     0.8068,   after     0.7514
 Keep J ints in memory in canonical form, NReq=864109.
 LinEq1:  Iter=  0 NonCon=     1 RMS=1.71D-06 Max=3.24D-05 NDo=     1
 AX will form     1 AO Fock derivatives at one time.
 LinEq1:  Iter=  1 NonCon=     1 RMS=3.94D-07 Max=7.11D-06 NDo=     1
 LinEq1:  Iter=  2 NonCon=     1 RMS=1.61D-07 Max=1.58D-06 NDo=     1
 LinEq1:  Iter=  3 NonCon=     1 RMS=5.71D-08 Max=8.61D-07 NDo=     1
 LinEq1:  Iter=  4 NonCon=     1 RMS=1.55D-08 Max=2.05D-07 NDo=     1
 LinEq1:  Iter=  5 NonCon=     1 RMS=3.69D-09 Max=4.38D-08 NDo=     1
 LinEq1:  Iter=  6 NonCon=     1 RMS=8.90D-10 Max=8.80D-09 NDo=     1
 LinEq1:  Iter=  7 NonCon=     1 RMS=2.39D-10 Max=2.41D-09 NDo=     1
 LinEq1:  Iter=  8 NonCon=     0 RMS=7.20D-11 Max=7.04D-10 NDo=     1
 Linear equations converged to 1.576D-10 1.576D-09 after     8 iterations.
 LinEq1:  Iter=  0 NonCon=     1 RMS=1.49D-07 Max=1.47D-06 NDo=     1
 LinEq1:  Iter=  1 NonCon=     1 RMS=5.74D-08 Max=6.01D-07 NDo=     1
 LinEq1:  Iter=  2 NonCon=     1 RMS=1.26D-08 Max=9.86D-08 NDo=     1
 LinEq1:  Iter=  3 NonCon=     1 RMS=3.07D-09 Max=3.35D-08 NDo=     1
 LinEq1:  Iter=  4 NonCon=     1 RMS=7.56D-10 Max=7.41D-09 NDo=     1
 LinEq1:  Iter=  5 NonCon=     1 RMS=2.57D-10 Max=3.25D-09 NDo=     1
 LinEq1:  Iter=  6 NonCon=     1 RMS=7.84D-11 Max=1.41D-09 NDo=     1
 LinEq1:  Iter=  7 NonCon=     1 RMS=2.84D-11 Max=2.35D-10 NDo=     1
 LinEq1:  Iter=  8 NonCon=     0 RMS=8.60D-12 Max=1.08D-10 NDo=     1
 Linear equations converged to 2.735D-11 2.735D-10 after     8 iterations.
 LinEq1:  Iter=  0 NonCon=     1 RMS=6.78D-08 Max=8.48D-07 NDo=     1
 LinEq1:  Iter=  1 NonCon=     1 RMS=2.75D-08 Max=3.45D-07 NDo=     1
 LinEq1:  Iter=  2 NonCon=     1 RMS=9.60D-09 Max=1.20D-07 NDo=     1
 LinEq1:  Iter=  3 NonCon=     1 RMS=2.51D-09 Max=2.07D-08 NDo=     1
 LinEq1:  Iter=  4 NonCon=     1 RMS=8.17D-10 Max=1.35D-08 NDo=     1
 LinEq1:  Iter=  5 NonCon=     1 RMS=2.51D-10 Max=2.25D-09 NDo=     1
 LinEq1:  Iter=  6 NonCon=     1 RMS=7.86D-11 Max=6.59D-10 NDo=     1
 LinEq1:  Iter=  7 NonCon=     1 RMS=2.33D-11 Max=2.86D-10 NDo=     1
 LinEq1:  Iter=  8 NonCon=     0 RMS=6.58D-12 Max=8.06D-11 NDo=     1
 Linear equations converged to 1.196D-11 1.196D-10 after     8 iterations.
 LinEq1:  Iter=  0 NonCon=     1 RMS=1.75D-08 Max=2.15D-07 NDo=     1
 LinEq1:  Iter=  1 NonCon=     1 RMS=5.62D-09 Max=6.57D-08 NDo=     1
 LinEq1:  Iter=  2 NonCon=     1 RMS=1.54D-09 Max=1.15D-08 NDo=     1
 LinEq1:  Iter=  3 NonCon=     1 RMS=4.84D-10 Max=6.43D-09 NDo=     1
 LinEq1:  Iter=  4 NonCon=     1 RMS=1.61D-10 Max=2.18D-09 NDo=     1
 LinEq1:  Iter=  5 NonCon=     1 RMS=4.75D-11 Max=4.79D-10 NDo=     1
 LinEq1:  Iter=  6 NonCon=     1 RMS=1.21D-11 Max=1.31D-10 NDo=     1
 LinEq1:  Iter=  7 NonCon=     1 RMS=3.61D-12 Max=3.51D-11 NDo=     1
 LinEq1:  Iter=  8 NonCon=     0 RMS=1.46D-12 Max=1.31D-11 NDo=     1
 Linear equations converged to 3.238D-12 3.238D-11 after     8 iterations.
 SCF Done:  E(UAM1) =  0.163225259094     a.u. after    5 cycles
            Convg  =    0.5912D-07                    37 Fock formations.
              S**2 =  0.8068                  -V/T =  1.0014
 <Sx>= 0.0000 <Sy>= 0.0000 <Sz>= 0.5000 <S**2>= 0.8068 S= 0.5280
 <L.S>=  0.00000000000    
 Annihilation of the first spin contaminant:
 S**2 before annihilation     0.8068,   after     0.7514
 Calling FoFJK, ICntrl=      2127 FMM=F ISym2X=1 I1Cent= 0 IOpClX= 1 NMat=1 NMatS=1 NMatT=0.
 ***** Axes restored to original set *****
 -------------------------------------------------------------------
 Center     Atomic                   Forces (Hartrees/Bohr)
 Number     Number              X              Y              Z
 -------------------------------------------------------------------
      1        6          -0.064456768   -0.019662161    0.000000000
      2        6           0.003809195    0.119908386    0.000000000
      3        6           0.064078241    0.043008444    0.000000000
      4        6           0.182384737   -0.059261871   -0.000000000
      5        6          -0.037777037   -0.174382387    0.000000000
      6        6          -0.064465193    0.000496447   -0.000000000
      7       17          -0.022295476   -0.010061302    0.000000000
      8       17          -0.013058056    0.004833984    0.000000000
      9        1           0.000965231   -0.014460327   -0.000000000
     10       17           0.014162246    0.009475652    0.000000000
     11        1          -0.057678285    0.035252596   -0.000000000
     12        1          -0.005668835    0.064852540   -0.000000000
 -------------------------------------------------------------------
 Cartesian Forces:  Max     0.182384737 RMS     0.054710894

 GradGradGradGradGradGradGradGradGradGradGradGradGradGradGradGradGradGrad
 Berny optimization.
 Using GEDIIS/GDIIS optimizer.
 FormGI is forming the generalized inverse of G from B-inverse, IUseBI=4.
 Internal  Forces:  Max     0.142171143 RMS     0.035876187
 Search for a local minimum.
 Step number   4 out of a maximum of   64
 All quantities printed in internal units (Hartrees-Bohrs-Radians)
 Mixed Optimization -- RFO/linear search
 Update second derivatives using D2CorX and points    3    4
 ITU=  0  0  1  0
 Use linear search instead of GDIIS.
     Eigenvalues ---    0.02011   0.02011   0.02011   0.02011   0.02011
     Eigenvalues ---    0.02011   0.02011   0.02011   0.02011   0.04639
     Eigenvalues ---    0.06524   0.11508   0.15999   0.16000   0.16030
     Eigenvalues ---    0.22271   0.23570   0.24469   0.24963   0.25000
     Eigenvalues ---    0.25035   0.28721   0.29033   0.29272   0.40248
     Eigenvalues ---    0.41013   0.44620   0.44656   0.44657   0.74787
 RFO step:  Lambda=-1.27025597D-01 EMin= 2.01065804D-02
 Quartic linear search produced a step of -0.01699.
 Maximum step size (   0.505) exceeded in Quadratic search.
    -- Step size scaled by   0.796
 Iteration  1 RMS(Cart)=  0.05138299 RMS(Int)=  0.01332319
 Iteration  2 RMS(Cart)=  0.01261136 RMS(Int)=  0.00009919
 Iteration  3 RMS(Cart)=  0.00000715 RMS(Int)=  0.00009910
 Iteration  4 RMS(Cart)=  0.00000000 RMS(Int)=  0.00009910
 ClnCor:  largest displacement from symmetrization is 1.12D-08 for atom     1.
 Variable       Old X    -DE/DX   Delta X   Delta X   Delta X     New X
                                 (Linear)    (Quad)   (Total)
    R1        2.52934   0.10462   0.00087   0.10679   0.10755   2.63689
    R2        2.63420   0.04733   0.00016   0.05079   0.05077   2.68498
    R3        3.20349   0.01369   0.00090   0.01376   0.01466   3.21815
    R4        2.55012   0.09082   0.00073   0.09511   0.09591   2.64602
    R5        2.14111  -0.01448   0.00813  -0.21052  -0.20239   1.93872
    R6        2.51089   0.09545   0.00099   0.10033   0.10149   2.61238
    R7        3.21947   0.01703   0.00079   0.02001   0.02080   3.24027
    R8        2.40742   0.14217   0.00169   0.14380   0.14560   2.55302
    R9        2.80864  -0.06757   0.00359  -0.29189  -0.28830   2.52033
   R10        2.50953   0.08815   0.00100   0.09017   0.09111   2.60064
   R11        2.74734  -0.06507   0.00400  -0.24584  -0.24184   2.50550
   R12        3.21709   0.02415   0.00081   0.02605   0.02687   3.24395
    A1        2.05361   0.01915   0.00028   0.02379   0.02378   2.07740
    A2        2.08204  -0.00550   0.00008  -0.00722  -0.00699   2.07504
    A3        2.14754  -0.01365  -0.00036  -0.01657  -0.01679   2.13075
    A4        2.12854  -0.00327  -0.00023  -0.00557  -0.00584   2.12271
    A5        2.07104   0.00234   0.00016   0.00385   0.00403   2.07508
    A6        2.08360   0.00093   0.00007   0.00171   0.00180   2.08540
    A7        2.05530  -0.00314   0.00026  -0.00544  -0.00492   2.05038
    A8        2.08810   0.00080   0.00004  -0.00055  -0.00063   2.08747
    A9        2.13979   0.00234  -0.00031   0.00599   0.00555   2.14534
   A10        2.12589  -0.00969  -0.00022  -0.00664  -0.00658   2.11931
   A11        2.08184   0.00198   0.00009  -0.00153  -0.00158   2.08026
[...]
   A18        2.07459   0.00002   0.00008   0.00007   0.00015   2.07474
    D1        0.00000  -0.00000   0.00000  -0.00000   0.00000   0.00000
    D2        3.14159  -0.00000   0.00000  -0.00000   0.00000   3.14159
    D3        3.14159   0.00000   0.00000   0.00000   0.00000   3.14159
    D4        0.00000  -0.00000   0.00000  -0.00000   0.00000   0.00000
    D5        0.00000  -0.00000   0.00000  -0.00000   0.00000   0.00000
    D6        3.14159   0.00000   0.00000   0.00000   0.00000   3.14159
    D7        3.14159  -0.00000   0.00000  -0.00000   0.00000   3.14159
    D8        0.00000  -0.00000   0.00000  -0.00000   0.00000   0.00000
    D9        0.00000   0.00000   0.00000   0.00000   0.00000   0.00000
   D10        3.14159   0.00000   0.00000   0.00000   0.00000   3.14159
   D11        3.14159   0.00000   0.00000   0.00000   0.00000   3.14159
   D12        0.00000   0.00000   0.00000   0.00000   0.00000   0.00000
   D13        0.00000  -0.00000   0.00000  -0.00000   0.00000   0.00000
   D14        3.14159  -0.00000   0.00000  -0.00000   0.00000   3.14159
   D15        3.14159   0.00000   0.00000   0.00000   0.00000   3.14159
   D16        0.00000  -0.00000   0.00000  -0.00000   0.00000   0.00000
   D17        0.00000  -0.00000   0.00000  -0.00000   0.00000   0.00000
   D18        3.14159  -0.00000   0.00000  -0.00000   0.00000   3.14159
   D19        3.14159   0.00000   0.00000   0.00000   0.00000   3.14159
   D20        0.00000   0.00000   0.00000   0.00000   0.00000   0.00000
   D21        0.00000   0.00000   0.00000   0.00000   0.00000   0.00000
   D22        3.14159   0.00000   0.00000   0.00000   0.00000   3.14159
   D23        3.14159   0.00000   0.00000   0.00000   0.00000   3.14159
   D24        0.00000   0.00000   0.00000   0.00000   0.00000   0.00000
         Item               Value     Threshold  Converged?
 Maximum Force            0.000221     0.000450     YES
 RMS     Force            0.000060     0.000300     YES
 Maximum Displacement     0.000780     0.001800     YES
 RMS     Displacement     0.000237     0.001200     YES
 Predicted change in Energy=-2.457739D-07
 Optimization completed.
    -- Stationary point found.
                           ----------------------------
                           !   Optimized Parameters   !
                           ! (Angstroms and Degrees)  !
 --------------------------                            --------------------------
 ! Name  Definition              Value          Derivative Info.                !
 --------------------------------------------------------------------------------
 ! R1    R(1,2)                  1.3992         -DE/DX =    0.0001              !
 ! R2    R(1,6)                  1.4041         -DE/DX =    0.0002              !
 ! R3    R(1,8)                  1.7137         -DE/DX =    0.0001              !
 ! R4    R(2,3)                  1.3964         -DE/DX =    0.0                 !
 ! R5    R(2,9)                  1.0982         -DE/DX =    0.0001              !
 ! R6    R(3,4)                  1.3983         -DE/DX =    0.0                 !
 ! R7    R(3,10)                 1.9383         -DE/DX =    0.0                 !
 ! R8    R(4,5)                  1.3941         -DE/DX =    0.0001              !
 ! R9    R(4,11)                 1.0983         -DE/DX =    0.0001              !
 ! R10   R(5,6)                  1.4025         -DE/DX =    0.0                 !
 ! R11   R(5,12)                 1.0986         -DE/DX =    0.0001              !
 ! R12   R(6,7)                  1.7111         -DE/DX =    0.0001              !
 ! A1    A(2,1,6)              120.0656         -DE/DX =    0.0                 !
 ! A2    A(2,1,8)              119.5391         -DE/DX =   -0.0001              !
 ! A3    A(6,1,8)              120.3953         -DE/DX =    0.0001              !
 ! A4    A(1,2,3)              120.0438         -DE/DX =   -0.0001              !
 ! A5    A(1,2,9)              120.4489         -DE/DX =    0.0                 !
 ! A6    A(3,2,9)              119.5074         -DE/DX =    0.0001              !
 ! A7    A(2,3,4)              119.7519         -DE/DX =    0.0001              !
 ! A8    A(2,3,10)             120.3862         -DE/DX =   -0.0001              !
 ! A9    A(4,3,10)             119.8619         -DE/DX =    0.0                 !
 ! A10   A(3,4,5)              120.6468         -DE/DX =    0.0                 !
 ! A11   A(3,4,11)             119.3026         -DE/DX =    0.0                 !
 ! A12   A(5,4,11)             120.0506         -DE/DX =    0.0                 !
 ! A13   A(4,5,6)              119.6996         -DE/DX =    0.0                 !
 ! A14   A(4,5,12)             120.7766         -DE/DX =    0.0                 !
 ! A15   A(6,5,12)             119.5238         -DE/DX =    0.0                 !
 ! A16   A(1,6,5)              119.7923         -DE/DX =    0.0                 !
 ! A17   A(1,6,7)              121.3423         -DE/DX =    0.0                 !
 ! A18   A(5,6,7)              118.8654         -DE/DX =    0.0                 !
 ! D1    D(6,1,2,3)              0.0            -DE/DX =    0.0                 !
 ! D2    D(6,1,2,9)            180.0            -DE/DX =    0.0                 !
 ! D3    D(8,1,2,3)            180.0            -DE/DX =    0.0                 !
 ! D4    D(8,1,2,9)              0.0            -DE/DX =    0.0                 !
 ! D5    D(2,1,6,5)              0.0            -DE/DX =    0.0                 !
 ! D6    D(2,1,6,7)            180.0            -DE/DX =    0.0                 !
 ! D7    D(8,1,6,5)            180.0            -DE/DX =    0.0                 !
 ! D8    D(8,1,6,7)              0.0            -DE/DX =    0.0                 !
 ! D9    D(1,2,3,4)              0.0            -DE/DX =    0.0                 !
 ! D10   D(1,2,3,10)           180.0            -DE/DX =    0.0                 !
 ! D11   D(9,2,3,4)            180.0            -DE/DX =    0.0                 !
 ! D12   D(9,2,3,10)             0.0            -DE/DX =    0.0                 !
 ! D13   D(2,3,4,5)              0.0            -DE/DX =    0.0                 !
 ! D14   D(2,3,4,11)           180.0            -DE/DX =    0.0                 !
 ! D15   D(10,3,4,5)           180.0            -DE/DX =    0.0                 !
 ! D16   D(10,3,4,11)            0.0            -DE/DX =    0.0                 !
 ! D17   D(3,4,5,6)              0.0            -DE/DX =    0.0                 !
 ! D18   D(3,4,5,12)           180.0            -DE/DX =    0.0                 !
 ! D19   D(11,4,5,6)           180.0            -DE/DX =    0.0                 !
 ! D20   D(11,4,5,12)            0.0            -DE/DX =    0.0                 !
 ! D21   D(4,5,6,1)              0.0            -DE/DX =    0.0                 !
 ! D22   D(4,5,6,7)            180.0            -DE/DX =    0.0                 !
 ! D23   D(12,5,6,1)           180.0            -DE/DX =    0.0                 !
 ! D24   D(12,5,6,7)             0.0            -DE/DX =    0.0                 !
 --------------------------------------------------------------------------------
 GradGradGradGradGradGradGradGradGradGradGradGradGradGradGradGradGradGrad

                          Input orientation:                          
 ---------------------------------------------------------------------
 Center     Atomic      Atomic             Coordinates (Angstroms)
 Number     Number       Type             X           Y           Z
 ---------------------------------------------------------------------
      1          6           0       -3.175856    0.165524    0.000000
      2          6           0       -1.983028    0.896902    0.000000
      3          6           0       -0.755140    0.231827    0.000000
      4          6           0       -0.723170   -1.166099    0.000000
      5          6           0       -1.906017   -1.903986    0.000000
      6          6           0       -3.140355   -1.238154    0.000000
      7         17           0       -4.578751   -2.164820    0.000000
      8         17           0       -4.675492    0.994956    0.000000
      9          1           0       -2.003449    1.994889    0.000000
     10         17           0        0.903318    1.235117    0.000000
     11          1           0        0.246627   -1.681586    0.000000
     12          1           0       -1.883387   -3.002401    0.000000
 ---------------------------------------------------------------------
                    Distance matrix (angstroms):
                    1          2          3          4          5
     1  C    0.000000
     2  C    1.399198   0.000000
     3  C    2.421624   1.396436   0.000000
     4  C    2.790858   2.417274   1.398291   0.000000
     5  C    2.428037   2.801947   2.426153   1.394133   0.000000
     6  C    1.404126   2.428554   2.801802   2.418259   1.402470
     7  Cl   2.720039   4.013966   4.512640   3.982832   2.685431
     8  Cl   1.713728   2.694249   3.993936   4.504554   4.009221
     9  H    2.172813   1.098176   2.160246   3.410419   3.900092
    10  Cl   4.217071   2.906094   1.938317   2.900224   4.212640
    11  H    3.889113   3.408806   2.159788   1.098286   2.164102
    12  H    3.421436   3.900576   3.425371   2.172120   1.098647
                    6          7          8          9         10
     6  C    0.000000
     7  Cl   1.711050   0.000000
     8  Cl   2.709875   3.161256   0.000000
     9  H    3.427115   4.892377   2.853013   0.000000
    10  Cl   4.740080   6.450787   5.583977   3.004421   0.000000
    11  H    3.415886   4.849514   5.602778   4.310372   2.989716
    12  H    2.166226   2.822505   4.875932   4.998731   5.071714
                   11         12
    11  H    0.000000
    12  H    2.506293   0.000000
 Stoichiometry    C6H3Cl3(1-,2)
 Framework group  CS[SG(C6H3Cl3)]
 Deg. of freedom    21
 Full point group                 CS      NOp   2
 Largest Abelian subgroup         CS      NOp   2
 Largest concise Abelian subgroup C1      NOp   1
                         Standard orientation:                         
 ---------------------------------------------------------------------
 Center     Atomic      Atomic             Coordinates (Angstroms)
 Number     Number       Type             X           Y           Z
 ---------------------------------------------------------------------
      1          6           0        0.000000    0.868604    0.000000
      2          6           0        1.183371    0.122019    0.000000
      3          6           0        1.129669   -1.273384    0.000000
      4          6           0       -0.110088   -1.920082    0.000000
      5          6           0       -1.294885   -1.185328    0.000000
      6          6           0       -1.243356    0.216195    0.000000
      7         17           0       -2.710458    1.096709    0.000000
      8         17           0        0.080984    2.580418    0.000000
      9          1           0        2.159199    0.625756    0.000000
     10         17           0        2.762790   -2.317410    0.000000
     11          1           0       -0.143717   -3.017853    0.000000
     12          1           0       -2.270120   -1.691235    0.000000
 ---------------------------------------------------------------------
 Rotational constants (GHZ):           1.8592145           0.5625210           0.4318585

 **********************************************************************

            Population analysis using the SCF Density.

 **********************************************************************

 Orbital symmetries:
 Alpha Orbitals:
       Occupied  (A') (A') (A') (A') (A') (A') (A') (A') (A') (A')
                 (A') (A") (A') (A') (A") (A') (A') (A") (A') (A')
                 (A") (A") (A') (A") (A')
       Virtual   (A") (A") (A') (A') (A") (A') (A') (A') (A') (A')
                 (A') (A') (A') (A')
 Beta  Orbitals:
       Occupied  (A') (A') (A') (A') (A') (A') (A') (A') (A') (A')
                 (A') (A") (A') (A') (A") (A') (A') (A") (A') (A')
                 (A") (A") (A') (A")
       Virtual   (A") (A') (A") (A') (A") (A') (A') (A') (A') (A')
                 (A') (A') (A') (A') (A')
 The electronic state is 2-A'.
 Alpha  occ. eigenvalues --   -1.30516  -1.25063  -1.23185  -1.07051  -1.00739
 Alpha  occ. eigenvalues --   -0.97103  -0.71461  -0.69909  -0.52809  -0.46555
 Alpha  occ. eigenvalues --   -0.45505  -0.40851  -0.39863  -0.38723  -0.34838
 Alpha  occ. eigenvalues --   -0.32722  -0.32166  -0.30831  -0.29465  -0.28749
 Alpha  occ. eigenvalues --   -0.22658  -0.21517  -0.19679  -0.16996  -0.07275
 Alpha virt. eigenvalues --    0.15788   0.16373   0.17210   0.18759   0.25476
 Alpha virt. eigenvalues --    0.27354   0.29506   0.30551   0.31784   0.32239
 Alpha virt. eigenvalues --    0.33182   0.33479   0.36549   0.37441
  Beta  occ. eigenvalues --   -1.30386  -1.25010  -1.22980  -1.03561  -1.00587
  Beta  occ. eigenvalues --   -0.96376  -0.71402  -0.68610  -0.52634  -0.45676
  Beta  occ. eigenvalues --   -0.45244  -0.40869  -0.39611  -0.37933  -0.34806
  Beta  occ. eigenvalues --   -0.32544  -0.31658  -0.30519  -0.29287  -0.24791
  Beta  occ. eigenvalues --   -0.21867  -0.21291  -0.18579  -0.17201
  Beta virt. eigenvalues --    0.15819   0.17198   0.17375   0.18765   0.27045
  Beta virt. eigenvalues --    0.27710   0.28454   0.29727   0.30664   0.31772
  Beta virt. eigenvalues --    0.32725   0.33137   0.34731   0.37150   0.38982
          Condensed to atoms (all electrons):
               1          2          3          4          5          6
     1  C    4.063291   0.000000   0.000000   0.000000   0.000000   0.000000
     2  C    0.000000   4.138551   0.000000   0.000000   0.000000   0.000000
     3  C    0.000000   0.000000   4.074958   0.000000   0.000000   0.000000
     4  C    0.000000   0.000000   0.000000   4.145369   0.000000   0.000000
     5  C    0.000000   0.000000   0.000000   0.000000   4.143089   0.000000
     6  C    0.000000   0.000000   0.000000   0.000000   0.000000   4.114700
     7  Cl   0.000000   0.000000   0.000000   0.000000   0.000000   0.000000
     8  Cl   0.000000   0.000000   0.000000   0.000000   0.000000   0.000000
     9  H    0.000000   0.000000   0.000000   0.000000   0.000000   0.000000
    10  Cl   0.000000   0.000000   0.000000   0.000000   0.000000   0.000000
    11  H    0.000000   0.000000   0.000000   0.000000   0.000000   0.000000
    12  H    0.000000   0.000000   0.000000   0.000000   0.000000   0.000000
               7          8          9         10         11         12
     1  C    0.000000   0.000000   0.000000   0.000000   0.000000   0.000000
     2  C    0.000000   0.000000   0.000000   0.000000   0.000000   0.000000
     3  C    0.000000   0.000000   0.000000   0.000000   0.000000   0.000000
     4  C    0.000000   0.000000   0.000000   0.000000   0.000000   0.000000
     5  C    0.000000   0.000000   0.000000   0.000000   0.000000   0.000000
     6  C    0.000000   0.000000   0.000000   0.000000   0.000000   0.000000
     7  Cl   7.080704   0.000000   0.000000   0.000000   0.000000   0.000000
     8  Cl   0.000000   7.084629   0.000000   0.000000   0.000000   0.000000
     9  H    0.000000   0.000000   0.864894   0.000000   0.000000   0.000000
    10  Cl   0.000000   0.000000   0.000000   7.522583   0.000000   0.000000
    11  H    0.000000   0.000000   0.000000   0.000000   0.876961   0.000000
    12  H    0.000000   0.000000   0.000000   0.000000   0.000000   0.890271
          Atomic-Atomic Spin Densities.
               1          2          3          4          5          6
     1  C    0.331414   0.000000   0.000000   0.000000   0.000000   0.000000
     2  C    0.000000  -0.314896   0.000000   0.000000   0.000000   0.000000
     3  C    0.000000   0.000000   0.845023   0.000000   0.000000   0.000000
     4  C    0.000000   0.000000   0.000000  -0.316462   0.000000   0.000000
     5  C    0.000000   0.000000   0.000000   0.000000   0.326622   0.000000
     6  C    0.000000   0.000000   0.000000   0.000000   0.000000  -0.344057
     7  Cl   0.000000   0.000000   0.000000   0.000000   0.000000   0.000000
     8  Cl   0.000000   0.000000   0.000000   0.000000   0.000000   0.000000
     9  H    0.000000   0.000000   0.000000   0.000000   0.000000   0.000000
    10  Cl   0.000000   0.000000   0.000000   0.000000   0.000000   0.000000
    11  H    0.000000   0.000000   0.000000   0.000000   0.000000   0.000000
    12  H    0.000000   0.000000   0.000000   0.000000   0.000000   0.000000
               7          8          9         10         11         12
     1  C    0.000000   0.000000   0.000000   0.000000   0.000000   0.000000
     2  C    0.000000   0.000000   0.000000   0.000000   0.000000   0.000000
     3  C    0.000000   0.000000   0.000000   0.000000   0.000000   0.000000
     4  C    0.000000   0.000000   0.000000   0.000000   0.000000   0.000000
     5  C    0.000000   0.000000   0.000000   0.000000   0.000000   0.000000
     6  C    0.000000   0.000000   0.000000   0.000000   0.000000   0.000000
     7  Cl   0.003765   0.000000   0.000000   0.000000   0.000000   0.000000
     8  Cl   0.000000   0.006642   0.000000   0.000000   0.000000   0.000000
     9  H    0.000000   0.000000   0.019358   0.000000   0.000000   0.000000
    10  Cl   0.000000   0.000000   0.000000   0.438012   0.000000   0.000000
    11  H    0.000000   0.000000   0.000000   0.000000   0.018960   0.000000
    12  H    0.000000   0.000000   0.000000   0.000000   0.000000  -0.014381
 Mulliken charges and spin densities:
               1          2
     1  C   -0.063291   0.331414
     2  C   -0.138551  -0.314896
     3  C   -0.074958   0.845023
     4  C   -0.145369  -0.316462
     5  C   -0.143089   0.326622
     6  C   -0.114700  -0.344057
     7  Cl  -0.080704   0.003765
     8  Cl  -0.084629   0.006642
     9  H    0.135106   0.019358
    10  Cl  -0.522583   0.438012
    11  H    0.123039   0.018960
    12  H    0.109729  -0.014381
 Sum of Mulliken charges =  -1.00000   1.00000
 Mulliken charges and spin densities with hydrogens summed into heavy atoms:
               1          2
     1  C   -0.063291   0.331414
     2  C   -0.003446  -0.295538
     3  C   -0.074958   0.845023
     4  C   -0.022329  -0.297502
     5  C   -0.033360   0.312241
     6  C   -0.114700  -0.344057
     7  Cl  -0.080704   0.003765
     8  Cl  -0.084629   0.006642
    10  Cl  -0.522583   0.438012
 Charge=             -1.0000 electrons
 Dipole moment (field-independent basis, Debye):
    X=             -6.3274    Y=              4.8866    Z=              0.0000  Tot=              7.9947
 N-N= 2.498860758260D+02 E-N=-3.574750125391D+02  KE=-1.152260243215D+02
 Symmetry A'   KE=-8.919877978966D+01
 Symmetry A"   KE=-2.602724453180D+01
 Symmetry A'   SP= 1.000000000000D+00
 Symmetry A"   SP= 4.662936703426D-15
 1\1\GINC-SH02-01N09\FOpt\UAM1\ZDO\C6H3Cl3(1-,2)\JLAPIER\09-Dec-2025\0\
 \# opt am1 SCF=XQC\\3-Chloro-Benzene Anion Radical (124)\\-1,2\C,-3.17
 58560676,0.1655236866,0.\C,-1.9830275273,0.8969024955,0.\C,-0.75513997
 79,0.2318270124,0.\C,-0.7231700969,-1.1660985183,0.\C,-1.9060172458,-1
 .9039862834,0.\C,-3.1403549416,-1.2381538827,0.\Cl,-4.5787512412,-2.16
 48196055,0.\Cl,-4.6754919842,0.9949555973,0.\H,-2.0034489158,1.9948888
 045,0.\Cl,0.9033179657,1.2351174109,0.\H,0.2466265343,-1.6815861539,0.
 \H,-1.8833865017,-3.0024005633,0.\\Version=ES64L-G16RevB.01\State=2-A'
 \HF=-0.0127077\S2=1.008023\S2-1=0.\S2A=0.799795\RMSD=4.943e-09\RMSF=8.
 112e-05\Dipole=-2.8250142,-1.3829648,0.\PG=CS [SG(C6H3Cl3)]\\@


 A people that values its privileges above its principles soon loses both.
 -- Dwight D. Eisenhower
 Job cpu time:       0 days  0 hours  0 minutes 11.5 seconds.
 Elapsed time:       0 days  0 hours  0 minutes 31.6 seconds.
 File lengths (MBytes):  RWF=     10 Int=      0 D2E=      0 Chk=      2 Scr=      1
 Normal termination of Gaussian 16 at Tue Dec  9 09:59:16 2025.
