 Entering Gaussian System, Link 0=g16
 Initial command:
 /share/software/user/restricted/gaussian/g16.B01/l1.exe "/home/users/jlapier/Chloroaromatics/Gau-19574.inp" -scrdir="/home/users/jlapier/Chloroaromatics/"
 Entering Link 1 = /share/software/user/restricted/gaussian/g16.B01/l1.exe PID=     19575.
  
 Copyright (c) 1988-2017, Gaussian, Inc.  All Rights Reserved.
  
 This is part of the Gaussian(R) 16 program.  It is based on
 the Gaussian(R) 09 system (copyright 2009, Gaussian, Inc.),
 the Gaussian(R) 03 system (copyright 2003, Gaussian, Inc.),
 the Gaussian(R) 98 system (copyright 1998, Gaussian, Inc.),
 the Gaussian(R) 94 system (copyright 1995, Gaussian, Inc.),
 the Gaussian 92(TM) system (copyright 1992, Gaussian, Inc.),
 the Gaussian 90(TM) system (copyright 1990, Gaussian, Inc.),
 the Gaussian 88(TM) system (copyright 1988, Gaussian, Inc.),
 the Gaussian 86(TM) system (copyright 1986, Carnegie Mellon
 University), and the Gaussian 82(TM) system (copyright 1983,
 Carnegie Mellon University). Gaussian is a federally registered
 trademark of Gaussian, Inc.
  
 This software contains proprietary and confidential information,
 including trade secrets, belonging to Gaussian, Inc.
  
 This software is provided under written license and may be
 used, copied, transmitted, or stored only in accord with that
 written license.
  
 The following legend is applicable only to US Government
 contracts under FAR:
  
                    RESTRICTED RIGHTS LEGEND
  
 Use, reproduction and disclosure by the US Government is
 subject to restrictions as set forth in subparagraphs (a)
 and (c) of the Commercial Computer Software - Restricted
 Rights clause in FAR 52.227-19.
  
 Gaussian, Inc.
 340 Quinnipiac St., Bldg. 40, Wallingford CT 06492
  
  
 ---------------------------------------------------------------
 Warning -- This program may not be used in any manner that
 competes with the business of Gaussian, Inc. or will provide
 assistance to any competitor of Gaussian, Inc.  The licensee
 of this program is prohibited from giving any competitor of
 Gaussian, Inc. access to this program.  By using this program,
 the user acknowledges that Gaussian, Inc. is engaged in the
 business of creating and licensing software in the field of
 computational chemistry and represents and warrants to the
 licensee that it is not a competitor of Gaussian, Inc. and that
 it will not use this program in any manner prohibited above.
 ---------------------------------------------------------------
  

 Cite this work as:
 Gaussian 16, Revision B.01,
 M. J. Frisch, G. W. Trucks, H. B. Schlegel, G. E. Scuseria, 
 M. A. Robb, J. R. Cheeseman, G. Scalmani, V. Barone, 
 G. A. Petersson, H. Nakatsuji, X. Li, M. Caricato, A. V. Marenich, 
 J. Bloino, B. G. Janesko, R. Gomperts, B. Mennucci, H. P. Hratchian, 
 J. V. Ortiz, A. F. Izmaylov, J. L. Sonnenberg, D. Williams-Young, 
 F. Ding, F. Lipparini, F. Egidi, J. Goings, B. Peng, A. Petrone, 
 T. Henderson, D. Ranasinghe, V. G. Zakrzewski, J. Gao, N. Rega, 
 G. Zheng, W. Liang, M. Hada, M. Ehara, K. Toyota, R. Fukuda, 
 J. Hasegawa, M. Ishida, T. Nakajima, Y. Honda, O. Kitao, H. Nakai, 
 T. Vreven, K. Throssell, J. A. Montgomery, Jr., J. E. Peralta, 
 F. Ogliaro, M. J. Bearpark, J. J. Heyd, E. N. Brothers, K. N. Kudin, 
 V. N. Staroverov, T. A. Keith, R. Kobayashi, J. Normand, 
 K. Raghavachari, A. P. Rendell, J. C. Burant, S. S. Iyengar, 
 J. Tomasi, M. Cossi, J. M. Millam, M. Klene, C. Adamo, R. Cammi, 
 J. W. Ochterski, R. L. Martin, K. Morokuma, O. Farkas, 
 J. B. Foresman, and D. J. Fox, Gaussian, Inc., Wallingford CT, 2016.
 
 ******************************************
 Gaussian 16:  ES64L-G16RevB.01 20-Dec-2017
                 9-Dec-2025 
 ******************************************
 %mem=2GB
 %nprocshare=1
 Will use up to    1 processors via shared memory.
 %chk=geometry_chks/124ClBz.chk
 -----------------
 # opt am1 SCF=XQC
 -----------------
 1/18=20,19=15,26=1,38=1/1,3;
 2/9=110,12=2,17=6,18=5,40=1/2;
 3/5=2,25=1,41=700000,71=1/1,2,3;
 4/35=1/1;
 5/5=2,8=3,13=1,35=1,38=5/2,8;
 6/7=2,8=2,9=2,10=2,28=1/1;
 7//1,2,3,16;
 1/18=20,19=15,26=1/3(2);
 2/9=110/2;
 99//99;
 2/9=110/2;
 3/5=2,25=1,41=700000,71=1,135=20/1,2,3;
 4/5=5,16=3,35=1/1;
 5/5=2,8=3,13=1,35=1,38=5/2,8;
 7//1,2,3,16;
 1/18=20,19=15,26=1/3(-5);
 2/9=110/2;
 6/7=2,8=2,9=2,10=2,19=2,28=1/1;
 99/9=1/99;
 ----------------------
 3-Chloro-Benzene (124)
 ----------------------
 Symbolic Z-matrix:
 Charge =  0 Multiplicity = 1
 C                    -3.20928   0.19943   0. 
 C                    -2.0115    0.93555   0. 
 C                    -0.77511   0.2663    0. 
 C                    -0.7365   -1.13907   0. 
 C                    -1.93429  -1.87519   0. 
 C                    -3.17067  -1.20594   0. 
 Cl                   -4.67483  -2.13035   0. 
 Cl                   -4.76193   1.03987   0. 
 H                    -2.05998   2.7004    0. 
 Cl                    0.72905   1.19071   0. 
 H                     0.81614  -1.97951   0. 
 H                    -1.8858   -3.64003   0. 
 
 Add virtual bond connecting atoms H12        and C5         Dist= 3.34D+00.
 Add virtual bond connecting atoms H11        and C4         Dist= 3.34D+00.
 Add virtual bond connecting atoms H9         and C2         Dist= 3.34D+00.

 GradGradGradGradGradGradGradGradGradGradGradGradGradGradGradGradGradGrad
 Berny optimization.
 Initialization pass.
                           ----------------------------
                           !    Initial Parameters    !
                           ! (Angstroms and Degrees)  !
 --------------------------                            --------------------------
 ! Name  Definition              Value          Derivative Info.                !
 --------------------------------------------------------------------------------
 ! R1    R(1,2)                  1.4059         estimate D2E/DX2                !
 ! R2    R(1,6)                  1.4059         estimate D2E/DX2                !
 ! R3    R(1,8)                  1.7655         estimate D2E/DX2                !
 ! R4    R(2,3)                  1.4059         estimate D2E/DX2                !
 ! R5    R(2,9)                  1.7655         estimate D2E/DX2                !
 ! R6    R(3,4)                  1.4059         estimate D2E/DX2                !
 ! R7    R(3,10)                 1.7655         estimate D2E/DX2                !
 ! R8    R(4,5)                  1.4059         estimate D2E/DX2                !
 ! R9    R(4,11)                 1.7655         estimate D2E/DX2                !
 ! R10   R(5,6)                  1.4059         estimate D2E/DX2                !
 ! R11   R(5,12)                 1.7655         estimate D2E/DX2                !
 ! R12   R(6,7)                  1.7655         estimate D2E/DX2                !
 ! A1    A(2,1,6)              119.9999         estimate D2E/DX2                !
 ! A2    A(2,1,8)              119.9999         estimate D2E/DX2                !
 ! A3    A(6,1,8)              120.0001         estimate D2E/DX2                !
 ! A4    A(1,2,3)              120.0            estimate D2E/DX2                !
 ! A5    A(1,2,9)              120.0001         estimate D2E/DX2                !
 ! A6    A(3,2,9)              119.9999         estimate D2E/DX2                !
 ! A7    A(2,3,4)              120.0001         estimate D2E/DX2                !
 ! A8    A(2,3,10)             120.0            estimate D2E/DX2                !
 ! A9    A(4,3,10)             119.9999         estimate D2E/DX2                !
 ! A10   A(3,4,5)              119.9997         estimate D2E/DX2                !
 ! A11   A(3,4,11)             120.0003         estimate D2E/DX2                !
 ! A12   A(5,4,11)             120.0            estimate D2E/DX2                !
 ! A13   A(4,5,6)              120.0            estimate D2E/DX2                !
 ! A14   A(4,5,12)             119.9996         estimate D2E/DX2                !
 ! A15   A(6,5,12)             120.0004         estimate D2E/DX2                !
 ! A16   A(1,6,5)              120.0003         estimate D2E/DX2                !
 ! A17   A(1,6,7)              119.9999         estimate D2E/DX2                !
 ! A18   A(5,6,7)              119.9998         estimate D2E/DX2                !
 ! D1    D(6,1,2,3)              0.0            estimate D2E/DX2                !
 ! D2    D(6,1,2,9)            180.0            estimate D2E/DX2                !
 ! D3    D(8,1,2,3)            180.0            estimate D2E/DX2                !
 ! D4    D(8,1,2,9)              0.0            estimate D2E/DX2                !
 ! D5    D(2,1,6,5)              0.0            estimate D2E/DX2                !
 ! D6    D(2,1,6,7)            180.0            estimate D2E/DX2                !
 ! D7    D(8,1,6,5)            180.0            estimate D2E/DX2                !
 ! D8    D(8,1,6,7)              0.0            estimate D2E/DX2                !
 ! D9    D(1,2,3,4)              0.0            estimate D2E/DX2                !
 ! D10   D(1,2,3,10)           180.0            estimate D2E/DX2                !
 ! D11   D(9,2,3,4)            180.0            estimate D2E/DX2                !
 ! D12   D(9,2,3,10)             0.0            estimate D2E/DX2                !
 ! D13   D(2,3,4,5)              0.0            estimate D2E/DX2                !
 ! D14   D(2,3,4,11)           180.0            estimate D2E/DX2                !
 ! D15   D(10,3,4,5)           180.0            estimate D2E/DX2                !
 ! D16   D(10,3,4,11)            0.0            estimate D2E/DX2                !
 ! D17   D(3,4,5,6)              0.0            estimate D2E/DX2                !
 ! D18   D(3,4,5,12)           180.0            estimate D2E/DX2                !
 ! D19   D(11,4,5,6)           180.0            estimate D2E/DX2                !
 ! D20   D(11,4,5,12)            0.0            estimate D2E/DX2                !
 ! D21   D(4,5,6,1)              0.0            estimate D2E/DX2                !
 ! D22   D(4,5,6,7)            180.0            estimate D2E/DX2                !
 ! D23   D(12,5,6,1)           180.0            estimate D2E/DX2                !
 ! D24   D(12,5,6,7)             0.0            estimate D2E/DX2                !
 --------------------------------------------------------------------------------
 Trust Radius=3.00D-01 FncErr=1.00D-07 GrdErr=1.00D-07 EigMax=2.50D+02 EigMin=1.00D-04
 Number of steps in this run=     64 maximum allowed number of steps=    100.
 GradGradGradGradGradGradGradGradGradGradGradGradGradGradGradGradGradGrad

                          Input orientation:                          
 ---------------------------------------------------------------------
 Center     Atomic      Atomic             Coordinates (Angstroms)
 Number     Number       Type             X           Y           Z
 ---------------------------------------------------------------------
      1          6           0       -3.209280    0.199430    0.000000
      2          6           0       -2.011500    0.935550    0.000000
      3          6           0       -0.775110    0.266300    0.000000
      4          6           0       -0.736500   -1.139070    0.000000
      5          6           0       -1.934290   -1.875190    0.000000
      6          6           0       -3.170670   -1.205940    0.000000
      7         17           0       -4.674830   -2.130350    0.000000
      8         17           0       -4.761930    1.039870    0.000000
      9          1           0       -2.059980    2.700400    0.000000
     10         17           0        0.729050    1.190710    0.000000
     11          1           0        0.816140   -1.979510    0.000000
     12          1           0       -1.885800   -3.640030    0.000000
 ---------------------------------------------------------------------
                    Distance matrix (angstroms):
                    1          2          3          4          5
     1  C    0.000000
     2  C    1.405898   0.000000
     3  C    2.435088   1.405900   0.000000
     4  C    2.811801   2.435092   1.405900   0.000000
     5  C    2.435087   2.811800   2.435093   1.405907   0.000000
     6  C    1.405900   2.435088   2.811796   2.435088   1.405892
     7  Cl   2.752401   4.061166   4.577308   4.061167   2.752393
     8  Cl   1.765520   2.752408   4.061175   4.577321   4.061173
     9  H    2.752406   1.765516   2.752405   4.061173   4.577316
    10  Cl   4.061167   2.752403   1.765512   2.752401   4.061173
    11  H    4.577312   4.061173   2.752406   1.765511   2.752408
    12  H    4.061164   4.577306   4.061163   2.752397   1.765506
                    6          7          8          9         10
     6  C    0.000000
     7  Cl   1.765512   0.000000
     8  Cl   2.752412   3.171416   0.000000
     9  H    4.061173   5.493049   3.171418   0.000000
    10  Cl   4.577308   6.342819   5.493051   3.171412   0.000000
    11  H    4.061165   5.493041   6.342832   5.493052   3.171416
    12  H    2.752396   3.171407   5.493049   6.342822   5.493040
                   11         12
    11  H    0.000000
    12  H    3.171404   0.000000
 Stoichiometry    C6H3Cl3
 Framework group  CS[SG(C6H3Cl3)]
 Deg. of freedom    21
 Full point group                 CS      NOp   2
 Largest Abelian subgroup         CS      NOp   2
 Largest concise Abelian subgroup C1      NOp   1
                         Standard orientation:                         
 ---------------------------------------------------------------------
 Center     Atomic      Atomic             Coordinates (Angstroms)
 Number     Number       Type             X           Y           Z
 ---------------------------------------------------------------------
      1          6           0        0.000000    0.842092    0.000000
      2          6           0        1.217544    0.139143    0.000000
      3          6           0        1.217544   -1.266757    0.000000
      4          6           0        0.000000   -1.969709    0.000000
      5          6           0       -1.217549   -1.266752    0.000000
      6          6           0       -1.217544    0.139139    0.000000
      7         17           0       -2.746522    1.021895    0.000000
      8         17           0        0.000001    2.607612    0.000000
      9          1           0        2.746527    1.021899    0.000000
     10         17           0        2.746522   -2.149513    0.000000
     11          1           0       -0.000005   -3.735221    0.000000
     12          1           0       -2.746518   -2.149512    0.000000
 ---------------------------------------------------------------------
 Rotational constants (GHZ):           1.7786906           0.5747802           0.4344036
 Standard basis: VSTO-6G (5D, 7F)
 There are    30 symmetry adapted cartesian basis functions of A'  symmetry.
 There are     9 symmetry adapted cartesian basis functions of A"  symmetry.
 There are    30 symmetry adapted basis functions of A'  symmetry.
 There are     9 symmetry adapted basis functions of A"  symmetry.
    39 basis functions,   234 primitive gaussians,    39 cartesian basis functions
    24 alpha electrons       24 beta electrons
       nuclear repulsion energy       246.3204445346 Hartrees.
 Integral buffers will be    131072 words long.
 Regular integral format.
 Two-electron integral symmetry is turned off.
 Do NDO integrals.
 One-electron integrals computed using PRISM.
 NBasis=    39 RedAO= T EigKep=  1.00D+00  NBF=    30     9
 NBsUse=    39 1.00D-06 EigRej= -1.00D+00 NBFU=    30     9
 Simple Huckel Guess.
 Initial guess orbital symmetries:
       Occupied  (A') (A') (A') (A') (A') (A') (A') (A') (A') (A")
                 (A') (A') (A') (A') (A") (A') (A") (A') (A") (A')
                 (A') (A') (A") (A")
       Virtual   (A') (A") (A') (A") (A') (A") (A') (A') (A') (A')
                 (A') (A') (A') (A') (A')
 The electronic state of the initial guess is 1-A'.
 Keep J ints in memory in canonical form, NReq=863709.
 Overlap will be assumed to be unity.
 Requested convergence on RMS density matrix=1.00D-08 within  32 cycles.
 Requested convergence on MAX density matrix=1.00D-06.
 Requested convergence on             energy=1.00D-06.
 No special actions if energy rises.
 Fock symm off for IB=2 I1=    1 I=   31 J=    8 Cut=1.00D-07 Err=3.44D-03
 Fock matrix is not symmetric: symmetry in diagonalization turned off.
 SCF Done:  E(RAM1) =  0.376106501836     A.U. after   15 cycles
            NFock= 14  Conv=0.53D-08     -V/T= 1.0033
 QCSCF skips out because SCF is already converged.

 **********************************************************************

            Population analysis using the SCF Density.

 **********************************************************************

 Orbital symmetries:
       Occupied  (A') (A') (A') (A') (A') (A') (A') (A') (A') (A')
                 (A') (A") (A') (A") (A") (A') (A') (A') (A') (A")
                 (A') (A') (A") (A")
       Virtual   (A') (A") (A') (A") (A') (A') (A') (A') (A") (A')
                 (A') (A') (A') (A') (A')
 The electronic state is 1-A'.
 Alpha  occ. eigenvalues --   -1.42949  -1.37768  -1.36697  -1.34746  -1.12284
 Alpha  occ. eigenvalues --   -1.10324  -0.84347  -0.82193  -0.63528  -0.60990
 Alpha  occ. eigenvalues --   -0.59316  -0.54351  -0.53156  -0.48854  -0.46408
 Alpha  occ. eigenvalues --   -0.45737  -0.44752  -0.43980  -0.43555  -0.42802
 Alpha  occ. eigenvalues --   -0.42183  -0.38389  -0.35651  -0.34772
 Alpha virt. eigenvalues --   -0.00914  -0.00546  -0.00086   0.00660   0.01292
 Alpha virt. eigenvalues --    0.03243   0.04117   0.05425   0.08838   0.14696
 Alpha virt. eigenvalues --    0.15207   0.16571   0.17477   0.18287   0.19307
          Condensed to atoms (all electrons):
               1          2          3          4          5          6
     1  C    4.047783   0.000000   0.000000   0.000000   0.000000   0.000000
     2  C    0.000000   4.143855   0.000000   0.000000   0.000000   0.000000
     3  C    0.000000   0.000000   4.042585   0.000000   0.000000   0.000000
     4  C    0.000000   0.000000   0.000000   4.134525   0.000000   0.000000
     5  C    0.000000   0.000000   0.000000   0.000000   4.147940   0.000000
     6  C    0.000000   0.000000   0.000000   0.000000   0.000000   4.034472
     7  Cl   0.000000   0.000000   0.000000   0.000000   0.000000   0.000000
     8  Cl   0.000000   0.000000   0.000000   0.000000   0.000000   0.000000
     9  H    0.000000   0.000000   0.000000   0.000000   0.000000   0.000000
    10  Cl   0.000000   0.000000   0.000000   0.000000   0.000000   0.000000
    11  H    0.000000   0.000000   0.000000   0.000000   0.000000   0.000000
    12  H    0.000000   0.000000   0.000000   0.000000   0.000000   0.000000
               7          8          9         10         11         12
     1  C    0.000000   0.000000   0.000000   0.000000   0.000000   0.000000
     2  C    0.000000   0.000000   0.000000   0.000000   0.000000   0.000000
     3  C    0.000000   0.000000   0.000000   0.000000   0.000000   0.000000
     4  C    0.000000   0.000000   0.000000   0.000000   0.000000   0.000000
     5  C    0.000000   0.000000   0.000000   0.000000   0.000000   0.000000
     6  C    0.000000   0.000000   0.000000   0.000000   0.000000   0.000000
     7  Cl   7.023434   0.000000   0.000000   0.000000   0.000000   0.000000
     8  Cl   0.000000   7.021433   0.000000   0.000000   0.000000   0.000000
     9  H    0.000000   0.000000   0.769255   0.000000   0.000000   0.000000
    10  Cl   0.000000   0.000000   0.000000   7.041571   0.000000   0.000000
    11  H    0.000000   0.000000   0.000000   0.000000   0.799078   0.000000
    12  H    0.000000   0.000000   0.000000   0.000000   0.000000   0.794067
 Mulliken charges:
               1
     1  C   -0.047783
     2  C   -0.143855
     3  C   -0.042585
     4  C   -0.134525
     5  C   -0.147940
     6  C   -0.034472
     7  Cl  -0.023434
     8  Cl  -0.021433
     9  H    0.230745
    10  Cl  -0.041571
    11  H    0.200922
    12  H    0.205933
 Sum of Mulliken charges =   0.00000
 Mulliken charges with hydrogens summed into heavy atoms:
               1
     1  C   -0.047783
     2  C    0.086889
     3  C   -0.042585
     4  C    0.066397
     5  C    0.057992
     6  C   -0.034472
     7  Cl  -0.023434
     8  Cl  -0.021433
    10  Cl  -0.041571
 Charge=              0.0000 electrons
 Dipole moment (field-independent basis, Debye):
    X=              0.0450    Y=             -2.1402    Z=              0.0000  Tot=              2.1407
 N-N= 2.463204445346D+02 E-N=-3.450884877455D+02  KE=-1.128055971811D+02
 Symmetry A'   KE=-8.676014452376D+01
 Symmetry A"   KE=-2.604545265730D+01
 Calling FoFJK, ICntrl=      2127 FMM=F ISym2X=1 I1Cent= 0 IOpClX= 0 NMat=1 NMatS=1 NMatT=0.
 ***** Axes restored to original set *****
 -------------------------------------------------------------------
 Center     Atomic                   Forces (Hartrees/Bohr)
 Number     Number              X              Y              Z
 -------------------------------------------------------------------
      1        6          -0.007092117    0.025919963    0.000000000
      2        6          -0.002713353    0.073711254   -0.000000000
      3        6           0.011503244    0.007247180    0.000000000
      4        6           0.053534040   -0.050812760   -0.000000000
      5        6           0.020456502   -0.069119698    0.000000000
      6        6          -0.007321250   -0.027045036   -0.000000000
      7       17           0.033023245    0.017024498   -0.000000000
      8       17           0.034330054   -0.015097108   -0.000000000
      9        1           0.003012301   -0.116978195   -0.000000000
     10       17          -0.031620893   -0.019080807   -0.000000000
     11        1          -0.102906410    0.056567110   -0.000000000
     12        1          -0.004205363    0.117663601   -0.000000000
 -------------------------------------------------------------------
 Cartesian Forces:  Max     0.117663601 RMS     0.041923315

 GradGradGradGradGradGradGradGradGradGradGradGradGradGradGradGradGradGrad
 Berny optimization.
 FormGI is forming the generalized inverse of G from B-inverse, IUseBI=4.
 Internal  Forces:  Max     0.117734714 RMS     0.031352080
 Search for a local minimum.
 Step number   1 out of a maximum of   64
 All quantities printed in internal units (Hartrees-Bohrs-Radians)
 Mixed Optimization -- RFO/linear search
 Second derivative matrix not updated -- first step.
 ITU=  0
     Eigenvalues ---    0.02011   0.02011   0.02011   0.02011   0.02011
     Eigenvalues ---    0.02011   0.02011   0.02011   0.02011   0.06524
     Eigenvalues ---    0.06524   0.06524   0.16000   0.16000   0.16000
     Eigenvalues ---    0.22374   0.23491   0.24609   0.25000   0.25000
     Eigenvalues ---    0.25000   0.29033   0.29033   0.29033   0.40810
     Eigenvalues ---    0.41112   0.44656   0.44657   0.44657   0.44657
 RFO step:  Lambda=-1.85740795D-01 EMin= 2.01065826D-02
 Linear search not attempted -- first point.
 Maximum step size (   0.300) exceeded in Quadratic search.
    -- Step size scaled by   0.360
 Iteration  1 RMS(Cart)=  0.04672178 RMS(Int)=  0.00002449
 Iteration  2 RMS(Cart)=  0.00004568 RMS(Int)=  0.00000436
 Iteration  3 RMS(Cart)=  0.00000000 RMS(Int)=  0.00000436
 ClnCor:  largest displacement from symmetrization is 4.34D-10 for atom     7.
 Variable       Old X    -DE/DX   Delta X   Delta X   Delta X     New X
                                 (Linear)    (Quad)   (Total)
    R1        2.65676  -0.03441   0.00000  -0.01928  -0.01928   2.63748
    R2        2.65677  -0.01143   0.00000  -0.00616  -0.00616   2.65060
    R3        3.33635  -0.03738   0.00000  -0.02826  -0.02826   3.30809
    R4        2.65677  -0.03377   0.00000  -0.01926  -0.01926   2.63751
    R5        3.33634  -0.11702   0.00000  -0.16781  -0.16781   3.16853
    R6        2.65677  -0.03304   0.00000  -0.01915  -0.01915   2.63762
    R7        3.33633  -0.03693   0.00000  -0.02792  -0.02792   3.30841
    R8        2.65678  -0.05038   0.00000  -0.02899  -0.02898   2.62780
    R9        3.33633  -0.11743   0.00000  -0.16839  -0.16839   3.16794
   R10        2.65675  -0.03326   0.00000  -0.01890  -0.01890   2.63785
   R11        3.33632  -0.11773   0.00000  -0.16884  -0.16884   3.16749
   R12        3.33633  -0.03705   0.00000  -0.02801  -0.02801   3.30832
    A1        2.09439  -0.00604   0.00000  -0.00417  -0.00418   2.09021
    A2        2.09439  -0.00210   0.00000  -0.00214  -0.00213   2.09226
    A3        2.09440   0.00813   0.00000   0.00631   0.00632   2.10071
    A4        2.09439   0.00593   0.00000   0.00552   0.00551   2.09991
    A5        2.09440  -0.00330   0.00000  -0.00311  -0.00311   2.09129
    A6        2.09439  -0.00263   0.00000  -0.00241  -0.00241   2.09199
    A7        2.09440  -0.00460   0.00000  -0.00453  -0.00453   2.08987
    A8        2.09440   0.00180   0.00000   0.00185   0.00185   2.09625
    A9        2.09439   0.00280   0.00000   0.00268   0.00268   2.09707
   A10        2.09439   0.00483   0.00000   0.00307   0.00309   2.09748
   A11        2.09440  -0.00368   0.00000  -0.00286  -0.00286   2.09154
   A12        2.09440  -0.00115   0.00000  -0.00022  -0.00022   2.09417
   A13        2.09439   0.00659   0.00000   0.00524   0.00525   2.09964
   A14        2.09439  -0.00167   0.00000  -0.00093  -0.00094   2.09345
   A15        2.09440  -0.00492   0.00000  -0.00431  -0.00431   2.09009
   A16        2.09440  -0.00671   0.00000  -0.00513  -0.00514   2.08926
   A17        2.09439   0.00800   0.00000   0.00640   0.00641   2.10080
   A18        2.09439  -0.00129   0.00000  -0.00127  -0.00127   2.09312
    D1        0.00000  -0.00000   0.00000  -0.00000   0.00000   0.00000
    D2        3.14159  -0.00000   0.00000  -0.00000   0.00000   3.14159
    D3        3.14159   0.00000   0.00000   0.00000   0.00000   3.14159
    D4        0.00000  -0.00000   0.00000  -0.00000   0.00000   0.00000
    D5        0.00000   0.00000   0.00000   0.00000   0.00000   0.00000
    D6        3.14159   0.00000   0.00000   0.00000   0.00000   3.14159
    D7        3.14159  -0.00000   0.00000  -0.00000   0.00000   3.14159
    D8        0.00000  -0.00000   0.00000  -0.00000   0.00000   0.00000
    D9        0.00000   0.00000   0.00000   0.00000   0.00000   0.00000
   D10        3.14159  -0.00000   0.00000  -0.00000   0.00000   3.14159
   D11        3.14159   0.00000   0.00000   0.00000   0.00000   3.14159
   D12        0.00000   0.00000   0.00000   0.00000   0.00000   0.00000
   D13        0.00000  -0.00000   0.00000  -0.00000   0.00000   0.00000
   D14        3.14159  -0.00000   0.00000  -0.00000   0.00000   3.14159
   D15        3.14159   0.00000   0.00000   0.00000   0.00000   3.14159
   D16        0.00000   0.00000   0.00000   0.00000   0.00000   0.00000
   D17        0.00000   0.00000   0.00000  -0.00000   0.00000   0.00000
   D18        3.14159  -0.00000   0.00000  -0.00000   0.00000   3.14159
   D19        3.14159   0.00000   0.00000   0.00000   0.00000   3.14159
   D20        0.00000   0.00000   0.00000   0.00000   0.00000   0.00000
   D21        0.00000  -0.00000   0.00000   0.00000   0.00000   0.00000
   D22        3.14159  -0.00000   0.00000  -0.00000   0.00000   3.14159
   D23        3.14159   0.00000   0.00000   0.00000   0.00000   3.14159
   D24        0.00000  -0.00000   0.00000  -0.00000   0.00000   0.00000
         Item               Value     Threshold  Converged?
 Maximum Force            0.117735     0.000450     NO 
 RMS     Force            0.031352     0.000300     NO 
 Maximum Displacement     0.195698     0.001800     NO 
 RMS     Displacement     0.046718     0.001200     NO 
 Predicted change in Energy=-6.317875D-02
 GradGradGradGradGradGradGradGradGradGradGradGradGradGradGradGradGradGrad

                          Input orientation:                          
 ---------------------------------------------------------------------
 Center     Atomic      Atomic             Coordinates (Angstroms)
 Number     Number       Type             X           Y           Z
 ---------------------------------------------------------------------
      1          6           0       -3.197941    0.194717    0.000000
      2          6           0       -2.005931    0.920716    0.000000
      3          6           0       -0.777509    0.258158    0.000000
      4          6           0       -0.743402   -1.137193    0.000000
      5          6           0       -1.928085   -1.865353    0.000000
      6          6           0       -3.159181   -1.207387    0.000000
      7         17           0       -4.644651   -2.133828    0.000000
      8         17           0       -4.732290    1.037483    0.000000
      9          1           0       -2.050450    2.596841    0.000000
     10         17           0        0.714385    1.174309    0.000000
     11          1           0        0.730740   -1.935458    0.000000
     12          1           0       -1.880383   -3.540836    0.000000
 ---------------------------------------------------------------------
                    Distance matrix (angstroms):
                    1          2          3          4          5
     1  C    0.000000
     2  C    1.395694   0.000000
     3  C    2.421263   1.395708   0.000000
     4  C    2.792623   2.414325   1.395768   0.000000
     5  C    2.420004   2.787156   2.415186   1.390572   0.000000
     6  C    1.402639   2.420497   2.796459   2.416798   1.395893
     7  Cl   2.741367   4.036469   4.547129   4.026540   2.729800
     8  Cl   1.750567   2.728859   4.030836   4.543176   4.036090
     9  H    2.662130   1.676716   2.662671   3.956183   4.463871
    10  Cl   4.033100   2.732110   1.750737   2.732798   4.027678
    11  H    4.469024   3.955640   2.662098   1.676401   2.659749
    12  H    3.961100   4.463318   3.955842   2.658989   1.676162
                    6          7          8          9         10
     6  C    0.000000
     7  Cl   1.750690   0.000000
     8  Cl   2.741188   3.172521   0.000000
     9  H    3.962503   5.395286   3.102235   0.000000
    10  Cl   4.547196   6.297860   5.448393   3.109326   0.000000
    11  H    3.957470   5.379050   6.219572   5.317588   3.109810
    12  H    2.660885   3.101750   5.393921   6.140033   5.381953
                   11         12
    11  H    0.000000
    12  H    3.065160   0.000000
 Stoichiometry    C6H3Cl3
 Framework group  CS[SG(C6H3Cl3)]
 Deg. of freedom    21
 Full point group                 CS      NOp   2
 Largest Abelian subgroup         CS      NOp   2
 Largest concise Abelian subgroup C1      NOp   1
                         Standard orientation:                         
 ---------------------------------------------------------------------
 Center     Atomic      Atomic             Coordinates (Angstroms)
 Number     Number       Type             X           Y           Z
 ---------------------------------------------------------------------
      1          6           0        0.000000    0.840517    0.000000
      2          6           0        1.206811    0.139397    0.000000
      3          6           0        1.210722   -1.256306   -0.000000
      4          6           0        0.000750   -1.952106   -0.000000
      5          6           0       -1.204464   -1.258456   -0.000000
      6          6           0       -1.213685    0.137406    0.000000
      7         17           0       -2.736678    1.000776    0.000000
      8         17           0        0.008477    2.591063    0.000000
      9          1           0        2.658561    0.978325    0.000000
     10         17           0        2.727737   -2.130231   -0.000000
     11          1           0        0.002652   -3.628506   -0.000000
     12          1           0       -2.654130   -2.099875   -0.000000
 ---------------------------------------------------------------------
 Rotational constants (GHZ):           1.7981729           0.5842779           0.4409882
 Standard basis: VSTO-6G (5D, 7F)
 There are    30 symmetry adapted cartesian basis functions of A'  symmetry.
 There are     9 symmetry adapted cartesian basis functions of A"  symmetry.
 There are    30 symmetry adapted basis functions of A'  symmetry.
 There are     9 symmetry adapted basis functions of A"  symmetry.
    39 basis functions,   234 primitive gaussians,    39 cartesian basis functions
    24 alpha electrons       24 beta electrons
       nuclear repulsion energy       247.7466136885 Hartrees.
 Integral buffers will be    131072 words long.
 Regular integral format.
 Two-electron integral symmetry is turned off.
 Do NDO integrals.
 One-electron integrals computed using PRISM.
 NBasis=    39 RedAO= T EigKep=  1.00D+00  NBF=    30     9
 NBsUse=    39 1.00D-06 EigRej= -1.00D+00 NBFU=    30     9
 Initial guess from the checkpoint file:  "geometry_chks/124ClBz.chk"
 B after Tr=     0.000000   -0.000000    0.000000
         Rot=    1.000000    0.000000   -0.000000   -0.000678 Ang=  -0.08 deg.
 Initial guess orbital symmetries:
       Occupied  (A') (A') (A') (A') (A') (A') (A') (A') (A') (A')
                 (A') (A") (A') (A") (A") (A') (A') (A') (A') (A")
                 (A') (A') (A") (A")
       Virtual   (A') (A") (A') (A") (A') (A') (A') (A') (A") (A')
                 (A') (A') (A') (A') (A')
 Keep J ints in memory in canonical form, NReq=863709.
 Overlap will be assumed to be unity.
 Requested convergence on RMS density matrix=1.00D-08 within  32 cycles.
 Requested convergence on MAX density matrix=1.00D-06.
 Requested convergence on             energy=1.00D-06.
 No special actions if energy rises.
 Fock symm off for IB=2 I1=    1 I=   31 J=    8 Cut=1.00D-07 Err=1.33D-03
 Fock matrix is not symmetric: symmetry in diagonalization turned off.
 SCF Done:  E(RAM1) =  0.309420510299     A.U. after   13 cycles
            NFock= 12  Conv=0.64D-08     -V/T= 1.0027
 QCSCF skips out because SCF is already converged.
 Calling FoFJK, ICntrl=      2127 FMM=F ISym2X=1 I1Cent= 0 IOpClX= 0 NMat=1 NMatS=1 NMatT=0.
 ***** Axes restored to original set *****
 -------------------------------------------------------------------
 Center     Atomic                   Forces (Hartrees/Bohr)
 Number     Number              X              Y              Z
 -------------------------------------------------------------------
      1        6          -0.013584241    0.023185221    0.000000000
      2        6          -0.003400788    0.094053632    0.000000000
      3        6           0.017791391    0.011668877    0.000000000
      4        6           0.075819657   -0.058172070    0.000000000
      5        6           0.016712870   -0.091741775    0.000000000
      6        6          -0.014433259   -0.024514668   -0.000000000
      7       17           0.026516064    0.014018873    0.000000000
      8       17           0.027497491   -0.012369969   -0.000000000
      9        1           0.002985445   -0.120786044   -0.000000000
     10       17          -0.025191735   -0.015140525    0.000000000
     11        1          -0.106385477    0.058331583   -0.000000000
     12        1          -0.004327418    0.121466865   -0.000000000
 -------------------------------------------------------------------
 Cartesian Forces:  Max     0.121466865 RMS     0.045775531

 GradGradGradGradGradGradGradGradGradGradGradGradGradGradGradGradGradGrad
 Berny optimization.
 Using GEDIIS/GDIIS optimizer.
 FormGI is forming the generalized inverse of G from B-inverse, IUseBI=4.
 Internal  Forces:  Max     0.121540821 RMS     0.030180869
 Search for a local minimum.
 Step number   2 out of a maximum of   64
 All quantities printed in internal units (Hartrees-Bohrs-Radians)
 Mixed Optimization -- RFO/linear search
 Update second derivatives using D2CorX and points    1    2
 DE= -6.67D-02 DEPred=-6.32D-02 R= 1.06D+00
 TightC=F SS=  1.41D+00  RLast= 3.00D-01 DXNew= 5.0454D-01 9.0000D-01
 Trust test= 1.06D+00 RLast= 3.00D-01 DXMaxT set to 5.05D-01
 ITU=  1  0
 Use linear search instead of GDIIS.
 Linear search step of   0.600 exceeds DXMaxT=   0.505 but not scaled.
 Quartic linear search produced a step of  2.00000.
 Iteration  1 RMS(Cart)=  0.06340903 RMS(Int)=  0.03221988
 Iteration  2 RMS(Cart)=  0.03173397 RMS(Int)=  0.00002673
 Iteration  3 RMS(Cart)=  0.00000216 RMS(Int)=  0.00002671
 Iteration  4 RMS(Cart)=  0.00000000 RMS(Int)=  0.00002671
 ClnCor:  largest displacement from symmetrization is 1.30D-08 for atom    10.
 Variable       Old X    -DE/DX   Delta X   Delta X   Delta X     New X
                                 (Linear)    (Quad)   (Total)
    R1        2.63748  -0.01844  -0.03856   0.00000  -0.03861   2.59887
    R2        2.65060  -0.00259  -0.01233   0.00000  -0.01237   2.63824
    R3        3.30809  -0.03006  -0.05652   0.00000  -0.05652   3.25158
    R4        2.63751  -0.01779  -0.03852   0.00000  -0.03852   2.59898
    R5        3.16853  -0.12082  -0.33561   0.00000  -0.33561   2.83292
    R6        2.63762  -0.01695  -0.03829   0.00000  -0.03825   2.59937
    R7        3.30841  -0.02939  -0.05584   0.00000  -0.05584   3.25257
    R8        2.62780  -0.02998  -0.05796   0.00000  -0.05792   2.56988
    R9        3.16794  -0.12133  -0.33679   0.00000  -0.33679   2.83115
   R10        2.63785  -0.01724  -0.03779   0.00000  -0.03779   2.60006
   R11        3.16749  -0.12154  -0.33767   0.00000  -0.33767   2.82982
   R12        3.30832  -0.02992  -0.05602   0.00000  -0.05602   3.25231
    A1        2.09021  -0.00458  -0.00837   0.00000  -0.00845   2.08176
    A2        2.09226  -0.00167  -0.00426   0.00000  -0.00422   2.08804
    A3        2.10071   0.00625   0.01263   0.00000   0.01267   2.11339
    A4        2.09991   0.00565   0.01103   0.00000   0.01098   2.11089
    A5        2.09129  -0.00318  -0.00621   0.00000  -0.00619   2.08510
    A6        2.09199  -0.00247  -0.00481   0.00000  -0.00479   2.08719
    A7        2.08987  -0.00468  -0.00905   0.00000  -0.00901   2.08086
    A8        2.09625   0.00188   0.00370   0.00000   0.00368   2.09992
    A9        2.09707   0.00280   0.00535   0.00000   0.00533   2.10240
   A10        2.09748   0.00349   0.00617   0.00000   0.00625   2.10373
   A11        2.09154  -0.00275  -0.00573   0.00000  -0.00577   2.08577
   A12        2.09417  -0.00074  -0.00045   0.00000  -0.00049   2.09368
   A13        2.09964   0.00571   0.01050   0.00000   0.01054   2.11018
   A14        2.09345  -0.00148  -0.00187   0.00000  -0.00189   2.09156
   A15        2.09009  -0.00423  -0.00863   0.00000  -0.00865   2.08144
   A16        2.08926  -0.00559  -0.01027   0.00000  -0.01031   2.07895
   A17        2.10080   0.00633   0.01281   0.00000   0.01284   2.11364
   A18        2.09312  -0.00074  -0.00254   0.00000  -0.00252   2.09060
    D1        0.00000  -0.00000   0.00000   0.00000  -0.00000   0.00000
    D2        3.14159  -0.00000   0.00000   0.00000   0.00000   3.14159
    D3        3.14159   0.00000   0.00000   0.00000   0.00000   3.14159
    D4       -0.00000  -0.00000   0.00000   0.00000   0.00000   0.00000
    D5       -0.00000  -0.00000   0.00000   0.00000   0.00000   0.00000
    D6        3.14159   0.00000   0.00000   0.00000   0.00000   3.14159
    D7        3.14159  -0.00000   0.00000   0.00000   0.00000   3.14159
    D8        0.00000  -0.00000   0.00000   0.00000  -0.00000   0.00000
    D9       -0.00000   0.00000   0.00000   0.00000   0.00000   0.00000
   D10        3.14159  -0.00000   0.00000   0.00000   0.00000   3.14159
   D11        3.14159   0.00000   0.00000   0.00000   0.00000   3.14159
   D12        0.00000   0.00000   0.00000   0.00000  -0.00000   0.00000
   D13        0.00000  -0.00000   0.00000   0.00000  -0.00000   0.00000
   D14        3.14159  -0.00000   0.00000   0.00000   0.00000   3.14159
   D15        3.14159   0.00000   0.00000   0.00000   0.00000   3.14159
   D16       -0.00000  -0.00000   0.00000   0.00000   0.00000   0.00000
   D17        0.00000  -0.00000   0.00000   0.00000  -0.00000   0.00000
   D18        3.14159  -0.00000   0.00000   0.00000   0.00000   3.14159
   D19        3.14159   0.00000   0.00000   0.00000   0.00000   3.14159
   D20        0.00000  -0.00000   0.00000   0.00000   0.00000   0.00000
   D21        0.00000   0.00000   0.00000   0.00000   0.00000   0.00000
   D22        3.14159   0.00000   0.00000   0.00000   0.00000   3.14159
   D23        3.14159   0.00000   0.00000   0.00000   0.00000   3.14159
   D24       -0.00000   0.00000   0.00000   0.00000   0.00000   0.00000
         Item               Value     Threshold  Converged?
 Maximum Force            0.121541     0.000450     NO 
 RMS     Force            0.030181     0.000300     NO 
 Maximum Displacement     0.391177     0.001800     NO 
 RMS     Displacement     0.093410     0.001200     NO 
 Predicted change in Energy=-1.312850D-01
 GradGradGradGradGradGradGradGradGradGradGradGradGradGradGradGradGradGrad

                          Input orientation:                          
 ---------------------------------------------------------------------
 Center     Atomic      Atomic             Coordinates (Angstroms)
 Number     Number       Type             X           Y           Z
 ---------------------------------------------------------------------
      1          6           0       -3.175070    0.185309    0.000000
      2          6           0       -1.994772    0.891178    0.000000
      3          6           0       -0.782395    0.241826    0.000000
      4          6           0       -0.757170   -1.133469   -0.000000
      5          6           0       -1.915632   -1.845761   -0.000000
      6          6           0       -3.135958   -1.210237   -0.000000
      7         17           0       -4.584111   -2.140213   -0.000000
      8         17           0       -4.672910    1.032153    0.000000
      9          1           0       -2.031757    2.389839    0.000000
     10         17           0        0.685008    1.141391    0.000000
     11          1           0        0.560017   -1.847307   -0.000000
     12          1           0       -1.869947   -3.342539   -0.000000
 ---------------------------------------------------------------------
                    Distance matrix (angstroms):
                    1          2          3          4          5
     1  C    0.000000
     2  C    1.375265   0.000000
     3  C    2.393342   1.375324   0.000000
     4  C    2.754163   2.372942   1.375526   0.000000
     5  C    2.389860   2.738083   2.375341   1.359924   0.000000
     6  C    1.396094   2.391286   2.765456   2.380026   1.375895
     7  Cl   2.719090   3.986729   4.486329   3.957147   2.684675
     8  Cl   1.720660   2.681846   3.969978   4.474700   3.985595
     9  H    2.483368   1.499118   2.484927   3.746768   4.237192
    10  Cl   3.976719   2.691436   1.721188   2.693486   3.960607
    11  H    4.252341   3.745163   2.483253   1.498181   2.475650
    12  H    3.761524   4.235557   3.745723   2.473512   1.497475
                    6          7          8          9         10
     6  C    0.000000
     7  Cl   1.721047   0.000000
     8  Cl   2.718554   3.173608   0.000000
     9  H    3.765609   5.199604   2.969681   0.000000
    10  Cl   4.486640   6.207458   5.359031   2.989888   0.000000
    11  H    3.750479   5.152461   5.972840   4.966961   2.991310
    12  H    2.479818   2.968548   5.195626   5.734662   5.160758
                   11         12
    11  H    0.000000
    12  H    2.853147   0.000000
 Stoichiometry    C6H3Cl3
 Framework group  CS[SG(C6H3Cl3)]
 Deg. of freedom    21
 Full point group                 CS      NOp   2
 Largest Abelian subgroup         CS      NOp   2
 Largest concise Abelian subgroup C1      NOp   1
                         Standard orientation:                         
 ---------------------------------------------------------------------
 Center     Atomic      Atomic             Coordinates (Angstroms)
 Number     Number       Type             X           Y           Z
 ---------------------------------------------------------------------
      1          6           0        0.000000    0.837279   -0.000000
      2          6           0        1.185438    0.140078    0.000000
      3          6           0        1.197051   -1.235196    0.000000
      4          6           0        0.002322   -1.916883    0.000000
      5          6           0       -1.178281   -1.241923   -0.000000
      6          6           0       -1.205840    0.133695   -0.000000
      7         17           0       -2.716388    0.958465   -0.000000
      8         17           0        0.024787    2.557761   -0.000000
      9          1           0        2.482782    0.891247    0.000000
     10         17           0        2.690146   -2.091441    0.000000
     11          1           0        0.007613   -3.415055    0.000000
     12          1           0       -2.469799   -1.999823   -0.000000
 ---------------------------------------------------------------------
 Rotational constants (GHZ):           1.8379361           0.6040217           0.4546161
 Standard basis: VSTO-6G (5D, 7F)
 There are    30 symmetry adapted cartesian basis functions of A'  symmetry.
 There are     9 symmetry adapted cartesian basis functions of A"  symmetry.
 There are    30 symmetry adapted basis functions of A'  symmetry.
 There are     9 symmetry adapted basis functions of A"  symmetry.
    39 basis functions,   234 primitive gaussians,    39 cartesian basis functions
    24 alpha electrons       24 beta electrons
       nuclear repulsion energy       250.7241557492 Hartrees.
 Integral buffers will be    131072 words long.
 Regular integral format.
 Two-electron integral symmetry is turned off.
 Do NDO integrals.
 One-electron integrals computed using PRISM.
 NBasis=    39 RedAO= T EigKep=  1.00D+00  NBF=    30     9
 NBsUse=    39 1.00D-06 EigRej= -1.00D+00 NBFU=    30     9
 Initial guess from the checkpoint file:  "geometry_chks/124ClBz.chk"
 B after Tr=    -0.000000    0.000000    0.000000
         Rot=    0.999999   -0.000000   -0.000000   -0.001419 Ang=  -0.16 deg.
 Initial guess orbital symmetries:
       Occupied  (A') (A') (A') (A') (A') (A') (A') (A') (A') (A')
                 (A') (A") (A') (A") (A") (A') (A') (A') (A') (A")
                 (A') (A') (A") (A")
       Virtual   (A") (A') (A") (A') (A') (A') (A') (A') (A") (A')
                 (A') (A') (A') (A') (A')
 Keep J ints in memory in canonical form, NReq=863709.
 Overlap will be assumed to be unity.
 Requested convergence on RMS density matrix=1.00D-08 within  32 cycles.
 Requested convergence on MAX density matrix=1.00D-06.
 Requested convergence on             energy=1.00D-06.
 No special actions if energy rises.
 Fock symm off for IB=2 I1=    1 I=   31 J=    7 Cut=1.00D-07 Err=2.60D-03
 Fock matrix is not symmetric: symmetry in diagonalization turned off.
 SCF Done:  E(RAM1) =  0.182914033013     A.U. after   13 cycles
            NFock= 12  Conv=0.82D-08     -V/T= 1.0016
 QCSCF skips out because SCF is already converged.
 Calling FoFJK, ICntrl=      2127 FMM=F ISym2X=1 I1Cent= 0 IOpClX= 0 NMat=1 NMatS=1 NMatT=0.
 ***** Axes restored to original set *****
 -------------------------------------------------------------------
 Center     Atomic                   Forces (Hartrees/Bohr)
 Number     Number              X              Y              Z
 -------------------------------------------------------------------
      1        6          -0.028307349    0.015517686    0.000000000
      2        6          -0.004537858    0.128618764    0.000000000
      3        6           0.031495685    0.021279986    0.000000000
      4        6           0.117394156   -0.067807641    0.000000000
      5        6           0.006031302   -0.131620631    0.000000000
      6        6          -0.030748560   -0.017499371   -0.000000000
      7       17           0.011930230    0.006944874   -0.000000000
      8       17           0.012189020   -0.005956707   -0.000000000
      9        1           0.002651896   -0.117114715   -0.000000000
     10       17          -0.010637742   -0.006244770   -0.000000000
     11        1          -0.103376609    0.056304353   -0.000000000
     12        1          -0.004084172    0.117578172   -0.000000000
 -------------------------------------------------------------------
 Cartesian Forces:  Max     0.131620631 RMS     0.052172126

 GradGradGradGradGradGradGradGradGradGradGradGradGradGradGradGradGradGrad
 Berny optimization.
 Using GEDIIS/GDIIS optimizer.
 FormGI is forming the generalized inverse of G from B-inverse, IUseBI=4.
 Internal  Forces:  Max     0.117715091 RMS     0.028557645
 Search for a local minimum.
 Step number   3 out of a maximum of   64
 All quantities printed in internal units (Hartrees-Bohrs-Radians)
 Mixed Optimization -- RFO/linear search
 Update second derivatives using D2CorX and points    2    3
 ITU=  0  1  0
 Use linear search instead of GDIIS.
 Linear search step of   1.132 exceeds DXMaxT=   0.505 scaled by   0.891
 Quartic linear search produced a step of  1.68179.
 Iteration  1 RMS(Cart)=  0.07853212 RMS(Int)=  0.08632811
 Iteration  2 RMS(Cart)=  0.04640455 RMS(Int)=  0.03918810
 Iteration  3 RMS(Cart)=  0.03861514 RMS(Int)=  0.00008391
 Iteration  4 RMS(Cart)=  0.00000032 RMS(Int)=  0.00008391
 ClnCor:  largest displacement from symmetrization is 1.00D-08 for atom     1.
 Variable       Old X    -DE/DX   Delta X   Delta X   Delta X     New X
                                 (Linear)    (Quad)   (Total)
    R1        2.59887   0.01789  -0.06493   0.00000  -0.06506   2.53381
    R2        2.63824   0.01656  -0.02080   0.00000  -0.02093   2.61730
    R3        3.25158  -0.01354  -0.09505   0.00000  -0.09505   3.15653
    R4        2.59898   0.01845  -0.06478   0.00000  -0.06478   2.53420
    R5        2.83292  -0.11714  -0.56443   0.00000  -0.56443   2.26849
    R6        2.59937   0.01947  -0.06433   0.00000  -0.06419   2.53517
    R7        3.25257  -0.01233  -0.09391   0.00000  -0.09391   3.15866
    R8        2.56988   0.01812  -0.09740   0.00000  -0.09727   2.47262
    R9        2.83115  -0.11772  -0.56641   0.00000  -0.56641   2.26475
   R10        2.60006   0.01901  -0.06356   0.00000  -0.06355   2.53651
   R11        2.82982  -0.11765  -0.56789   0.00000  -0.56789   2.26193
   R12        3.25231  -0.01379  -0.09421   0.00000  -0.09421   3.15810
    A1        2.08176  -0.00054  -0.01422   0.00000  -0.01448   2.06728
    A2        2.08804  -0.00105  -0.00710   0.00000  -0.00697   2.08108
    A3        2.11339   0.00160   0.02131   0.00000   0.02145   2.13483
    A4        2.11089   0.00447   0.01847   0.00000   0.01835   2.12924
    A5        2.08510  -0.00257  -0.01041   0.00000  -0.01035   2.07475
    A6        2.08719  -0.00190  -0.00806   0.00000  -0.00800   2.07919
    A7        2.08086  -0.00432  -0.01516   0.00000  -0.01502   2.06584
    A8        2.09992   0.00178   0.00619   0.00000   0.00612   2.10604
    A9        2.10240   0.00254   0.00897   0.00000   0.00890   2.11131
   A10        2.10373  -0.00015   0.01052   0.00000   0.01078   2.11451
   A11        2.08577  -0.00027  -0.00970   0.00000  -0.00983   2.07594
   A12        2.09368   0.00042  -0.00082   0.00000  -0.00095   2.09273
   A13        2.11018   0.00305   0.01773   0.00000   0.01786   2.12804
   A14        2.09156  -0.00083  -0.00318   0.00000  -0.00325   2.08831
   A15        2.08144  -0.00223  -0.01454   0.00000  -0.01461   2.06684
   A16        2.07895  -0.00251  -0.01735   0.00000  -0.01748   2.06147
   A17        2.11364   0.00224   0.02159   0.00000   0.02165   2.13529
   A18        2.09060   0.00028  -0.00424   0.00000  -0.00417   2.08642
    D1        0.00000  -0.00000   0.00000   0.00000  -0.00000   0.00000
    D2        3.14159  -0.00000   0.00000   0.00000   0.00000   3.14159
    D3        3.14159   0.00000   0.00000   0.00000   0.00000   3.14159
    D4       -0.00000  -0.00000   0.00000   0.00000   0.00000   0.00000
    D5        0.00000   0.00000   0.00000   0.00000  -0.00000   0.00000
    D6        3.14159   0.00000   0.00000   0.00000   0.00000   3.14159
    D7        3.14159  -0.00000   0.00000   0.00000   0.00000   3.14159
    D8       -0.00000  -0.00000   0.00000   0.00000   0.00000   0.00000
    D9       -0.00000   0.00000   0.00000   0.00000   0.00000   0.00000
   D10        3.14159  -0.00000   0.00000   0.00000   0.00000   3.14159
   D11        3.14159   0.00000   0.00000   0.00000   0.00000   3.14159
   D12        0.00000   0.00000   0.00000   0.00000  -0.00000   0.00000
   D13        0.00000   0.00000   0.00000   0.00000  -0.00000   0.00000
   D14        3.14159  -0.00000   0.00000   0.00000   0.00000   3.14159
   D15        3.14159   0.00000   0.00000   0.00000   0.00000   3.14159
   D16       -0.00000   0.00000   0.00000   0.00000   0.00000   0.00000
   D17       -0.00000  -0.00000   0.00000   0.00000   0.00000   0.00000
   D18        3.14159  -0.00000   0.00000   0.00000   0.00000   3.14159
   D19        3.14159   0.00000   0.00000   0.00000   0.00000   3.14159
   D20        0.00000  -0.00000   0.00000   0.00000   0.00000   0.00000
   D21       -0.00000  -0.00000   0.00000   0.00000   0.00000   0.00000
   D22        3.14159  -0.00000   0.00000   0.00000   0.00000   3.14159
   D23        3.14159   0.00000   0.00000   0.00000   0.00000   3.14159
   D24        0.00000   0.00000   0.00000   0.00000  -0.00000   0.00000
         Item               Value     Threshold  Converged?
 Maximum Force            0.117715     0.000450     NO 
 RMS     Force            0.028558     0.000300     NO 
 Maximum Displacement     0.657214     0.001800     NO 
 RMS     Displacement     0.157016     0.001200     NO 
 Predicted change in Energy=-1.750573D-01
 GradGradGradGradGradGradGradGradGradGradGradGradGradGradGradGradGradGrad

                          Input orientation:                          
 ---------------------------------------------------------------------
 Center     Atomic      Atomic             Coordinates (Angstroms)
 Number     Number       Type             X           Y           Z
 ---------------------------------------------------------------------
      1          6           0       -3.136010    0.169543    0.000000
      2          6           0       -1.975929    0.841895    0.000000
      3          6           0       -0.790853    0.214212    0.000000
      4          6           0       -0.780187   -1.127301   -0.000000
      5          6           0       -1.894535   -1.813067   -0.000000
      6          6           0       -3.096147   -1.214899   -0.000000
      7         17           0       -4.481754   -2.149233   -0.000000
      8         17           0       -4.572755    1.021525    0.000000
      9          1           0       -2.001504    2.042056    0.000000
     10         17           0        0.635480    1.085685    0.000000
     11          1           0        0.273160   -1.698918    0.000000
     12          1           0       -1.853665   -3.009329   -0.000000
 ---------------------------------------------------------------------
                    Distance matrix (angstroms):
                    1          2          3          4          5
     1  C    0.000000
     2  C    1.340837   0.000000
     3  C    2.345582   1.341041   0.000000
     4  C    2.689183   2.303808   1.341556   0.000000
     5  C    2.339231   2.656209   2.308241   1.308452   0.000000
     6  C    1.385016   2.342070   2.712331   2.317616   1.342265
     7  Cl   2.680998   3.902051   4.382764   3.840044   2.608966
     8  Cl   1.670363   2.603031   3.867110   4.359016   3.899715
     9  H    2.189385   1.200434   2.192416   3.396534   3.856607
    10  Cl   3.881166   2.622764   1.671493   2.627056   3.847563
    11  H    3.887620   3.393248   2.189108   1.198452   2.170699
    12  H    3.427774   3.853164   3.394229   2.166653   1.196960
                    6          7          8          9         10
     6  C    0.000000
     7  Cl   1.671193   0.000000
     8  Cl   2.679919   3.172064   0.000000
     9  H    3.435986   4.870169   2.766373   0.000000
    10  Cl   4.383803   6.053988   5.208630   2.805054   0.000000
    11  H    3.403896   4.776190   5.557311   4.378240   2.808076
    12  H    2.182599   2.765251   4.862225   5.053548   4.792180
                   11         12
    11  H    0.000000
    12  H    2.498112   0.000000
 Stoichiometry    C6H3Cl3
 Framework group  CS[SG(C6H3Cl3)]
 Deg. of freedom    21
 Full point group                 CS      NOp   2
 Largest Abelian subgroup         CS      NOp   2
 Largest concise Abelian subgroup C1      NOp   1
                         Standard orientation:                         
 ---------------------------------------------------------------------
 Center     Atomic      Atomic             Coordinates (Angstroms)
 Number     Number       Type             X           Y           Z
 ---------------------------------------------------------------------
      1          6           0        0.000000    0.831559   -0.000000
      2          6           0        1.149774    0.141731   -0.000000
      3          6           0        1.173973   -1.199092   -0.000000
      4          6           0        0.005164   -1.857619    0.000000
      5          6           0       -1.134218   -1.214304    0.000000
      6          6           0       -1.192247    0.126707    0.000000
      7         17           0       -2.680423    0.887114    0.000000
      8         17           0        0.050297    2.501164   -0.000000
      9          1           0        2.187670    0.744901   -0.000000
     10         17           0        2.626847   -2.025559   -0.000000
     11          1           0        0.014680   -3.056033    0.000000
     12          1           0       -2.161299   -1.828972    0.000000
 ---------------------------------------------------------------------
 Rotational constants (GHZ):           1.9072635           0.6396418           0.4789991
 Standard basis: VSTO-6G (5D, 7F)
 There are    30 symmetry adapted cartesian basis functions of A'  symmetry.
 There are     9 symmetry adapted cartesian basis functions of A"  symmetry.
 There are    30 symmetry adapted basis functions of A'  symmetry.
 There are     9 symmetry adapted basis functions of A"  symmetry.
    39 basis functions,   234 primitive gaussians,    39 cartesian basis functions
    24 alpha electrons       24 beta electrons
       nuclear repulsion energy       256.1717876339 Hartrees.
 Integral buffers will be    131072 words long.
 Regular integral format.
 Two-electron integral symmetry is turned off.
 Do NDO integrals.
 One-electron integrals computed using PRISM.
 NBasis=    39 RedAO= T EigKep=  1.00D+00  NBF=    30     9
 NBsUse=    39 1.00D-06 EigRej= -1.00D+00 NBFU=    30     9
 Initial guess from the checkpoint file:  "geometry_chks/124ClBz.chk"
 B after Tr=     0.000000   -0.000000   -0.000000
         Rot=    0.999997    0.000000   -0.000000   -0.002581 Ang=  -0.30 deg.
 Initial guess orbital symmetries:
       Occupied  (A') (A') (A') (A') (A') (A') (A') (A') (A') (A')
                 (A') (A") (A') (A") (A') (A") (A') (A') (A') (A')
                 (A") (A') (A") (A")
       Virtual   (A") (A") (A') (A') (A') (A') (A') (A') (A") (A')
                 (A') (A') (A') (A') (A')
 Keep J ints in memory in canonical form, NReq=863709.
 Overlap will be assumed to be unity.
 Requested convergence on RMS density matrix=1.00D-08 within  32 cycles.
 Requested convergence on MAX density matrix=1.00D-06.
 Requested convergence on             energy=1.00D-06.
 No special actions if energy rises.
 Fock symm off for IB=2 I1=    1 I=   31 J=    5 Cut=1.00D-07 Err=8.57D-03
 Fock matrix is not symmetric: symmetry in diagonalization turned off.
 SCF Done:  E(RAM1) =  0.502865512673E-01 A.U. after   12 cycles
            NFock= 11  Conv=0.62D-08     -V/T= 1.0004
 QCSCF skips out because SCF is already converged.
 Calling FoFJK, ICntrl=      2127 FMM=F ISym2X=1 I1Cent= 0 IOpClX= 0 NMat=1 NMatS=1 NMatT=0.
 ***** Axes restored to original set *****
 -------------------------------------------------------------------
 Center     Atomic                   Forces (Hartrees/Bohr)
 Number     Number              X              Y              Z
 -------------------------------------------------------------------
      1        6          -0.059825208   -0.005775587    0.000000000
      2        6          -0.005214388    0.141810427    0.000000000
      3        6           0.058853617    0.040167383    0.000000000
      4        6           0.156551276   -0.053715665    0.000000000
      5        6          -0.025260004   -0.156133894    0.000000000
      6        6          -0.066113712    0.001776464   -0.000000000
      7       17          -0.017996824   -0.008661420    0.000000000
      8       17          -0.019246611    0.008177340   -0.000000000
      9        1           0.000921675   -0.047379058   -0.000000000
     10       17           0.019811986    0.012266498   -0.000000000
     11        1          -0.041540970    0.021719751   -0.000000000
     12        1          -0.000940838    0.045747763   -0.000000000
 -------------------------------------------------------------------
 Cartesian Forces:  Max     0.156551276 RMS     0.050970208

 GradGradGradGradGradGradGradGradGradGradGradGradGradGradGradGradGradGrad
 Berny optimization.
 Using GEDIIS/GDIIS optimizer.
 FormGI is forming the generalized inverse of G from B-inverse, IUseBI=4.
 Internal  Forces:  Max     0.126435233 RMS     0.034284157
 Search for a local minimum.
 Step number   4 out of a maximum of   64
 All quantities printed in internal units (Hartrees-Bohrs-Radians)
 Mixed Optimization -- RFO/linear search
 Update second derivatives using D2CorX and points    3    4
 ITU=  0  0  1  0
 Use linear search instead of GDIIS.
     Eigenvalues ---    0.02011   0.02011   0.02011   0.02011   0.02011
     Eigenvalues ---    0.02011   0.02011   0.02011   0.02011   0.06523
     Eigenvalues ---    0.06524   0.09314   0.16000   0.16000   0.16001
     Eigenvalues ---    0.22345   0.23482   0.24578   0.24999   0.25000
     Eigenvalues ---    0.25009   0.28256   0.29033   0.29036   0.40482
     Eigenvalues ---    0.41000   0.44634   0.44657   0.44657   0.62720
 RFO step:  Lambda=-1.26949527D-01 EMin= 2.01065781D-02
 Quartic linear search produced a step of  0.11822.
 Maximum step size (   0.505) exceeded in Quadratic search.
    -- Step size scaled by   0.914
 Iteration  1 RMS(Cart)=  0.06381859 RMS(Int)=  0.01504895
 Iteration  2 RMS(Cart)=  0.01486347 RMS(Int)=  0.00019389
 Iteration  3 RMS(Cart)=  0.00001622 RMS(Int)=  0.00019348
 Iteration  4 RMS(Cart)=  0.00000000 RMS(Int)=  0.00019348
 ClnCor:  largest displacement from symmetrization is 9.64D-09 for atom     7.
 Variable       Old X    -DE/DX   Delta X   Delta X   Delta X     New X
                                 (Linear)    (Quad)   (Total)
    R1        2.53381   0.09498  -0.00769   0.14364   0.13569   2.66951
    R2        2.61730   0.05355  -0.00247   0.07946   0.07667   2.69397
    R3        3.15653   0.02073  -0.01124   0.04759   0.03635   3.19288
    R4        2.53420   0.09482  -0.00766   0.14536   0.13775   2.67195
    R5        2.26849  -0.04739  -0.06672  -0.19976  -0.26649   2.00201
    R6        2.53517   0.09571  -0.00759   0.14857   0.14131   2.67648
    R7        3.15866   0.02330  -0.01110   0.05280   0.04170   3.20036
    R8        2.47262   0.12644  -0.01150   0.19554   0.18430   2.65692
    R9        2.26475  -0.04687  -0.06696  -0.19763  -0.26459   2.00016
   R10        2.53651   0.09519  -0.00751   0.14567   0.13811   2.67462
   R11        2.26193  -0.04575  -0.06713  -0.19267  -0.25981   2.00212
   R12        3.15810   0.01976  -0.01114   0.04556   0.03442   3.19251
    A1        2.06728   0.01043  -0.00171   0.01797   0.01566   2.08293
    A2        2.08108  -0.00082  -0.00082   0.00172   0.00120   2.08227
    A3        2.13483  -0.00961   0.00254  -0.01969  -0.01685   2.11798
    A4        2.12924   0.00047   0.00217  -0.00237  -0.00041   2.12882
    A5        2.07475  -0.00033  -0.00122   0.00091  -0.00020   2.07455
    A6        2.07919  -0.00013  -0.00095   0.00146   0.00062   2.07981
    A7        2.06584  -0.00194  -0.00178   0.00009  -0.00130   2.06454
    A8        2.10604   0.00075   0.00072  -0.00047   0.00006   2.10611
    A9        2.11131   0.00119   0.00105   0.00038   0.00124   2.11254
   A10        2.11451  -0.00995   0.00127  -0.01744  -0.01556   2.09895
   A11        2.07594   0.00579  -0.00116   0.01141   0.00995   2.08589
   A12        2.09273   0.00415  -0.00011   0.00603   0.00561   2.09835
   A13        2.12804  -0.00485   0.00211  -0.00899  -0.00666   2.12138
   A14        2.08831   0.00172  -0.00038   0.00212   0.00163   2.08994
   A15        2.06684   0.00313  -0.00173   0.00687   0.00503   2.07187
   A16        2.06147   0.00583  -0.00207   0.01073   0.00828   2.06975
   A17        2.13529  -0.00746   0.00256  -0.01636  -0.01361   2.12168
   A18        2.08642   0.00163  -0.00049   0.00563   0.00533   2.09175
    D1        0.00000   0.00000   0.00000   0.00000  -0.00000   0.00000
    D2        3.14159  -0.00000   0.00000  -0.00000   0.00000   3.14159
    D3        3.14159   0.00000   0.00000   0.00000   0.00000   3.14159
    D4       -0.00000   0.00000   0.00000   0.00000   0.00000   0.00000
    D5       -0.00000  -0.00000   0.00000   0.00000   0.00000   0.00000
    D6        3.14159   0.00000   0.00000   0.00000   0.00000   3.14159
    D7        3.14159  -0.00000   0.00000  -0.00000   0.00000   3.14159
    D8        0.00000  -0.00000   0.00000  -0.00000  -0.00000   0.00000
    D9       -0.00000  -0.00000   0.00000  -0.00000   0.00000   0.00000
   D10        3.14159  -0.00000   0.00000  -0.00000   0.00000   3.14159
   D11        3.14159   0.00000   0.00000   0.00000   0.00000   3.14159
   D12        0.00000  -0.00000   0.00000  -0.00000  -0.00000   0.00000
   D13       -0.00000   0.00000   0.00000   0.00000   0.00000   0.00000
   D14        3.14159  -0.00000   0.00000  -0.00000   0.00000   3.14159
   D15        3.14159   0.00000   0.00000   0.00000   0.00000   3.14159
   D16        0.00000   0.00000   0.00000   0.00000  -0.00000   0.00000
   D17        0.00000   0.00000   0.00000  -0.00000  -0.00000   0.00000
   D18        3.14159  -0.00000   0.00000  -0.00000   0.00000   3.14159
   D19        3.14159   0.00000   0.00000   0.00000   0.00000   3.14159
   D20       -0.00000  -0.00000   0.00000   0.00000   0.00000   0.00000
   D21       -0.00000   0.00000   0.00000  -0.00000   0.00000   0.00000
   D22        3.14159  -0.00000   0.00000  -0.00000   0.00000   3.14159
   D23        3.14159   0.00000   0.00000   0.00000   0.00000   3.14159
   D24       -0.00000   0.00000   0.00000   0.00000   0.00000   0.00000
         Item               Value     Threshold  Converged?
 Maximum Force            0.126435     0.000450     NO 
 RMS     Force            0.034284     0.000300     NO 
 Maximum Displacement     0.177377     0.001800     NO 
 RMS     Displacement     0.068083     0.001200     NO 
 Predicted change in Energy=-8.599089D-02
 GradGradGradGradGradGradGradGradGradGradGradGradGradGradGradGradGradGrad

                          Input orientation:                          
 ---------------------------------------------------------------------
 Center     Atomic      Atomic             Coordinates (Angstroms)
 Number     Number       Type             X           Y           Z
 ---------------------------------------------------------------------
      1          6           0       -3.179903    0.179367   -0.000000
      2          6           0       -1.964707    0.899683    0.000000
      3          6           0       -0.709051    0.249655    0.000000
      4          6           0       -0.686323   -1.166495    0.000000
      5          6           0       -1.889199   -1.894417   -0.000000
      6          6           0       -3.147202   -1.245845   -0.000000
      7         17           0       -4.566016   -2.162939   -0.000000
      8         17           0       -4.642594    1.025108    0.000000
      9          1           0       -1.997885    1.958579    0.000000
     10         17           0        0.727804    1.146084    0.000000
     11          1           0        0.243028   -1.673051    0.000000
     12          1           0       -1.862652   -2.953560   -0.000000
 ---------------------------------------------------------------------
                    Distance matrix (angstroms):
                    1          2          3          4          5
     1  C    0.000000
     2  C    1.412642   0.000000
     3  C    2.471851   1.413933   0.000000
     4  C    2.833599   2.429682   1.416332   0.000000
     5  C    2.442641   2.795120   2.447405   1.405981   0.000000
     6  C    1.425587   2.449814   2.860262   2.462157   1.415350
     7  Cl   2.721710   4.018266   4.549371   4.005610   2.690251
     8  Cl   1.689599   2.680824   4.009251   4.522743   4.013080
     9  H    2.136062   1.059416   2.140447   3.389141   3.854529
    10  Cl   4.025508   2.703762   1.693558   2.710678   4.011652
    11  H    3.892031   3.390140   2.145519   1.058439   2.143688
    12  H    3.398585   3.854594   3.404611   2.139475   1.059476
                    6          7          8          9         10
     6  C    0.000000
     7  Cl   1.689406   0.000000
     8  Cl   2.719086   3.188967   0.000000
     9  H    3.404301   4.856151   2.804614   0.000000
    10  Cl   4.553789   6.242929   5.371761   2.844210   0.000000
    11  H    3.417040   4.833931   5.581162   4.267368   2.860512
    12  H    2.136904   2.816604   4.853646   4.914000   4.849489
                   11         12
    11  H    0.000000
    12  H    2.464466   0.000000
 Stoichiometry    C6H3Cl3
 Framework group  CS[SG(C6H3Cl3)]
 Deg. of freedom    21
 Full point group                 CS      NOp   2
 Largest Abelian subgroup         CS      NOp   2
 Largest concise Abelian subgroup C1      NOp   1
                         Standard orientation:                         
 ---------------------------------------------------------------------
 Center     Atomic      Atomic             Coordinates (Angstroms)
 Number     Number       Type             X           Y           Z
 ---------------------------------------------------------------------
      1          6           0        0.000000    0.866956    0.000000
      2          6           0        1.205520    0.130560    0.000000
      3          6           0        1.219187   -1.283307   -0.000000
      4          6           0       -0.021441   -1.966561   -0.000000
      5          6           0       -1.227913   -1.244613   -0.000000
      6          6           0       -1.243966    0.170645    0.000000
      7         17           0       -2.718705    0.994803    0.000000
      8         17           0        0.062306    2.555406    0.000000
      9          1           0        2.125595    0.655749    0.000000
     10         17           0        2.684117   -2.133082   -0.000000
     11          1           0       -0.033812   -3.024928   -0.000000
     12          1           0       -2.151311   -1.764060   -0.000000
 ---------------------------------------------------------------------
 Rotational constants (GHZ):           1.8433598           0.5969787           0.4509401
 Standard basis: VSTO-6G (5D, 7F)
 There are    30 symmetry adapted cartesian basis functions of A'  symmetry.
 There are     9 symmetry adapted cartesian basis functions of A"  symmetry.
 There are    30 symmetry adapted basis functions of A'  symmetry.
 There are     9 symmetry adapted basis functions of A"  symmetry.
    39 basis functions,   234 primitive gaussians,    39 cartesian basis functions
    24 alpha electrons       24 beta electrons
       nuclear repulsion energy       251.9346069865 Hartrees.
 Integral buffers will be    131072 words long.
 Regular integral format.
 Two-electron integral symmetry is turned off.
 Do NDO integrals.
 One-electron integrals computed using PRISM.
 NBasis=    39 RedAO= T EigKep=  1.00D+00  NBF=    30     9
 NBsUse=    39 1.00D-06 EigRej= -1.00D+00 NBFU=    30     9
 Initial guess from the checkpoint file:  "geometry_chks/124ClBz.chk"
 B after Tr=    -0.000000    0.000000    0.000000
         Rot=    0.999962   -0.000000    0.000000    0.008748 Ang=   1.00 deg.
 Initial guess orbital symmetries:
       Occupied  (A') (A') (A') (A') (A') (A') (A') (A') (A') (A')
                 (A') (A") (A') (A') (A") (A') (A") (A') (A') (A")
                 (A') (A') (A") (A")
       Virtual   (A") (A") (A') (A') (A') (A") (A') (A') (A') (A')
                 (A') (A') (A') (A') (A')
 Keep J ints in memory in canonical form, NReq=863709.
 Overlap will be assumed to be unity.
 Requested convergence on RMS density matrix=1.00D-08 within  32 cycles.
 Requested convergence on MAX density matrix=1.00D-06.
 Requested convergence on             energy=1.00D-06.
 No special actions if energy rises.
 Fock symm off for IB=2 I1=    1 I=   31 J=    5 Cut=1.00D-07 Err=7.49D-03
 Fock matrix is not symmetric: symmetry in diagonalization turned off.
 SCF Done:  E(RAM1) =  0.110847890820E-01 A.U. after   14 cycles
            NFock= 13  Conv=0.67D-08     -V/T= 1.0001
 QCSCF skips out because SCF is already converged.
 Calling FoFJK, ICntrl=      2127 FMM=F ISym2X=1 I1Cent= 0 IOpClX= 0 NMat=1 NMatS=1 NMatT=0.
 ***** Axes restored to original set *****
 -------------------------------------------------------------------
 Center     Atomic                   Forces (Hartrees/Bohr)
 Number     Number              X              Y              Z
 -------------------------------------------------------------------
      1        6           0.020911516   -0.020512465    0.000000000
      2        6           0.003467246   -0.036870696    0.000000000
      3        6          -0.028263061   -0.018003745    0.000000000
      4        6          -0.036902732    0.026585299    0.000000000
      5        6          -0.005126905    0.044504330    0.000000000
      6        6           0.020452054    0.020726408   -0.000000000
      7       17           0.001025121    0.000919618    0.000000000
      8       17           0.000421978   -0.000445081   -0.000000000
      9        1          -0.001101373    0.031721991   -0.000000000
     10       17          -0.003295353   -0.001976639    0.000000000
     11        1           0.026286764   -0.016005260   -0.000000000
     12        1           0.002124745   -0.030643761   -0.000000000
 -------------------------------------------------------------------
 Cartesian Forces:  Max     0.044504330 RMS     0.017631327

 GradGradGradGradGradGradGradGradGradGradGradGradGradGradGradGradGradGrad
 Berny optimization.
 Using GEDIIS/GDIIS optimizer.
 FormGI is forming the generalized inverse of G from B-inverse, IUseBI=4.
 Internal  Forces:  Max     0.031740923 RMS     0.010652580
 Search for a local minimum.
 Step number   5 out of a maximum of   64
 All quantities printed in internal units (Hartrees-Bohrs-Radians)
 Mixed Optimization -- RFO/linear search
 Update second derivatives using D2CorX and points    4    5
 DE= -3.92D-02 DEPred=-8.60D-02 R= 4.56D-01
 Trust test= 4.56D-01 RLast= 5.75D-01 DXMaxT set to 5.05D-01
 ITU=  0  0  0  1  0
 Use linear search instead of GDIIS.
     Eigenvalues ---    0.02011   0.02011   0.02011   0.02011   0.02011
     Eigenvalues ---    0.02011   0.02011   0.02011   0.02011   0.06524
     Eigenvalues ---    0.06525   0.15993   0.16000   0.16000   0.19071
     Eigenvalues ---    0.22385   0.23596   0.24604   0.24999   0.25000
     Eigenvalues ---    0.25006   0.28345   0.29033   0.29042   0.40761
     Eigenvalues ---    0.41233   0.44590   0.44656   0.44661   0.72255
 RFO step:  Lambda=-4.85350989D-03 EMin= 2.01065790D-02
 Quartic linear search produced a step of -0.25788.
 Iteration  1 RMS(Cart)=  0.03418070 RMS(Int)=  0.00011314
 Iteration  2 RMS(Cart)=  0.00013226 RMS(Int)=  0.00004986
 Iteration  3 RMS(Cart)=  0.00000001 RMS(Int)=  0.00004986
 ClnCor:  largest displacement from symmetrization is 3.16D-11 for atom     9.
 Variable       Old X    -DE/DX   Delta X   Delta X   Delta X     New X
                                 (Linear)    (Quad)   (Total)
    R1        2.66951  -0.02124  -0.03499   0.01820  -0.01672   2.65279
    R2        2.69397  -0.02569  -0.01977  -0.01310  -0.03280   2.66117
    R3        3.19288  -0.00059  -0.00937   0.01776   0.00838   3.20126
    R4        2.67195  -0.02170  -0.03552   0.01864  -0.01688   2.65506
    R5        2.00201   0.03174   0.06872   0.06728   0.13600   2.13800
    R6        2.67648  -0.02025  -0.03644   0.02256  -0.01396   2.66252
    R7        3.20036  -0.00384  -0.01075   0.01154   0.00079   3.20115
    R8        2.65692  -0.02042  -0.04753   0.03883  -0.00878   2.64814
    R9        2.00016   0.03074   0.06823   0.05676   0.12499   2.12515
   R10        2.67462  -0.02048  -0.03562   0.02034  -0.01528   2.65934
   R11        2.00212   0.03069   0.06700   0.05879   0.12579   2.12791
   R12        3.19251  -0.00136  -0.00888   0.01499   0.00612   3.19863
    A1        2.08293   0.00318  -0.00404   0.01557   0.01169   2.09462
    A2        2.08227  -0.00131  -0.00031  -0.00273  -0.00311   2.07916
    A3        2.11798  -0.00187   0.00435  -0.01284  -0.00857   2.10941
    A4        2.12882  -0.00964   0.00011  -0.03111  -0.03093   2.09790
    A5        2.07455   0.00471   0.00005   0.01483   0.01485   2.08940
    A6        2.07981   0.00493  -0.00016   0.01628   0.01608   2.09589
    A7        2.06454   0.00944   0.00034   0.02943   0.02969   2.09423
    A8        2.10611  -0.00483  -0.00002  -0.01520  -0.01518   2.09092
    A9        2.11254  -0.00461  -0.00032  -0.01423  -0.01451   2.09803
   A10        2.09895  -0.00330   0.00401  -0.01480  -0.01094   2.08801
   A11        2.08589   0.00312  -0.00257   0.01516   0.01268   2.09857
   A12        2.09835   0.00018  -0.00145  -0.00037  -0.00174   2.09661
   A13        2.12138  -0.00484   0.00172  -0.01769  -0.01605   2.10533
   A14        2.08994   0.00106  -0.00042   0.00186   0.00148   2.09141
   A15        2.07187   0.00378  -0.00130   0.01583   0.01457   2.08644
   A16        2.06975   0.00516  -0.00214   0.01859   0.01654   2.08629
   A17        2.12168  -0.00292   0.00351  -0.01467  -0.01120   2.11048
   A18        2.09175  -0.00223  -0.00137  -0.00393  -0.00534   2.08641
    D1       -0.00000  -0.00000   0.00000  -0.00000   0.00000   0.00000
    D2        3.14159  -0.00000   0.00000  -0.00000   0.00000   3.14159
    D3        3.14159   0.00000   0.00000   0.00000   0.00000   3.14159
    D4        0.00000  -0.00000   0.00000  -0.00000   0.00000   0.00000
    D5        0.00000   0.00000   0.00000   0.00000   0.00000   0.00000
    D6        3.14159   0.00000   0.00000   0.00000   0.00000   3.14159
    D7        3.14159  -0.00000   0.00000  -0.00000   0.00000   3.14159
    D8        0.00000  -0.00000   0.00000  -0.00000   0.00000   0.00000
    D9        0.00000   0.00000   0.00000   0.00000   0.00000   0.00000
   D10        3.14159   0.00000   0.00000  -0.00000   0.00000   3.14159
   D11        3.14159   0.00000   0.00000   0.00000   0.00000   3.14159
   D12        0.00000   0.00000   0.00000   0.00000  -0.00000   0.00000
   D13       -0.00000  -0.00000   0.00000   0.00000   0.00000   0.00000
   D14        3.14159  -0.00000   0.00000  -0.00000   0.00000   3.14159
   D15        3.14159   0.00000   0.00000   0.00000   0.00000   3.14159
   D16        0.00000  -0.00000   0.00000  -0.00000   0.00000   0.00000
   D17        0.00000  -0.00000   0.00000  -0.00000   0.00000   0.00000
   D18        3.14159  -0.00000   0.00000  -0.00000   0.00000   3.14159
   D19        3.14159   0.00000   0.00000   0.00000   0.00000   3.14159
   D20       -0.00000   0.00000   0.00000   0.00000   0.00000   0.00000
   D21       -0.00000   0.00000   0.00000   0.00000   0.00000   0.00000
[...]
 Swapping is turned off.
 Update second derivatives using D2CorX and points    4    5    6    8    7
                                                      9   10
 DE= -7.86D-06 DEPred=-9.04D-06 R= 8.70D-01
 TightC=F SS=  1.41D+00  RLast= 6.56D-03 DXNew= 5.9886D-01 1.9672D-02
 Trust test= 8.70D-01 RLast= 6.56D-03 DXMaxT set to 3.56D-01
 ITU=  1  1 -1  1  1  0  0  0  1  0
     Eigenvalues ---    0.02011   0.02011   0.02011   0.02011   0.02011
     Eigenvalues ---    0.02011   0.02011   0.02011   0.02011   0.06548
     Eigenvalues ---    0.15603   0.15958   0.16000   0.18179   0.22496
     Eigenvalues ---    0.24203   0.24955   0.24990   0.25276   0.27657
     Eigenvalues ---    0.28991   0.29100   0.33779   0.34506   0.42560
     Eigenvalues ---    0.43649   0.44627   0.45571   0.59661   0.79793
 En-DIIS/RFO-DIIS/Sim-DIIS IScMMF=       -3 using points:    10    9
 RFO step:  Lambda=-8.55089457D-07.
 DidBck=F Rises=F RFO-DIIS coefs:    0.89443    0.10557
 Iteration  1 RMS(Cart)=  0.00033415 RMS(Int)=  0.00000002
 Iteration  2 RMS(Cart)=  0.00000003 RMS(Int)=  0.00000001
 ClnCor:  largest displacement from symmetrization is 2.44D-12 for atom     7.
 Variable       Old X    -DE/DX   Delta X   Delta X   Delta X     New X
                                 (Linear)    (Quad)   (Total)
    R1        2.64375   0.00002   0.00012  -0.00003   0.00010   2.64385
    R2        2.65185   0.00024   0.00038  -0.00004   0.00034   2.65218
    R3        3.20295   0.00014   0.00014   0.00021   0.00035   3.20330
    R4        2.63959  -0.00021   0.00005  -0.00040  -0.00034   2.63924
    R5        2.08293  -0.00022  -0.00009  -0.00044  -0.00053   2.08240
    R6        2.64401  -0.00011  -0.00007  -0.00009  -0.00016   2.64386
    R7        3.20837  -0.00009   0.00009  -0.00039  -0.00030   3.20807
    R8        2.62999  -0.00028  -0.00016  -0.00027  -0.00043   2.62957
    R9        2.08056  -0.00002   0.00014  -0.00111  -0.00097   2.07959
   R10        2.64544  -0.00004   0.00001  -0.00003  -0.00003   2.64541
   R11        2.08123   0.00016   0.00021   0.00109   0.00130   2.08252
   R12        3.20237   0.00009   0.00013   0.00009   0.00023   3.20259
    A1        2.09574  -0.00011  -0.00010  -0.00010  -0.00021   2.09553
    A2        2.07360  -0.00002  -0.00005  -0.00002  -0.00007   2.07353
    A3        2.11385   0.00012   0.00015   0.00012   0.00028   2.11413
    A4        2.08598  -0.00001   0.00010  -0.00018  -0.00009   2.08589
    A5        2.09503   0.00000  -0.00001   0.00002   0.00000   2.09503
    A6        2.10218   0.00001  -0.00008   0.00016   0.00008   2.10226
    A7        2.10613   0.00008  -0.00010   0.00036   0.00025   2.10638
    A8        2.08633  -0.00004   0.00008  -0.00020  -0.00012   2.08621
    A9        2.09073  -0.00005   0.00002  -0.00016  -0.00013   2.09060
   A10        2.08769   0.00005   0.00013  -0.00013   0.00001   2.08770
   A11        2.10159  -0.00001  -0.00009   0.00014   0.00006   2.10165
   A12        2.09390  -0.00003  -0.00005  -0.00001  -0.00006   2.09384
   A13        2.10047   0.00001   0.00009  -0.00012  -0.00003   2.10044
   A14        2.09069  -0.00001  -0.00006   0.00005  -0.00001   2.09069
   A15        2.09202   0.00000  -0.00004   0.00008   0.00004   2.09206
   A16        2.09036  -0.00002  -0.00011   0.00018   0.00006   2.09043
   A17        2.11402   0.00008   0.00019  -0.00005   0.00014   2.11416
   A18        2.07880  -0.00006  -0.00008  -0.00013  -0.00021   2.07860
    D1       -0.00000  -0.00000   0.00000  -0.00000   0.00000   0.00000
    D2        3.14159  -0.00000   0.00000  -0.00000   0.00000   3.14159
    D3        3.14159   0.00000   0.00000   0.00000   0.00000   3.14159
    D4        0.00000  -0.00000   0.00000   0.00000   0.00000   0.00000
    D5        0.00000   0.00000   0.00000   0.00000  -0.00000   0.00000
    D6        3.14159   0.00000   0.00000   0.00000   0.00000   3.14159
    D7        3.14159  -0.00000   0.00000  -0.00000   0.00000   3.14159
    D8        0.00000  -0.00000   0.00000  -0.00000  -0.00000   0.00000
    D9        0.00000   0.00000   0.00000   0.00000   0.00000   0.00000
   D10        3.14159  -0.00000   0.00000  -0.00000   0.00000   3.14159
   D11        3.14159   0.00000   0.00000   0.00000   0.00000   3.14159
   D12       -0.00000   0.00000   0.00000   0.00000   0.00000   0.00000
   D13       -0.00000  -0.00000   0.00000   0.00000   0.00000   0.00000
   D14        3.14159  -0.00000   0.00000  -0.00000   0.00000   3.14159
   D15        3.14159   0.00000   0.00000   0.00000   0.00000   3.14159
   D16       -0.00000   0.00000   0.00000   0.00000   0.00000   0.00000
   D17        0.00000  -0.00000   0.00000  -0.00000  -0.00000   0.00000
   D18        3.14159  -0.00000   0.00000  -0.00000   0.00000   3.14159
   D19        3.14159   0.00000   0.00000   0.00000   0.00000   3.14159
   D20       -0.00000  -0.00000   0.00000   0.00000   0.00000   0.00000
   D21       -0.00000   0.00000   0.00000   0.00000   0.00000   0.00000
   D22        3.14159  -0.00000   0.00000  -0.00000   0.00000   3.14159
   D23        3.14159   0.00000   0.00000   0.00000   0.00000   3.14159
   D24        0.00000   0.00000   0.00000   0.00000  -0.00000   0.00000
         Item               Value     Threshold  Converged?
 Maximum Force            0.000281     0.000450     YES
 RMS     Force            0.000081     0.000300     YES
 Maximum Displacement     0.001120     0.001800     YES
 RMS     Displacement     0.000334     0.001200     YES
 Predicted change in Energy=-4.275468D-07
 Optimization completed.
    -- Stationary point found.
                           ----------------------------
                           !   Optimized Parameters   !
                           ! (Angstroms and Degrees)  !
 --------------------------                            --------------------------
 ! Name  Definition              Value          Derivative Info.                !
 --------------------------------------------------------------------------------
 ! R1    R(1,2)                  1.399          -DE/DX =    0.0                 !
 ! R2    R(1,6)                  1.4033         -DE/DX =    0.0002              !
 ! R3    R(1,8)                  1.6949         -DE/DX =    0.0001              !
 ! R4    R(2,3)                  1.3968         -DE/DX =   -0.0002              !
 ! R5    R(2,9)                  1.1022         -DE/DX =   -0.0002              !
 ! R6    R(3,4)                  1.3992         -DE/DX =   -0.0001              !
 ! R7    R(3,10)                 1.6978         -DE/DX =   -0.0001              !
 ! R8    R(4,5)                  1.3917         -DE/DX =   -0.0003              !
 ! R9    R(4,11)                 1.101          -DE/DX =    0.0                 !
 ! R10   R(5,6)                  1.3999         -DE/DX =    0.0                 !
 ! R11   R(5,12)                 1.1013         -DE/DX =    0.0002              !
 ! R12   R(6,7)                  1.6946         -DE/DX =    0.0001              !
 ! A1    A(2,1,6)              120.0769         -DE/DX =   -0.0001              !
 ! A2    A(2,1,8)              118.8085         -DE/DX =    0.0                 !
 ! A3    A(6,1,8)              121.1146         -DE/DX =    0.0001              !
 ! A4    A(1,2,3)              119.5177         -DE/DX =    0.0                 !
 ! A5    A(1,2,9)              120.0363         -DE/DX =    0.0                 !
 ! A6    A(3,2,9)              120.446          -DE/DX =    0.0                 !
 ! A7    A(2,3,4)              120.6723         -DE/DX =    0.0001              !
 ! A8    A(2,3,10)             119.5377         -DE/DX =    0.0                 !
 ! A9    A(4,3,10)             119.79           -DE/DX =    0.0                 !
 ! A10   A(3,4,5)              119.616          -DE/DX =    0.0                 !
 ! A11   A(3,4,11)             120.4124         -DE/DX =    0.0                 !
 ! A12   A(5,4,11)             119.9717         -DE/DX =    0.0                 !
 ! A13   A(4,5,6)              120.3481         -DE/DX =    0.0                 !
 ! A14   A(4,5,12)             119.788          -DE/DX =    0.0                 !
 ! A15   A(6,5,12)             119.8639         -DE/DX =    0.0                 !
 ! A16   A(1,6,5)              119.769          -DE/DX =    0.0                 !
 ! A17   A(1,6,7)              121.1244         -DE/DX =    0.0001              !
 ! A18   A(5,6,7)              119.1066         -DE/DX =   -0.0001              !
 ! D1    D(6,1,2,3)              0.0            -DE/DX =    0.0                 !
 ! D2    D(6,1,2,9)            180.0            -DE/DX =    0.0                 !
 ! D3    D(8,1,2,3)            180.0            -DE/DX =    0.0                 !
 ! D4    D(8,1,2,9)              0.0            -DE/DX =    0.0                 !
 ! D5    D(2,1,6,5)              0.0            -DE/DX =    0.0                 !
 ! D6    D(2,1,6,7)            180.0            -DE/DX =    0.0                 !
 ! D7    D(8,1,6,5)            180.0            -DE/DX =    0.0                 !
 ! D8    D(8,1,6,7)              0.0            -DE/DX =    0.0                 !
 ! D9    D(1,2,3,4)              0.0            -DE/DX =    0.0                 !
 ! D10   D(1,2,3,10)           180.0            -DE/DX =    0.0                 !
 ! D11   D(9,2,3,4)            180.0            -DE/DX =    0.0                 !
 ! D12   D(9,2,3,10)             0.0            -DE/DX =    0.0                 !
 ! D13   D(2,3,4,5)              0.0            -DE/DX =    0.0                 !
 ! D14   D(2,3,4,11)           180.0            -DE/DX =    0.0                 !
 ! D15   D(10,3,4,5)           180.0            -DE/DX =    0.0                 !
 ! D16   D(10,3,4,11)            0.0            -DE/DX =    0.0                 !
 ! D17   D(3,4,5,6)              0.0            -DE/DX =    0.0                 !
 ! D18   D(3,4,5,12)           180.0            -DE/DX =    0.0                 !
 ! D19   D(11,4,5,6)           180.0            -DE/DX =    0.0                 !
 ! D20   D(11,4,5,12)            0.0            -DE/DX =    0.0                 !
 ! D21   D(4,5,6,1)              0.0            -DE/DX =    0.0                 !
 ! D22   D(4,5,6,7)            180.0            -DE/DX =    0.0                 !
 ! D23   D(12,5,6,1)           180.0            -DE/DX =    0.0                 !
 ! D24   D(12,5,6,7)             0.0            -DE/DX =    0.0                 !
 --------------------------------------------------------------------------------
 GradGradGradGradGradGradGradGradGradGradGradGradGradGradGradGradGradGrad

                          Input orientation:                          
 ---------------------------------------------------------------------
 Center     Atomic      Atomic             Coordinates (Angstroms)
 Number     Number       Type             X           Y           Z
 ---------------------------------------------------------------------
      1          6           0       -3.161517    0.174988    0.000000
      2          6           0       -1.970474    0.908919    0.000000
      3          6           0       -0.746916    0.235134    0.000000
      4          6           0       -0.702191   -1.163303   -0.000000
      5          6           0       -1.889501   -1.889400   -0.000000
      6          6           0       -3.123194   -1.227785   -0.000000
      7         17           0       -4.549407   -2.143020   -0.000000
      8         17           0       -4.635981    1.010889    0.000000
      9          1           0       -2.001355    2.010725    0.000000
     10         17           0        0.698802    1.125305    0.000000
     11          1           0        0.264635   -1.690008   -0.000000
     12          1           0       -1.857601   -2.990275   -0.000000
 ---------------------------------------------------------------------
                    Distance matrix (angstroms):
                    1          2          3          4          5
     1  C    0.000000
     2  C    1.399013   0.000000
     3  C    2.415349   1.396810   0.000000
     4  C    2.799875   2.429536   1.399152   0.000000
     5  C    2.424813   2.799490   2.412290   1.391733   0.000000
     6  C    1.403296   2.427811   2.790489   2.421861   1.399905
     7  Cl   2.701740   3.995650   4.484925   3.970001   2.671970
     8  Cl   1.694927   2.667457   3.965680   4.494643   3.994350
     9  H    2.171614   1.102239   2.174015   3.429618   3.901729
    10  Cl   3.975571   2.678033   1.697794   2.683377   3.973381
    11  H    3.900863   3.427847   2.174721   1.100987   2.163344
    12  H    3.423315   3.900827   3.411288   2.161665   1.101337
                    6          7          8          9         10
     6  C    0.000000
     7  Cl   1.694620   0.000000
     8  Cl   2.701886   3.155097   0.000000
     9  H    3.427313   4.873004   2.817965   0.000000
    10  Cl   4.488284   6.182689   5.336010   2.841622   0.000000
    11  H    3.419216   4.835310   5.595614   4.339371   2.848595
    12  H    2.169815   2.821996   4.871213   5.003066   4.844914
                   11         12
    11  H    0.000000
    12  H    2.488891   0.000000
 Stoichiometry    C6H3Cl3
 Framework group  CS[SG(C6H3Cl3)]
 Deg. of freedom    21
 Full point group                 CS      NOp   2
 Largest Abelian subgroup         CS      NOp   2
 Largest concise Abelian subgroup C1      NOp   1
                         Standard orientation:                         
 ---------------------------------------------------------------------
 Center     Atomic      Atomic             Coordinates (Angstroms)
 Number     Number       Type             X           Y           Z
 ---------------------------------------------------------------------
      1          6           0        0.000000    0.847752    0.000000
      2          6           0        1.212237    0.149384    0.000000
      3          6           0        1.201792   -1.247388    0.000000
      4          6           0       -0.006921   -1.952115    0.000000
      5          6           0       -1.210491   -1.253303    0.000000
      6          6           0       -1.215572    0.146592    0.000000
      7         17           0       -2.699171    0.965538    0.000000
      8         17           0        0.033652    2.542344    0.000000
      9          1           0        2.166636    0.700795    0.000000
     10         17           0        2.672627   -2.095415    0.000000
     11          1           0       -0.010158   -3.053098    0.000000
     12          1           0       -2.163585   -1.805168    0.000000
 ---------------------------------------------------------------------
 Rotational constants (GHZ):           1.8656978           0.6081544           0.4586500

 **********************************************************************

            Population analysis using the SCF Density.

 **********************************************************************

 Orbital symmetries:
       Occupied  (A') (A') (A') (A') (A') (A') (A') (A') (A') (A')
                 (A') (A') (A") (A') (A") (A') (A') (A") (A') (A')
                 (A') (A") (A") (A")
       Virtual   (A") (A") (A') (A') (A') (A") (A') (A') (A') (A')
                 (A') (A') (A') (A') (A')
 The electronic state is 1-A'.
 Alpha  occ. eigenvalues --   -1.48076  -1.40710  -1.39383  -1.37174  -1.17889
 Alpha  occ. eigenvalues --   -1.15394  -0.89170  -0.88331  -0.69940  -0.64376
 Alpha  occ. eigenvalues --   -0.63680  -0.58186  -0.56830  -0.55700  -0.50956
 Alpha  occ. eigenvalues --   -0.49975  -0.49613  -0.48247  -0.44811  -0.44467
 Alpha  occ. eigenvalues --   -0.44141  -0.43839  -0.37323  -0.35361
 Alpha virt. eigenvalues --   -0.01722  -0.01042   0.03008   0.03461   0.04901
 Alpha virt. eigenvalues --    0.07351   0.11776   0.12775   0.13564   0.14127
 Alpha virt. eigenvalues --    0.15572   0.16000   0.16837   0.17332   0.18583
          Condensed to atoms (all electrons):
               1          2          3          4          5          6
     1  C    4.054088   0.000000   0.000000   0.000000   0.000000   0.000000
     2  C    0.000000   4.114527   0.000000   0.000000   0.000000   0.000000
     3  C    0.000000   0.000000   4.055845   0.000000   0.000000   0.000000
     4  C    0.000000   0.000000   0.000000   4.116948   0.000000   0.000000
     5  C    0.000000   0.000000   0.000000   0.000000   4.109383   0.000000
     6  C    0.000000   0.000000   0.000000   0.000000   0.000000   4.063190
     7  Cl   0.000000   0.000000   0.000000   0.000000   0.000000   0.000000
     8  Cl   0.000000   0.000000   0.000000   0.000000   0.000000   0.000000
     9  H    0.000000   0.000000   0.000000   0.000000   0.000000   0.000000
    10  Cl   0.000000   0.000000   0.000000   0.000000   0.000000   0.000000
    11  H    0.000000   0.000000   0.000000   0.000000   0.000000   0.000000
    12  H    0.000000   0.000000   0.000000   0.000000   0.000000   0.000000
               7          8          9         10         11         12
     1  C    0.000000   0.000000   0.000000   0.000000   0.000000   0.000000
     2  C    0.000000   0.000000   0.000000   0.000000   0.000000   0.000000
     3  C    0.000000   0.000000   0.000000   0.000000   0.000000   0.000000
     4  C    0.000000   0.000000   0.000000   0.000000   0.000000   0.000000
     5  C    0.000000   0.000000   0.000000   0.000000   0.000000   0.000000
     6  C    0.000000   0.000000   0.000000   0.000000   0.000000   0.000000
     7  Cl   6.983453   0.000000   0.000000   0.000000   0.000000   0.000000
     8  Cl   0.000000   6.981721   0.000000   0.000000   0.000000   0.000000
     9  H    0.000000   0.000000   0.834104   0.000000   0.000000   0.000000
    10  Cl   0.000000   0.000000   0.000000   6.999318   0.000000   0.000000
    11  H    0.000000   0.000000   0.000000   0.000000   0.844069   0.000000
    12  H    0.000000   0.000000   0.000000   0.000000   0.000000   0.843354
 Mulliken charges:
               1
     1  C   -0.054088
     2  C   -0.114527
     3  C   -0.055845
     4  C   -0.116948
     5  C   -0.109383
     6  C   -0.063190
     7  Cl   0.016547
     8  Cl   0.018279
     9  H    0.165896
    10  Cl   0.000682
    11  H    0.155931
    12  H    0.156646
 Sum of Mulliken charges =   0.00000
 Mulliken charges with hydrogens summed into heavy atoms:
               1
     1  C   -0.054088
     2  C    0.051370
     3  C   -0.055845
     4  C    0.038983
     5  C    0.047263
     6  C   -0.063190
     7  Cl   0.016547
     8  Cl   0.018279
    10  Cl   0.000682
 Charge=              0.0000 electrons
 Dipole moment (field-independent basis, Debye):
    X=             -0.0865    Y=             -1.0222    Z=              0.0000  Tot=              1.0258
 N-N= 2.528020919935D+02 E-N=-3.565604490466D+02  KE=-1.131632623157D+02
 Symmetry A'   KE=-8.714551978214D+01
 Symmetry A"   KE=-2.601774253358D+01
 1\1\GINC-SH02-01N09\FOpt\RAM1\ZDO\C6H3Cl3\JLAPIER\09-Dec-2025\0\\# opt
  am1 SCF=XQC\\3-Chloro-Benzene (124)\\0,1\C,-3.1615168684,0.1749875814
 ,0.\C,-1.9704742633,0.9089186543,0.\C,-0.7469164605,0.2351344486,0.\C,
 -0.7021914999,-1.1633028187,0.\C,-1.8895007415,-1.8893995988,0.\C,-3.1
 231941479,-1.2277853594,0.\Cl,-4.5494065609,-2.143020022,0.\Cl,-4.6359
 81267,1.0108893862,0.\H,-2.0013549753,2.0107254173,0.\Cl,0.698801998,1
 .125305386,0.\H,0.2646353385,-1.6900083501,0.\H,-1.8576005519,-2.99027
 47247,0.\\Version=ES64L-G16RevB.01\State=1-A'\HF=0.0045206\RMSD=7.636e
 -09\RMSF=1.126e-04\Dipole=0.3375082,-0.2212871,0.\PG=CS [SG(C6H3Cl3)]\
 \@


 Standing in the middle of the road is very dangerous;
 you get knocked down by the traffic from both sides.
                                -- Margaret Thatcher
 Job cpu time:       0 days  0 hours  0 minutes 10.0 seconds.
 Elapsed time:       0 days  0 hours  0 minutes 25.9 seconds.
 File lengths (MBytes):  RWF=     10 Int=      0 D2E=      0 Chk=      2 Scr=      1
 Normal termination of Gaussian 16 at Tue Dec  9 09:59:08 2025.
