 Entering Gaussian System, Link 0=g16
 Initial command:
 /share/software/user/restricted/gaussian/g16.B01/l1.exe "/home/users/jlapier/Chloroaromatics/Gau-24620.inp" -scrdir="/home/users/jlapier/Chloroaromatics/"
 Entering Link 1 = /share/software/user/restricted/gaussian/g16.B01/l1.exe PID=     24622.
  
 Copyright (c) 1988-2017, Gaussian, Inc.  All Rights Reserved.
  
 This is part of the Gaussian(R) 16 program.  It is based on
 the Gaussian(R) 09 system (copyright 2009, Gaussian, Inc.),
 the Gaussian(R) 03 system (copyright 2003, Gaussian, Inc.),
 the Gaussian(R) 98 system (copyright 1998, Gaussian, Inc.),
 the Gaussian(R) 94 system (copyright 1995, Gaussian, Inc.),
 the Gaussian 92(TM) system (copyright 1992, Gaussian, Inc.),
 the Gaussian 90(TM) system (copyright 1990, Gaussian, Inc.),
 the Gaussian 88(TM) system (copyright 1988, Gaussian, Inc.),
 the Gaussian 86(TM) system (copyright 1986, Carnegie Mellon
 University), and the Gaussian 82(TM) system (copyright 1983,
 Carnegie Mellon University). Gaussian is a federally registered
 trademark of Gaussian, Inc.
  
 This software contains proprietary and confidential information,
 including trade secrets, belonging to Gaussian, Inc.
  
 This software is provided under written license and may be
 used, copied, transmitted, or stored only in accord with that
 written license.
  
 The following legend is applicable only to US Government
 contracts under FAR:
  
                    RESTRICTED RIGHTS LEGEND
  
 Use, reproduction and disclosure by the US Government is
 subject to restrictions as set forth in subparagraphs (a)
 and (c) of the Commercial Computer Software - Restricted
 Rights clause in FAR 52.227-19.
  
 Gaussian, Inc.
 340 Quinnipiac St., Bldg. 40, Wallingford CT 06492
  
  
 ---------------------------------------------------------------
 Warning -- This program may not be used in any manner that
 competes with the business of Gaussian, Inc. or will provide
 assistance to any competitor of Gaussian, Inc.  The licensee
 of this program is prohibited from giving any competitor of
 Gaussian, Inc. access to this program.  By using this program,
 the user acknowledges that Gaussian, Inc. is engaged in the
 business of creating and licensing software in the field of
 computational chemistry and represents and warrants to the
 licensee that it is not a competitor of Gaussian, Inc. and that
 it will not use this program in any manner prohibited above.
 ---------------------------------------------------------------
  

 Cite this work as:
 Gaussian 16, Revision B.01,
 M. J. Frisch, G. W. Trucks, H. B. Schlegel, G. E. Scuseria, 
 M. A. Robb, J. R. Cheeseman, G. Scalmani, V. Barone, 
 G. A. Petersson, H. Nakatsuji, X. Li, M. Caricato, A. V. Marenich, 
 J. Bloino, B. G. Janesko, R. Gomperts, B. Mennucci, H. P. Hratchian, 
 J. V. Ortiz, A. F. Izmaylov, J. L. Sonnenberg, D. Williams-Young, 
 F. Ding, F. Lipparini, F. Egidi, J. Goings, B. Peng, A. Petrone, 
 T. Henderson, D. Ranasinghe, V. G. Zakrzewski, J. Gao, N. Rega, 
 G. Zheng, W. Liang, M. Hada, M. Ehara, K. Toyota, R. Fukuda, 
 J. Hasegawa, M. Ishida, T. Nakajima, Y. Honda, O. Kitao, H. Nakai, 
 T. Vreven, K. Throssell, J. A. Montgomery, Jr., J. E. Peralta, 
 F. Ogliaro, M. J. Bearpark, J. J. Heyd, E. N. Brothers, K. N. Kudin, 
 V. N. Staroverov, T. A. Keith, R. Kobayashi, J. Normand, 
 K. Raghavachari, A. P. Rendell, J. C. Burant, S. S. Iyengar, 
 J. Tomasi, M. Cossi, J. M. Millam, M. Klene, C. Adamo, R. Cammi, 
 J. W. Ochterski, R. L. Martin, K. Morokuma, O. Farkas, 
 J. B. Foresman, and D. J. Fox, Gaussian, Inc., Wallingford CT, 2016.
 
 ******************************************
 Gaussian 16:  ES64L-G16RevB.01 20-Dec-2017
                 9-Dec-2025 
 ******************************************
 %mem=2GB
 %nprocshare=1
 Will use up to    1 processors via shared memory.
 %chk=geometry_chks/12_45ClBzNeutralRadical.chk
 -----------------
 # opt am1 SCF=XQC
 -----------------
 1/18=20,19=15,26=1,38=1/1,3;
 2/9=110,12=2,17=6,18=5,40=1/2;
 3/5=2,25=1,41=700000,71=1/1,2,3;
 4/35=1/1;
 5/5=2,8=3,13=1,35=1,38=5/2,8;
 6/7=2,8=2,9=2,10=2,28=1/1;
 7//1,2,3,16;
 1/18=20,19=15,26=1/3(2);
 2/9=110/2;
 99//99;
 2/9=110/2;
 3/5=2,25=1,41=700000,71=1,135=20/1,2,3;
 4/5=5,16=3,35=1/1;
 5/5=2,8=3,13=1,35=1,38=5/2,8;
 7//1,2,3,16;
 1/18=20,19=15,26=1/3(-5);
 2/9=110/2;
 6/7=2,8=2,9=2,10=2,19=2,28=1/1;
 99/9=1/99;
 ---------------------------------
 Neutral Radical (removed 3) 12_45
 ---------------------------------
 Symbolic Z-matrix:
 Charge =  0 Multiplicity = 2
 C                    -3.20928   0.19943   0. 
 C                    -2.0115    0.93555   0. 
 C                    -0.77511   0.2663    0. 
 C                    -0.7365   -1.13907   0. 
 C                    -1.93429  -1.87519   0. 
 C                    -3.17067  -1.20594   0. 
 Cl                   -4.67483  -2.13035   0. 
 Cl                   -4.76193   1.03987   0. 
 Cl                   -1.8858   -3.64003   0. 
 Cl                   -2.05998   2.7004    0. 
 H                     0.72905   1.19071   0. 
 
 Add virtual bond connecting atoms H11        and C3         Dist= 3.34D+00.

 GradGradGradGradGradGradGradGradGradGradGradGradGradGradGradGradGradGrad
 Berny optimization.
 Initialization pass.
                           ----------------------------
                           !    Initial Parameters    !
                           ! (Angstroms and Degrees)  !
 --------------------------                            --------------------------
 ! Name  Definition              Value          Derivative Info.                !
 --------------------------------------------------------------------------------
 ! R1    R(1,2)                  1.4059         estimate D2E/DX2                !
 ! R2    R(1,6)                  1.4059         estimate D2E/DX2                !
 ! R3    R(1,8)                  1.7655         estimate D2E/DX2                !
 ! R4    R(2,3)                  1.4059         estimate D2E/DX2                !
 ! R5    R(2,10)                 1.7655         estimate D2E/DX2                !
 ! R6    R(3,4)                  1.4059         estimate D2E/DX2                !
 ! R7    R(3,11)                 1.7655         estimate D2E/DX2                !
 ! R8    R(4,5)                  1.4059         estimate D2E/DX2                !
 ! R9    R(5,6)                  1.4059         estimate D2E/DX2                !
 ! R10   R(5,9)                  1.7655         estimate D2E/DX2                !
 ! R11   R(6,7)                  1.7655         estimate D2E/DX2                !
 ! A1    A(2,1,6)              119.9999         estimate D2E/DX2                !
 ! A2    A(2,1,8)              119.9999         estimate D2E/DX2                !
 ! A3    A(6,1,8)              120.0001         estimate D2E/DX2                !
 ! A4    A(1,2,3)              120.0            estimate D2E/DX2                !
 ! A5    A(1,2,10)             120.0001         estimate D2E/DX2                !
 ! A6    A(3,2,10)             119.9999         estimate D2E/DX2                !
 ! A7    A(2,3,4)              120.0001         estimate D2E/DX2                !
 ! A8    A(2,3,11)             120.0            estimate D2E/DX2                !
 ! A9    A(4,3,11)             119.9999         estimate D2E/DX2                !
 ! A10   A(3,4,5)              119.9997         estimate D2E/DX2                !
 ! A11   A(4,5,6)              120.0            estimate D2E/DX2                !
 ! A12   A(4,5,9)              119.9996         estimate D2E/DX2                !
 ! A13   A(6,5,9)              120.0004         estimate D2E/DX2                !
 ! A14   A(1,6,5)              120.0003         estimate D2E/DX2                !
 ! A15   A(1,6,7)              119.9999         estimate D2E/DX2                !
 ! A16   A(5,6,7)              119.9998         estimate D2E/DX2                !
 ! D1    D(6,1,2,3)              0.0            estimate D2E/DX2                !
 ! D2    D(6,1,2,10)           180.0            estimate D2E/DX2                !
 ! D3    D(8,1,2,3)            180.0            estimate D2E/DX2                !
 ! D4    D(8,1,2,10)             0.0            estimate D2E/DX2                !
 ! D5    D(2,1,6,5)              0.0            estimate D2E/DX2                !
 ! D6    D(2,1,6,7)            180.0            estimate D2E/DX2                !
 ! D7    D(8,1,6,5)            180.0            estimate D2E/DX2                !
 ! D8    D(8,1,6,7)              0.0            estimate D2E/DX2                !
 ! D9    D(1,2,3,4)              0.0            estimate D2E/DX2                !
 ! D10   D(1,2,3,11)           180.0            estimate D2E/DX2                !
 ! D11   D(10,2,3,4)           180.0            estimate D2E/DX2                !
 ! D12   D(10,2,3,11)            0.0            estimate D2E/DX2                !
 ! D13   D(2,3,4,5)              0.0            estimate D2E/DX2                !
 ! D14   D(11,3,4,5)           180.0            estimate D2E/DX2                !
 ! D15   D(3,4,5,6)              0.0            estimate D2E/DX2                !
 ! D16   D(3,4,5,9)            180.0            estimate D2E/DX2                !
 ! D17   D(4,5,6,1)              0.0            estimate D2E/DX2                !
 ! D18   D(4,5,6,7)            180.0            estimate D2E/DX2                !
 ! D19   D(9,5,6,1)            180.0            estimate D2E/DX2                !
 ! D20   D(9,5,6,7)              0.0            estimate D2E/DX2                !
 --------------------------------------------------------------------------------
 Trust Radius=3.00D-01 FncErr=1.00D-07 GrdErr=1.00D-07 EigMax=2.50D+02 EigMin=1.00D-04
 Number of steps in this run=     57 maximum allowed number of steps=    100.
 GradGradGradGradGradGradGradGradGradGradGradGradGradGradGradGradGradGrad

                          Input orientation:                          
 ---------------------------------------------------------------------
 Center     Atomic      Atomic             Coordinates (Angstroms)
 Number     Number       Type             X           Y           Z
 ---------------------------------------------------------------------
      1          6           0       -3.209280    0.199430    0.000000
      2          6           0       -2.011500    0.935550    0.000000
      3          6           0       -0.775110    0.266300    0.000000
      4          6           0       -0.736500   -1.139070    0.000000
      5          6           0       -1.934290   -1.875190    0.000000
      6          6           0       -3.170670   -1.205940    0.000000
      7         17           0       -4.674830   -2.130350    0.000000
      8         17           0       -4.761930    1.039870    0.000000
      9         17           0       -1.885800   -3.640030    0.000000
     10         17           0       -2.059980    2.700400    0.000000
     11          1           0        0.729050    1.190710    0.000000
 ---------------------------------------------------------------------
                    Distance matrix (angstroms):
                    1          2          3          4          5
     1  C    0.000000
     2  C    1.405898   0.000000
     3  C    2.435088   1.405900   0.000000
     4  C    2.811801   2.435092   1.405900   0.000000
     5  C    2.435087   2.811800   2.435093   1.405907   0.000000
     6  C    1.405900   2.435088   2.811796   2.435088   1.405892
     7  Cl   2.752401   4.061166   4.577308   4.061167   2.752393
     8  Cl   1.765520   2.752408   4.061175   4.577321   4.061173
     9  Cl   4.061164   4.577306   4.061163   2.752397   1.765506
    10  Cl   2.752406   1.765516   2.752405   4.061173   4.577316
    11  H    4.061167   2.752403   1.765512   2.752401   4.061173
                    6          7          8          9         10
     6  C    0.000000
     7  Cl   1.765512   0.000000
     8  Cl   2.752412   3.171416   0.000000
     9  Cl   2.752396   3.171407   5.493049   0.000000
    10  Cl   4.061173   5.493049   3.171418   6.342822   0.000000
    11  H    4.577308   6.342819   5.493051   5.493040   3.171412
                   11
    11  H    0.000000
 Stoichiometry    C6HCl4(2)
 Framework group  CS[SG(C6HCl4)]
 Deg. of freedom    19
 Full point group                 CS      NOp   2
 Largest Abelian subgroup         CS      NOp   2
 Largest concise Abelian subgroup C1      NOp   1
                         Standard orientation:                         
 ---------------------------------------------------------------------
 Center     Atomic      Atomic             Coordinates (Angstroms)
 Number     Number       Type             X           Y           Z
 ---------------------------------------------------------------------
      1          6           0        0.418516   -0.650800    0.000000
      2          6           0        1.636060    0.052148    0.000000
      3          6           0        1.636060    1.458048    0.000000
      4          6           0        0.418516    2.161001   -0.000000
      5          6           0       -0.799032    1.458044   -0.000000
      6          6           0       -0.799028    0.052152   -0.000000
      7         17           0       -2.328005   -0.830604   -0.000000
      8         17           0        0.418517   -2.416320    0.000000
      9         17           0       -2.328002    2.340803   -0.000000
     10         17           0        3.165043   -0.830607    0.000000
     11          1           0        3.165038    2.340805    0.000000
 ---------------------------------------------------------------------
 Rotational constants (GHZ):           1.1540966           0.5302906           0.3633408
 Standard basis: VSTO-6G (5D, 7F)
 There are    31 symmetry adapted cartesian basis functions of A'  symmetry.
 There are    10 symmetry adapted cartesian basis functions of A"  symmetry.
 There are    31 symmetry adapted basis functions of A'  symmetry.
 There are    10 symmetry adapted basis functions of A"  symmetry.
    41 basis functions,   246 primitive gaussians,    41 cartesian basis functions
    27 alpha electrons       26 beta electrons
       nuclear repulsion energy       294.1729831098 Hartrees.
 Integral buffers will be    131072 words long.
 Regular integral format.
 Two-electron integral symmetry is turned off.
 Do NDO integrals.
 One-electron integrals computed using PRISM.
 NBasis=    41 RedAO= T EigKep=  1.00D+00  NBF=    31    10
 NBsUse=    41 1.00D-06 EigRej= -1.00D+00 NBFU=    31    10
 Simple Huckel Guess.
 Initial guess orbital symmetries:
 Alpha Orbitals:
       Occupied  (A') (A') (A') (A') (A') (A') (A') (A') (A') (A')
                 (A") (A') (A') (A') (A") (A') (A") (A') (A") (A")
                 (A') (A') (A') (A') (A") (A") (A')
       Virtual   (A") (A") (A') (A") (A') (A') (A') (A') (A') (A')
                 (A') (A') (A') (A')
 Beta  Orbitals:
       Occupied  (A') (A') (A') (A') (A') (A') (A') (A') (A') (A')
                 (A") (A') (A') (A') (A") (A') (A") (A') (A") (A")
                 (A') (A') (A') (A') (A") (A")
       Virtual   (A') (A") (A") (A') (A") (A') (A') (A') (A') (A')
                 (A') (A') (A') (A') (A')
 The electronic state of the initial guess is 2-A'.
 Initial guess <Sx>= 0.0000 <Sy>= 0.0000 <Sz>= 0.5000 <S**2>= 0.7500 S= 0.5000
 Keep J ints in memory in canonical form, NReq=864464.
 Overlap will be assumed to be unity.
 Requested convergence on RMS density matrix=1.00D-08 within  32 cycles.
 Requested convergence on MAX density matrix=1.00D-06.
 Requested convergence on             energy=1.00D-06.
 No special actions if energy rises.
 Fock symm off for IB=2 I1=    1 I=   32 J=   25 Cut=1.00D-07 Err=2.17D-03
 Fock matrix is not symmetric: symmetry in diagonalization turned off.
 Rare condition: small coef for last iteration:  0.000D+00
 Rare condition: small coef for last iteration:  0.000D+00
 Rare condition: small coef for last iteration:  0.000D+00
 Rare condition: small coef for last iteration:  0.000D+00
 Rare condition: small coef for last iteration:  0.000D+00
 Rare condition: small coef for last iteration:  0.000D+00
 Rare condition: small coef for last iteration:  0.000D+00
 Rare condition: small coef for last iteration:  0.000D+00
 Rare condition: small coef for last iteration:  0.000D+00
 Rare condition: small coef for last iteration:  0.000D+00
 Rare condition: small coef for last iteration:  0.000D+00
 Rare condition: small coef for last iteration:  0.000D+00
 Rare condition: small coef for last iteration:  0.000D+00
 Rare condition: small coef for last iteration:  0.000D+00
 >>>>>>>>>> Convergence criterion not met.
 SCF Done:  E(UAM1) =  0.232446164639     A.U. after   33 cycles
            NFock= 32  Conv=0.13D-02     -V/T= 1.0017
 <Sx>= 0.0000 <Sy>= 0.0000 <Sz>= 0.5000 <S**2>= 1.3115 S= 0.7496
 <L.S>=  0.00000000000    
 Annihilation of the first spin contaminant:
 S**2 before annihilation     1.3115,   after     1.0741
 Keep J ints in memory in canonical form, NReq=864864.
 LinEq1:  Iter=  0 NonCon=     1 RMS=5.36D-04 Max=5.95D-03 NDo=     1
 AX will form     1 AO Fock derivatives at one time.
 LinEq1:  Iter=  1 NonCon=     1 RMS=5.75D-05 Max=4.78D-04 NDo=     1
 LinEq1:  Iter=  2 NonCon=     1 RMS=1.59D-05 Max=1.58D-04 NDo=     1
 LinEq1:  Iter=  3 NonCon=     1 RMS=3.27D-06 Max=2.97D-05 NDo=     1
 LinEq1:  Iter=  4 NonCon=     1 RMS=5.01D-07 Max=3.30D-06 NDo=     1
 LinEq1:  Iter=  5 NonCon=     1 RMS=1.26D-07 Max=1.39D-06 NDo=     1
 LinEq1:  Iter=  6 NonCon=     1 RMS=3.64D-08 Max=3.59D-07 NDo=     1
 LinEq1:  Iter=  7 NonCon=     1 RMS=8.65D-09 Max=5.64D-08 NDo=     1
 LinEq1:  Iter=  8 NonCon=     0 RMS=1.85D-09 Max=2.48D-08 NDo=     1
 Linear equations converged to 2.771D-09 2.771D-08 after     8 iterations.
     Minimum is close to point  5 DX=  2.57D-01 DF= -1.67D-04 DXR=  5.63D-02 DFR=  1.47D-02 which will be used.
 Gradient too large for Newton-Raphson -- use scaled steepest descent instead.
     Accept linear search using points  4 and  5.
 LinEq1:  Iter=  0 NonCon=     1 RMS=5.68D-04 Max=6.27D-03 NDo=     1
 LinEq1:  Iter=  1 NonCon=     1 RMS=2.56D-04 Max=3.11D-03 NDo=     1
 LinEq1:  Iter=  2 NonCon=     1 RMS=4.46D-05 Max=3.63D-04 NDo=     1
 LinEq1:  Iter=  3 NonCon=     1 RMS=9.77D-06 Max=1.02D-04 NDo=     1
 LinEq1:  Iter=  4 NonCon=     1 RMS=1.41D-06 Max=1.61D-05 NDo=     1
 LinEq1:  Iter=  5 NonCon=     1 RMS=2.42D-07 Max=2.35D-06 NDo=     1
 LinEq1:  Iter=  6 NonCon=     1 RMS=5.99D-08 Max=5.05D-07 NDo=     1
 LinEq1:  Iter=  7 NonCon=     1 RMS=1.18D-08 Max=9.26D-08 NDo=     1
 LinEq1:  Iter=  8 NonCon=     1 RMS=3.41D-09 Max=3.53D-08 NDo=     1
 LinEq1:  Iter=  9 NonCon=     0 RMS=5.44D-10 Max=4.24D-09 NDo=     1
 Linear equations converged to 2.771D-09 2.771D-08 after     9 iterations.
 LinEq1:  Iter=  0 NonCon=     1 RMS=3.28D-04 Max=1.88D-03 NDo=     1
 LinEq1:  Iter=  1 NonCon=     1 RMS=1.39D-04 Max=1.59D-03 NDo=     1
 LinEq1:  Iter=  2 NonCon=     1 RMS=2.75D-05 Max=2.38D-04 NDo=     1
 LinEq1:  Iter=  3 NonCon=     1 RMS=5.91D-06 Max=5.65D-05 NDo=     1
 LinEq1:  Iter=  4 NonCon=     1 RMS=9.02D-07 Max=9.73D-06 NDo=     1
 LinEq1:  Iter=  5 NonCon=     1 RMS=1.49D-07 Max=1.50D-06 NDo=     1
 LinEq1:  Iter=  6 NonCon=     1 RMS=3.27D-08 Max=3.19D-07 NDo=     1
 LinEq1:  Iter=  7 NonCon=     1 RMS=4.83D-09 Max=4.64D-08 NDo=     1
 LinEq1:  Iter=  8 NonCon=     0 RMS=8.30D-10 Max=5.46D-09 NDo=     1
 Linear equations converged to 2.771D-09 2.771D-08 after     8 iterations.
     Accept linear search using points  1 and  2.
 LinEq1:  Iter=  0 NonCon=     1 RMS=3.60D-05 Max=2.30D-04 NDo=     1
 LinEq1:  Iter=  1 NonCon=     1 RMS=1.06D-05 Max=1.01D-04 NDo=     1
 LinEq1:  Iter=  2 NonCon=     1 RMS=2.46D-06 Max=2.79D-05 NDo=     1
 LinEq1:  Iter=  3 NonCon=     1 RMS=5.36D-07 Max=4.48D-06 NDo=     1
 LinEq1:  Iter=  4 NonCon=     1 RMS=1.12D-07 Max=1.33D-06 NDo=     1
 LinEq1:  Iter=  5 NonCon=     1 RMS=2.06D-08 Max=1.87D-07 NDo=     1
 LinEq1:  Iter=  6 NonCon=     1 RMS=6.12D-09 Max=6.91D-08 NDo=     1
 LinEq1:  Iter=  7 NonCon=     0 RMS=1.31D-09 Max=1.09D-08 NDo=     1
 Linear equations converged to 2.771D-09 2.771D-08 after     7 iterations.
     Minimum is close to point  2 DX=  8.25D-04 DF= -6.47D-13 DXR=  8.25D-04 DFR=  6.80D-07 which will be used.
 LinEq1:  Iter=  0 NonCon=     1 RMS=4.52D-07 Max=3.74D-06 NDo=     1
 LinEq1:  Iter=  1 NonCon=     1 RMS=1.25D-07 Max=1.55D-06 NDo=     1
 LinEq1:  Iter=  2 NonCon=     1 RMS=3.10D-08 Max=2.71D-07 NDo=     1
 LinEq1:  Iter=  3 NonCon=     1 RMS=7.50D-09 Max=8.58D-08 NDo=     1
 LinEq1:  Iter=  4 NonCon=     1 RMS=1.63D-09 Max=1.46D-08 NDo=     1
 LinEq1:  Iter=  5 NonCon=     1 RMS=3.14D-10 Max=3.00D-09 NDo=     1
 LinEq1:  Iter=  6 NonCon=     1 RMS=8.20D-11 Max=8.81D-10 NDo=     1
 LinEq1:  Iter=  7 NonCon=     0 RMS=2.21D-11 Max=2.22D-10 NDo=     1
 Linear equations converged to 8.669D-11 8.669D-10 after     7 iterations.
 SCF Done:  E(UAM1) =  0.219519710580     a.u. after    7 cycles
            Convg  =    0.1267D-06                    58 Fock formations.
              S**2 =  1.6012                  -V/T =  1.0016
 <Sx>= 0.0000 <Sy>= 0.0000 <Sz>= 0.5000 <S**2>= 1.6012 S= 0.8606
 <L.S>=  0.00000000000    
 Annihilation of the first spin contaminant:
 S**2 before annihilation     1.6012,   after     1.6123

 **********************************************************************

            Population analysis using the SCF Density.

 **********************************************************************

 Orbital symmetries:
 Alpha Orbitals:
       Occupied  (A') (A') (A') (A') (A') (A') (A') (A') (A') (A')
                 (A') (A') (A") (A') (A') (A") (A") (A') (A") (A')
                 (A') (A") (A') (A') (A') (A") (A")
       Virtual   (A") (A') (A") (A') (A') (A') (A') (A") (A') (A')
                 (A') (A') (A') (A')
 Beta  Orbitals:
       Occupied  (A') (A') (A') (A') (A') (A') (A') (A') (A') (A')
                 (A') (A') (A") (A') (A') (A") (A") (A') (A") (A')
                 (A') (A") (A') (A') (A") (A")
       Virtual   (A') (A") (A") (A') (A') (A') (A') (A') (A") (A')
                 (A') (A') (A') (A') (A')
 The electronic state is 2-A'.
 Alpha  occ. eigenvalues --   -1.46564  -1.39800  -1.38894  -1.38156  -1.36593
 Alpha  occ. eigenvalues --   -1.15272  -1.14237  -0.87781  -0.86259  -0.67834
 Alpha  occ. eigenvalues --   -0.64792  -0.62298  -0.57796  -0.57557  -0.54226
 Alpha  occ. eigenvalues --   -0.51130  -0.48784  -0.47552  -0.46933  -0.46891
 Alpha  occ. eigenvalues --   -0.45535  -0.44541  -0.44130  -0.44069  -0.41961
 Alpha  occ. eigenvalues --   -0.38898  -0.37737
 Alpha virt. eigenvalues --   -0.02177  -0.01753  -0.00799   0.00012   0.01255
 Alpha virt. eigenvalues --    0.02823   0.03620   0.06209   0.11620   0.11848
 Alpha virt. eigenvalues --    0.13684   0.13723   0.15089   0.16412
  Beta  occ. eigenvalues --   -1.46273  -1.39737  -1.38859  -1.38119  -1.36403
  Beta  occ. eigenvalues --   -1.14983  -1.13314  -0.87464  -0.85140  -0.67445
  Beta  occ. eigenvalues --   -0.64432  -0.61820  -0.57687  -0.57233  -0.53594
  Beta  occ. eigenvalues --   -0.51066  -0.48740  -0.47371  -0.46904  -0.46234
  Beta  occ. eigenvalues --   -0.45431  -0.44271  -0.44070  -0.43420  -0.38541
  Beta  occ. eigenvalues --   -0.37664
  Beta virt. eigenvalues --   -0.03571  -0.02071  -0.00329  -0.00231   0.01102
  Beta virt. eigenvalues --    0.01369   0.03169   0.03730   0.06846   0.11829
  Beta virt. eigenvalues --    0.12080   0.13915   0.14316   0.15340   0.17558
          Condensed to atoms (all electrons):
               1          2          3          4          5          6
     1  C    4.041406   0.000000   0.000000   0.000000   0.000000   0.000000
     2  C    0.000000   4.024637   0.000000   0.000000   0.000000   0.000000
     3  C    0.000000   0.000000   4.137304   0.000000   0.000000   0.000000
     4  C    0.000000   0.000000   0.000000   3.993729   0.000000   0.000000
     5  C    0.000000   0.000000   0.000000   0.000000   4.038594   0.000000
     6  C    0.000000   0.000000   0.000000   0.000000   0.000000   4.036774
     7  Cl   0.000000   0.000000   0.000000   0.000000   0.000000   0.000000
     8  Cl   0.000000   0.000000   0.000000   0.000000   0.000000   0.000000
     9  Cl   0.000000   0.000000   0.000000   0.000000   0.000000   0.000000
    10  Cl   0.000000   0.000000   0.000000   0.000000   0.000000   0.000000
    11  H    0.000000   0.000000   0.000000   0.000000   0.000000   0.000000
               7          8          9         10         11
     1  C    0.000000   0.000000   0.000000   0.000000   0.000000
     2  C    0.000000   0.000000   0.000000   0.000000   0.000000
     3  C    0.000000   0.000000   0.000000   0.000000   0.000000
     4  C    0.000000   0.000000   0.000000   0.000000   0.000000
     5  C    0.000000   0.000000   0.000000   0.000000   0.000000
     6  C    0.000000   0.000000   0.000000   0.000000   0.000000
     7  Cl   6.975719   0.000000   0.000000   0.000000   0.000000
     8  Cl   0.000000   6.978759   0.000000   0.000000   0.000000
     9  Cl   0.000000   0.000000   6.985951   0.000000   0.000000
    10  Cl   0.000000   0.000000   0.000000   6.996157   0.000000
    11  H    0.000000   0.000000   0.000000   0.000000   0.790969
          Atomic-Atomic Spin Densities.
               1          2          3          4          5          6
     1  C   -0.523008   0.000000   0.000000   0.000000   0.000000   0.000000
     2  C    0.000000   0.548987   0.000000   0.000000   0.000000   0.000000
     3  C    0.000000   0.000000  -0.927541   0.000000   0.000000   0.000000
     4  C    0.000000   0.000000   0.000000   1.468680   0.000000   0.000000
     5  C    0.000000   0.000000   0.000000   0.000000  -0.537913   0.000000
     6  C    0.000000   0.000000   0.000000   0.000000   0.000000   0.531951
     7  Cl   0.000000   0.000000   0.000000   0.000000   0.000000   0.000000
     8  Cl   0.000000   0.000000   0.000000   0.000000   0.000000   0.000000
     9  Cl   0.000000   0.000000   0.000000   0.000000   0.000000   0.000000
    10  Cl   0.000000   0.000000   0.000000   0.000000   0.000000   0.000000
    11  H    0.000000   0.000000   0.000000   0.000000   0.000000   0.000000
               7          8          9         10         11
     1  C    0.000000   0.000000   0.000000   0.000000   0.000000
     2  C    0.000000   0.000000   0.000000   0.000000   0.000000
     3  C    0.000000   0.000000   0.000000   0.000000   0.000000
     4  C    0.000000   0.000000   0.000000   0.000000   0.000000
     5  C    0.000000   0.000000   0.000000   0.000000   0.000000
     6  C    0.000000   0.000000   0.000000   0.000000   0.000000
     7  Cl   0.004344   0.000000   0.000000   0.000000   0.000000
     8  Cl   0.000000   0.005000   0.000000   0.000000   0.000000
     9  Cl   0.000000   0.000000   0.005800   0.000000   0.000000
    10  Cl   0.000000   0.000000   0.000000   0.000791   0.000000
    11  H    0.000000   0.000000   0.000000   0.000000   0.422908
 Mulliken charges and spin densities:
               1          2
     1  C   -0.041406  -0.523008
     2  C   -0.024637   0.548987
     3  C   -0.137304  -0.927541
     4  C    0.006271   1.468680
     5  C   -0.038594  -0.537913
     6  C   -0.036774   0.531951
     7  Cl   0.024281   0.004344
     8  Cl   0.021241   0.005000
     9  Cl   0.014049   0.005800
    10  Cl   0.003843   0.000791
    11  H    0.209031   0.422908
 Sum of Mulliken charges =  -0.00000   1.00000
 Mulliken charges and spin densities with hydrogens summed into heavy atoms:
               1          2
     1  C   -0.041406  -0.523008
     2  C   -0.024637   0.548987
     3  C    0.071727  -0.504633
     4  C    0.006271   1.468680
     5  C   -0.038594  -0.537913
     6  C   -0.036774   0.531951
     7  Cl   0.024281   0.004344
     8  Cl   0.021241   0.005000
     9  Cl   0.014049   0.005800
    10  Cl   0.003843   0.000791
 Charge=             -0.0000 electrons
 Dipole moment (field-independent basis, Debye):
    X=              1.5945    Y=              0.9638    Z=              0.0000  Tot=              1.8632
 N-N= 2.941729831098D+02 E-N=-4.146959137167D+02  KE=-1.335866463784D+02
 Symmetry A'   KE=-1.020108381303D+02
 Symmetry A"   KE=-3.157580824819D+01
 Symmetry A'   SP= 1.000000000000D+00
 Symmetry A"   SP=-3.330669073875D-16
 Calling FoFJK, ICntrl=      2127 FMM=F ISym2X=1 I1Cent= 0 IOpClX= 1 NMat=1 NMatS=1 NMatT=0.
 ***** Axes restored to original set *****
 -------------------------------------------------------------------
 Center     Atomic                   Forces (Hartrees/Bohr)
 Number     Number              X              Y              Z
 -------------------------------------------------------------------
      1        6          -0.032184435    0.017243402   -0.000000000
      2        6           0.018841921    0.031155423   -0.000000000
      3        6           0.070997711    0.009643243   -0.000000000
      4        6          -0.046244038    0.051622716    0.000000000
      5        6           0.027437115   -0.042152345   -0.000000000
      6        6          -0.029492145   -0.017396827   -0.000000000
      7       17           0.035102734    0.021339386    0.000000000
      8       17           0.035675708   -0.019543970    0.000000000
      9       17           0.000986789    0.040954237    0.000000000
     10       17           0.003954949   -0.040675377    0.000000000
     11        1          -0.085076309   -0.052189889    0.000000000
 -------------------------------------------------------------------
 Cartesian Forces:  Max     0.085076309 RMS     0.031599000

 GradGradGradGradGradGradGradGradGradGradGradGradGradGradGradGradGradGrad
 Berny optimization.
 FormGI is forming the generalized inverse of G from B-inverse, IUseBI=4.
 Internal  Forces:  Max     0.099808599 RMS     0.021878472
 Search for a local minimum.
 Step number   1 out of a maximum of   57
 All quantities printed in internal units (Hartrees-Bohrs-Radians)
 Mixed Optimization -- RFO/linear search
 Second derivative matrix not updated -- first step.
 ITU=  0
     Eigenvalues ---    0.02011   0.02011   0.02011   0.02011   0.02011
     Eigenvalues ---    0.02011   0.02011   0.02011   0.06524   0.16000
     Eigenvalues ---    0.23352   0.25000   0.25000   0.25000   0.25000
     Eigenvalues ---    0.25000   0.25000   0.29033   0.29033   0.29033
     Eigenvalues ---    0.29034   0.41087   0.41583   0.44656   0.44657
     Eigenvalues ---    0.44657   0.44657
 RFO step:  Lambda=-9.25238036D-02 EMin= 2.01067519D-02
 Linear search not attempted -- first point.
 Maximum step size (   0.300) exceeded in Quadratic search.
    -- Step size scaled by   0.437
 Iteration  1 RMS(Cart)=  0.03810869 RMS(Int)=  0.01119015
 Iteration  2 RMS(Cart)=  0.01070522 RMS(Int)=  0.00003944
 Iteration  3 RMS(Cart)=  0.00000478 RMS(Int)=  0.00003936
 Iteration  4 RMS(Cart)=  0.00000000 RMS(Int)=  0.00003936
 ClnCor:  largest displacement from symmetrization is 9.77D-09 for atom     7.
 Variable       Old X    -DE/DX   Delta X   Delta X   Delta X     New X
                                 (Linear)    (Quad)   (Total)
    R1        2.65676  -0.00072   0.00000   0.00013   0.00008   2.65684
    R2        2.65677  -0.00032   0.00000   0.00108   0.00103   2.65780
    R3        3.33635  -0.04068   0.00000  -0.04645  -0.04645   3.28989
    R4        2.65677  -0.02738   0.00000  -0.02283  -0.02283   2.63393
    R5        3.33634  -0.04077   0.00000  -0.04656  -0.04656   3.28978
    R6        2.65677  -0.05436   0.00000  -0.04543  -0.04538   2.61139
    R7        3.33633  -0.09981   0.00000  -0.27661  -0.27661   3.05972
    R8        2.65678  -0.03148   0.00000  -0.02625  -0.02619   2.63058
    R9        2.65675  -0.00442   0.00000  -0.00296  -0.00296   2.65379
   R10        3.33632  -0.04091   0.00000  -0.04672  -0.04672   3.28960
   R11        3.33633  -0.04108   0.00000  -0.04691  -0.04691   3.28942
    A1        2.09439  -0.00300   0.00000  -0.00024  -0.00036   2.09404
    A2        2.09439   0.00184   0.00000   0.00056   0.00061   2.09501
    A3        2.09440   0.00116   0.00000  -0.00032  -0.00026   2.09414
    A4        2.09439  -0.00506   0.00000  -0.00603  -0.00610   2.08830
    A5        2.09440   0.00726   0.00000   0.00906   0.00909   2.10349
    A6        2.09439  -0.00220   0.00000  -0.00302  -0.00299   2.09140
    A7        2.09440   0.00101   0.00000  -0.00175  -0.00171   2.09269
    A8        2.09440  -0.00064   0.00000   0.00064   0.00062   2.09501
    A9        2.09439  -0.00037   0.00000   0.00111   0.00109   2.09548
   A10        2.09439   0.02614   0.00000   0.02881   0.02896   2.12335
   A11        2.09439  -0.01407   0.00000  -0.01783  -0.01778   2.07662
   A12        2.09439   0.00351   0.00000   0.00442   0.00439   2.09878
   A13        2.09440   0.01056   0.00000   0.01341   0.01338   2.10779
   A14        2.09440  -0.00502   0.00000  -0.00296  -0.00302   2.09138
   A15        2.09439   0.00284   0.00000   0.00191   0.00194   2.09633
   A16        2.09439   0.00218   0.00000   0.00106   0.00109   2.09548
    D1        0.00000  -0.00000   0.00000  -0.00000   0.00000   0.00000
    D2        3.14159   0.00000   0.00000   0.00000   0.00000   3.14159
    D3        3.14159  -0.00000   0.00000  -0.00000   0.00000   3.14159
    D4       -0.00000   0.00000   0.00000  -0.00000   0.00000   0.00000
    D5       -0.00000  -0.00000   0.00000  -0.00000   0.00000   0.00000
    D6        3.14159  -0.00000   0.00000  -0.00000   0.00000   3.14159
    D7        3.14159   0.00000   0.00000   0.00000   0.00000   3.14159
    D8        0.00000  -0.00000   0.00000  -0.00000  -0.00000   0.00000
    D9       -0.00000   0.00000   0.00000   0.00000   0.00000   0.00000
   D10        3.14159   0.00000   0.00000   0.00000   0.00000   3.14159
   D11        3.14159  -0.00000   0.00000  -0.00000   0.00000   3.14159
   D12        0.00000   0.00000   0.00000   0.00000   0.00000   0.00000
   D13        0.00000   0.00000   0.00000  -0.00000   0.00000   0.00000
   D14        3.14159  -0.00000   0.00000  -0.00000   0.00000   3.14159
   D15       -0.00000  -0.00000   0.00000  -0.00000   0.00000   0.00000
   D16        3.14159   0.00000   0.00000   0.00000   0.00000   3.14159
   D17        0.00000   0.00000   0.00000   0.00000  -0.00000   0.00000
   D18        3.14159   0.00000   0.00000   0.00000   0.00000   3.14159
   D19        3.14159  -0.00000   0.00000  -0.00000   0.00000   3.14159
   D20        0.00000   0.00000   0.00000   0.00000   0.00000   0.00000
         Item               Value     Threshold  Converged?
 Maximum Force            0.099809     0.000450     NO 
 RMS     Force            0.021878     0.000300     NO 
 Maximum Displacement     0.236665     0.001800     NO 
 RMS     Displacement     0.047666     0.001200     NO 
 Predicted change in Energy=-3.577416D-02
 GradGradGradGradGradGradGradGradGradGradGradGradGradGradGradGradGradGrad

                          Input orientation:                          
 ---------------------------------------------------------------------
 Center     Atomic      Atomic             Coordinates (Angstroms)
 Number     Number       Type             X           Y           Z
 ---------------------------------------------------------------------
      1          6           0       -3.201490    0.205709    0.000000
      2          6           0       -2.003124    0.940952    0.000000
      3          6           0       -0.781932    0.269075    0.000000
      4          6           0       -0.755801   -1.112565   -0.000000
      5          6           0       -1.926662   -1.865475   -0.000000
      6          6           0       -3.163418   -1.200221   -0.000000
      7         17           0       -4.645021   -2.113919   -0.000000
      8         17           0       -4.732409    1.034655    0.000000
      9         17           0       -1.850992   -3.604612   -0.000000
     10         17           0       -2.033803    2.681560    0.000000
     11          1           0        0.603812    1.106520    0.000000
 ---------------------------------------------------------------------
                    Distance matrix (angstroms):
                    1          2          3          4          5
     1  C    0.000000
     2  C    1.405938   0.000000
     3  C    2.420387   1.393818   0.000000
     4  C    2.778353   2.402654   1.381886   0.000000
     5  C    2.432075   2.807468   2.422128   1.392045   0.000000
     6  C    1.406446   2.435345   2.798268   2.409213   1.404325
     7  Cl   2.732115   4.038793   4.538954   4.016061   2.729688
     8  Cl   1.740937   2.730893   4.023975   4.519288   4.035216
     9  Cl   4.042572   4.548109   4.018499   2.722085   1.740783
    10  Cl   2.737395   1.740878   2.717952   4.003582   4.548297
    11  H    3.910471   2.612189   1.619136   2.602476   3.903338
                    6          7          8          9         10
     6  C    0.000000
     7  Cl   1.740686   0.000000
     8  Cl   2.730641   3.149786   0.000000
     9  Cl   2.739262   3.166822   5.461259   0.000000
    10  Cl   4.042803   5.460318   3.161451   6.288829   0.000000
    11  H    4.417361   6.158041   5.336705   5.312328   3.072095
                   11
    11  H    0.000000
 Stoichiometry    C6HCl4(2)
 Framework group  CS[SG(C6HCl4)]
 Deg. of freedom    19
 Full point group                 CS      NOp   2
 Largest Abelian subgroup         CS      NOp   2
 Largest concise Abelian subgroup C1      NOp   1
                         Standard orientation:                         
 ---------------------------------------------------------------------
 Center     Atomic      Atomic             Coordinates (Angstroms)
 Number     Number       Type             X           Y           Z
 ---------------------------------------------------------------------
      1          6           0        0.000000   -0.778451    0.000000
      2          6           0        1.405096   -0.827115    0.000000
      3          6           0        2.136143    0.359602   -0.000000
      4          6           0        1.477537    1.574447   -0.000000
      5          6           0        0.087656    1.652044   -0.000000
      6          6           0       -0.660198    0.463413   -0.000000
      7         17           0       -2.399699    0.527649   -0.000000
      8         17           0       -0.923039   -2.254548    0.000000
      9         17           0       -0.704151    3.202323   -0.000000
     10         17           0        2.236768   -2.356487    0.000000
     11          1           0        3.754649    0.314431   -0.000000
 ---------------------------------------------------------------------
 Rotational constants (GHZ):           1.1696407           0.5388531           0.3689007
 Standard basis: VSTO-6G (5D, 7F)
 There are    31 symmetry adapted cartesian basis functions of A'  symmetry.
 There are    10 symmetry adapted cartesian basis functions of A"  symmetry.
 There are    31 symmetry adapted basis functions of A'  symmetry.
 There are    10 symmetry adapted basis functions of A"  symmetry.
    41 basis functions,   246 primitive gaussians,    41 cartesian basis functions
    27 alpha electrons       26 beta electrons
       nuclear repulsion energy       295.8502239946 Hartrees.
 Integral buffers will be    131072 words long.
 Regular integral format.
 Two-electron integral symmetry is turned off.
 Do NDO integrals.
 One-electron integrals computed using PRISM.
 NBasis=    41 RedAO= T EigKep=  1.00D+00  NBF=    31    10
 NBsUse=    41 1.00D-06 EigRej= -1.00D+00 NBFU=    31    10
 Initial guess from the checkpoint file:  "geometry_chks/12_45ClBzNeutralRadical.chk"
 B after Tr=     0.000000   -0.000000    0.000000
         Rot=    0.961038   -0.000000    0.000000    0.276417 Ang=  32.09 deg.
 Initial guess orbital symmetries:
 Alpha Orbitals:
       Occupied  (A') (A') (A') (A') (A') (A') (A') (A') (A') (A')
                 (A') (A') (A") (A') (A') (A") (A") (A') (A") (A')
                 (A') (A") (A') (A') (A') (A") (A")
       Virtual   (A") (A') (A") (A') (A') (A') (A') (A") (A') (A')
                 (A') (A') (A') (A')
 Beta  Orbitals:
       Occupied  (A') (A') (A') (A') (A') (A') (A') (A') (A') (A')
                 (A') (A') (A") (A') (A') (A") (A") (A') (A") (A')
                 (A') (A") (A') (A') (A") (A")
       Virtual   (A') (A") (A") (A') (A') (A') (A') (A') (A") (A')
                 (A') (A') (A') (A') (A')
 Initial guess <Sx>= 0.0000 <Sy>= 0.0000 <Sz>= 0.5000 <S**2>= 1.6012 S= 0.8606
 Keep J ints in memory in canonical form, NReq=864464.
 Overlap will be assumed to be unity.
 Requested convergence on RMS density matrix=1.00D-08 within  32 cycles.
 Requested convergence on MAX density matrix=1.00D-06.
 Requested convergence on             energy=1.00D-06.
 No special actions if energy rises.
 Fock symm off for IB=2 I1=    1 I=   32 J=   19 Cut=1.00D-07 Err=1.57D-03
 Fock matrix is not symmetric: symmetry in diagonalization turned off.
 SCF Done:  E(UAM1) =  0.177859605953     A.U. after   17 cycles
            NFock= 16  Conv=0.89D-08     -V/T= 1.0013
 <Sx>= 0.0000 <Sy>= 0.0000 <Sz>= 0.5000 <S**2>= 1.3428 S= 0.7621
 <L.S>=  0.00000000000    
 Annihilation of the first spin contaminant:
 S**2 before annihilation     1.3428,   after     1.0821
 QCSCF skips out because SCF is already converged.
 Calling FoFJK, ICntrl=      2127 FMM=F ISym2X=1 I1Cent= 0 IOpClX= 1 NMat=1 NMatS=1 NMatT=0.
 ***** Axes restored to original set *****
 -------------------------------------------------------------------
 Center     Atomic                   Forces (Hartrees/Bohr)
 Number     Number              X              Y              Z
 -------------------------------------------------------------------
      1        6          -0.027091195    0.013199617   -0.000000000
      2        6           0.007538056    0.028307628   -0.000000000
      3        6           0.105177434    0.039086552   -0.000000000
      4        6          -0.029902463    0.030848178    0.000000000
      5        6           0.019699941   -0.039867291   -0.000000000
      6        6          -0.026030884   -0.012325947    0.000000000
      7       17           0.024934698    0.015104427    0.000000000
      8       17           0.025268708   -0.013799006    0.000000000
      9       17           0.000057906    0.029551461    0.000000000
     10       17           0.002326977   -0.028513399    0.000000000
     11        1          -0.101979177   -0.061592220    0.000000000
 -------------------------------------------------------------------
 Cartesian Forces:  Max     0.105177434 RMS     0.033290743

 GradGradGradGradGradGradGradGradGradGradGradGradGradGradGradGradGradGrad
 Berny optimization.
 Using GEDIIS/GDIIS optimizer.
 FormGI is forming the generalized inverse of G from B-inverse, IUseBI=4.
 Internal  Forces:  Max     0.119135860 RMS     0.020292582
 Search for a local minimum.
 Step number   2 out of a maximum of   57
 All quantities printed in internal units (Hartrees-Bohrs-Radians)
 Mixed Optimization -- RFO/linear search
 Update second derivatives using D2CorX and points    1    2
 DE= -4.17D-02 DEPred=-3.58D-02 R= 1.16D+00
 TightC=F SS=  1.41D+00  RLast= 3.00D-01 DXNew= 5.0454D-01 9.0000D-01
 Trust test= 1.16D+00 RLast= 3.00D-01 DXMaxT set to 5.05D-01
 ITU=  1  0
 Use linear search instead of GDIIS.
     Eigenvalues ---   -3.04803   0.00066   0.02011   0.02011   0.02011
     Eigenvalues ---    0.02011   0.02011   0.02011   0.02011   0.02011
     Eigenvalues ---    0.16000   0.23215   0.24963   0.25000   0.25000
     Eigenvalues ---    0.25000   0.25000   0.25120   0.29030   0.29033
     Eigenvalues ---    0.29033   0.33222   0.41233   0.42166   0.44598
     Eigenvalues ---    0.44656   0.44657
 RFO step:  Lambda=-3.04804453D+00 EMin=-3.04803141D+00
 I=     1 Eig=   -3.05D+00 Dot1=  3.79D-03
 I=     1 Stepn=  6.00D-01 RXN=   6.00D-01 EDone=F
 Mixed    1 eigenvectors in step.  Raw Step.Grad=  3.79D-03.
 RFO eigenvector is Hessian eigenvector with negative curvature.
 Taking step of  6.00D-01 in eigenvector direction(s).  Step.Grad=  8.29D-03.
 Skip linear search -- no minimum in search direction.
 Maximum step size (   0.505) exceeded in Quadratic search.
    -- Step size not scaled.
 Iteration  1 RMS(Cart)=  0.09367105 RMS(Int)=  0.01728740
 Iteration  2 RMS(Cart)=  0.02000290 RMS(Int)=  0.00101220
 Iteration  3 RMS(Cart)=  0.00010646 RMS(Int)=  0.00100852
 Iteration  4 RMS(Cart)=  0.00000007 RMS(Int)=  0.00100852
 ClnCor:  largest displacement from symmetrization is 1.20D-08 for atom    10.
 Variable       Old X    -DE/DX   Delta X   Delta X   Delta X     New X
                                 (Linear)    (Quad)   (Total)
    R1        2.65684   0.00490   0.00000  -0.06499  -0.06591   2.59093
    R2        2.65780   0.00405   0.00000  -0.04994  -0.05163   2.60617
    R3        3.28989  -0.02879   0.00000  -0.14862  -0.14862   3.14128
    R4        2.63393  -0.00848   0.00000  -0.22093  -0.22010   2.41383
    R5        3.28978  -0.02855   0.00000  -0.15259  -0.15259   3.13719
    R6        2.61139  -0.02758   0.00000  -0.31469  -0.31300   2.29838
    R7        3.05972  -0.11914   0.00000   0.23763   0.23763   3.29736
    R8        2.63058  -0.01472   0.00000  -0.19584  -0.19476   2.43582
    R9        2.65379   0.00329   0.00000  -0.08796  -0.08863   2.56516
   R10        3.28960  -0.02952   0.00000  -0.14273  -0.14273   3.14687
   R11        3.28942  -0.02915   0.00000  -0.14917  -0.14917   3.14025
    A1        2.09404  -0.00076   0.00000  -0.02855  -0.03131   2.06273
    A2        2.09501   0.00055   0.00000   0.01642   0.01780   2.11280
    A3        2.09414   0.00021   0.00000   0.01213   0.01351   2.10765
    A4        2.08830  -0.00328   0.00000  -0.02403  -0.02432   2.06397
    A5        2.10349   0.00464   0.00000   0.03369   0.03384   2.13733
    A6        2.09140  -0.00136   0.00000  -0.00967  -0.00952   2.08188
    A7        2.09269  -0.00292   0.00000   0.04727   0.04935   2.14204
    A8        2.09501   0.00141   0.00000  -0.02474  -0.02578   2.06923
    A9        2.09548   0.00151   0.00000  -0.02253  -0.02357   2.07191
   A10        2.12335   0.02081   0.00000   0.06964   0.07301   2.19636
   A11        2.07662  -0.01140   0.00000  -0.03315  -0.03302   2.04359
   A12        2.09878   0.00349   0.00000   0.00013   0.00007   2.09885
   A13        2.10779   0.00791   0.00000   0.03302   0.03295   2.14074
   A14        2.09138  -0.00246   0.00000  -0.03118  -0.03371   2.05767
   A15        2.09633   0.00161   0.00000   0.01504   0.01631   2.11264
   A16        2.09548   0.00085   0.00000   0.01614   0.01740   2.11288
    D1        0.00000  -0.00000   0.00000   0.00000  -0.00000   0.00000
    D2        3.14159   0.00000   0.00000  -0.00000   0.00000   3.14159
    D3        3.14159  -0.00000   0.00000   0.00000   0.00000   3.14159
    D4        0.00000   0.00000   0.00000  -0.00000  -0.00000   0.00000
    D5       -0.00000  -0.00000   0.00000   0.00000   0.00000   0.00000
    D6        3.14159  -0.00000   0.00000   0.00000   0.00000   3.14159
    D7        3.14159   0.00000   0.00000   0.00000   0.00000   3.14159
    D8       -0.00000  -0.00000   0.00000   0.00000   0.00000   0.00000
    D9       -0.00000   0.00000   0.00000  -0.00000   0.00000   0.00000
   D10        3.14159   0.00000   0.00000  -0.00000   0.00000   3.14159
   D11        3.14159  -0.00000   0.00000   0.00000   0.00000   3.14159
   D12        0.00000   0.00000   0.00000  -0.00000  -0.00000   0.00000
   D13        0.00000  -0.00000   0.00000   0.00000   0.00000   0.00000
   D14        3.14159  -0.00000   0.00000   0.00000   0.00000   3.14159
   D15        0.00000  -0.00000   0.00000   0.00000  -0.00000   0.00000
   D16        3.14159   0.00000   0.00000  -0.00000   0.00000   3.14159
   D17       -0.00000   0.00000   0.00000  -0.00000   0.00000   0.00000
   D18        3.14159   0.00000   0.00000  -0.00000   0.00000   3.14159
   D19        3.14159  -0.00000   0.00000  -0.00000   0.00000   3.14159
   D20        0.00000   0.00000   0.00000  -0.00000   0.00000   0.00000
         Item               Value     Threshold  Converged?
 Maximum Force            0.119136     0.000450     NO 
 RMS     Force            0.020293     0.000300     NO 
 Maximum Displacement     0.308305     0.001800     NO 
 RMS     Displacement     0.108622     0.001200     NO 
 Predicted change in Energy=-5.520770D-01
 GradGradGradGradGradGradGradGradGradGradGradGradGradGradGradGradGradGrad

                          Input orientation:                          
 ---------------------------------------------------------------------
 Center     Atomic      Atomic             Coordinates (Angstroms)
 Number     Number       Type             X           Y           Z
 ---------------------------------------------------------------------
      1          6           0       -3.202999    0.191735    0.000000
      2          6           0       -2.013891    0.874254    0.000000
      3          6           0       -0.929325    0.199476    0.000000
      4          6           0       -0.911462   -1.016646    0.000000
      5          6           0       -1.945153   -1.786683   -0.000000
      6          6           0       -3.162832   -1.186804   -0.000000
      7         17           0       -4.560990   -2.084893   -0.000000
      8         17           0       -4.655598    0.999925    0.000000
      9         17           0       -1.758703   -3.441464   -0.000000
     10         17           0       -1.938432    2.532669    0.000000
     11          1           0        0.588546    1.060112    0.000000
 ---------------------------------------------------------------------
                    Distance matrix (angstroms):
                    1          2          3          4          5
     1  C    0.000000
     2  C    1.371062   0.000000
     3  C    2.273687   1.277344   0.000000
     4  C    2.590623   2.188801   1.216253   0.000000
     5  C    2.344422   2.661825   2.230859   1.288982   0.000000
     6  C    1.379124   2.359666   2.628750   2.257792   1.357424
     7  Cl   2.650882   3.904390   4.290376   3.802659   2.632781
     8  Cl   1.662292   2.644695   3.811277   4.252660   3.887377
     9  Cl   3.909747   4.323256   3.734208   2.568572   1.665252
    10  Cl   2.660658   1.660131   2.542064   3.694902   4.319357
    11  H    3.889716   2.609065   1.744886   2.561824   3.811019
                    6          7          8          9         10
     6  C    0.000000
     7  Cl   1.661749   0.000000
     8  Cl   2.647666   3.086268   0.000000
     9  Cl   2.656138   3.113374   5.302635   0.000000
    10  Cl   3.915818   5.310338   3.119663   5.976836   0.000000
    11  H    4.372810   6.033968   5.244489   5.076787   2.924729
                   11
    11  H    0.000000
 Stoichiometry    C6HCl4(2)
 Framework group  CS[SG(C6HCl4)]
 Deg. of freedom    19
 Full point group                 CS      NOp   2
 Largest Abelian subgroup         CS      NOp   2
 Largest concise Abelian subgroup C1      NOp   1
                         Standard orientation:                         
 ---------------------------------------------------------------------
 Center     Atomic      Atomic             Coordinates (Angstroms)
 Number     Number       Type             X           Y           Z
 ---------------------------------------------------------------------
      1          6           0        0.000000   -0.783832   -0.000000
      2          6           0        1.369456   -0.717492    0.000000
      3          6           0        1.919034    0.435579    0.000000
      4          6           0        1.278364    1.469413    0.000000
      5          6           0       -0.007390    1.560578    0.000000
      6          6           0       -0.709459    0.398814   -0.000000
      7         17           0       -2.371206    0.401307   -0.000000
      8         17           0       -0.787598   -2.247699   -0.000000
      9         17           0       -0.742597    3.054745    0.000000
     10         17           0        2.327198   -2.073503    0.000000
     11          1           0        3.661407    0.529174    0.000000
 ---------------------------------------------------------------------
 Rotational constants (GHZ):           1.2365684           0.5903153           0.3995685
 Standard basis: VSTO-6G (5D, 7F)
 There are    31 symmetry adapted cartesian basis functions of A'  symmetry.
 There are    10 symmetry adapted cartesian basis functions of A"  symmetry.
 There are    31 symmetry adapted basis functions of A'  symmetry.
 There are    10 symmetry adapted basis functions of A"  symmetry.
    41 basis functions,   246 primitive gaussians,    41 cartesian basis functions
    27 alpha electrons       26 beta electrons
       nuclear repulsion energy       304.2084141956 Hartrees.



 Warning!  Cl atom    7 may be hypervalent but has no d functions.
 Warning!  Cl atom    8 may be hypervalent but has no d functions.
 Warning!  Cl atom   10 may be hypervalent but has no d functions.



 Integral buffers will be    131072 words long.
 Regular integral format.
 Two-electron integral symmetry is turned off.
 Do NDO integrals.
 One-electron integrals computed using PRISM.
 NBasis=    41 RedAO= T EigKep=  1.00D+00  NBF=    31    10
 NBsUse=    41 1.00D-06 EigRej= -1.00D+00 NBFU=    31    10
 Initial guess from the checkpoint file:  "geometry_chks/12_45ClBzNeutralRadical.chk"
 B after Tr=    -0.000000    0.000000    0.000000
         Rot=    0.999667    0.000000   -0.000000   -0.025797 Ang=  -2.96 deg.
 Initial guess orbital symmetries:
 Alpha Orbitals:
       Occupied  (A') (A') (A') (A') (A') (A') (A') (A') (A') (A')
                 (A') (A') (A") (A') (A') (A") (A") (A') (A') (A")
                 (A') (A") (A') (A') (A') (A") (A")
       Virtual   (A") (A") (A') (A') (A') (A') (A') (A") (A') (A')
                 (A') (A') (A') (A')
 Beta  Orbitals:
       Occupied  (A') (A') (A') (A') (A') (A') (A') (A') (A') (A')
                 (A') (A') (A") (A') (A') (A") (A") (A') (A") (A')
                 (A') (A") (A') (A') (A") (A")
       Virtual   (A') (A") (A") (A') (A') (A') (A') (A') (A") (A')
                 (A') (A') (A') (A') (A')
 Initial guess <Sx>= 0.0000 <Sy>= 0.0000 <Sz>= 0.5000 <S**2>= 1.3428 S= 0.7621
 Keep J ints in memory in canonical form, NReq=864464.
 Overlap will be assumed to be unity.
 Requested convergence on RMS density matrix=1.00D-08 within  32 cycles.
 Requested convergence on MAX density matrix=1.00D-06.
 Requested convergence on             energy=1.00D-06.
 No special actions if energy rises.
 Fock symm off for IB=2 I1=    1 I=   32 J=   20 Cut=1.00D-07 Err=8.09D-03
 Fock matrix is not symmetric: symmetry in diagonalization turned off.
 SCF Done:  E(UAM1) =  0.272142786864     A.U. after   21 cycles
            NFock= 20  Conv=0.20D-08     -V/T= 1.0020
 <Sx>= 0.0000 <Sy>= 0.0000 <Sz>= 0.5000 <S**2>= 1.2018 S= 0.7049
 <L.S>=  0.00000000000    
 Annihilation of the first spin contaminant:
 S**2 before annihilation     1.2018,   after     0.9485
 QCSCF skips out because SCF is already converged.
 Calling FoFJK, ICntrl=      2127 FMM=F ISym2X=1 I1Cent= 0 IOpClX= 1 NMat=1 NMatS=1 NMatT=0.
 ***** Axes restored to original set *****
 -------------------------------------------------------------------
 Center     Atomic                   Forces (Hartrees/Bohr)
 Number     Number              X              Y              Z
 -------------------------------------------------------------------
      1        6          -0.058323921    0.016142839   -0.000000000
      2        6          -0.088053256    0.135962591   -0.000000000
      3        6           0.240142141    0.174267945   -0.000000000
      4        6           0.124419234   -0.137912243   -0.000000000
      5        6          -0.033080662   -0.141462669    0.000000000
      6        6          -0.068314080   -0.009653492    0.000000000
      7       17          -0.019665407   -0.012276646    0.000000000
      8       17          -0.019126050    0.011204691    0.000000000
      9       17           0.000575990   -0.027773932    0.000000000
     10       17          -0.003503022    0.034324147    0.000000000
     11        1          -0.075070967   -0.042823231    0.000000000
 -------------------------------------------------------------------
 Cartesian Forces:  Max     0.240142141 RMS     0.075631765

 GradGradGradGradGradGradGradGradGradGradGradGradGradGradGradGradGradGrad
 Berny optimization.
 Using GEDIIS/GDIIS optimizer.
 FormGI is forming the generalized inverse of G from B-inverse, IUseBI=4.
 Internal  Forces:  Max     0.232585574 RMS     0.059022293
 Search for a local minimum.
 Step number   3 out of a maximum of   57
 All quantities printed in internal units (Hartrees-Bohrs-Radians)
 Mixed Optimization -- RFO/linear search
 Update second derivatives using D2CorX and points    1    3    2
 ITU=  0  1  0
 Use linear search instead of GDIIS.
     Eigenvalues ---    0.00055   0.02011   0.02011   0.02011   0.02011
     Eigenvalues ---    0.02011   0.02011   0.02011   0.02011   0.16000
     Eigenvalues ---    0.22937   0.23397   0.24998   0.25000   0.25000
     Eigenvalues ---    0.25000   0.25034   0.27133   0.29031   0.29033
     Eigenvalues ---    0.29061   0.40296   0.40950   0.44578   0.44654
     Eigenvalues ---    0.44657   0.97464
 RFO step:  Lambda=-1.26210585D-01 EMin= 5.53829007D-04
 Quartic linear search produced a step of -0.97707.
 Maximum step size (   0.505) exceeded in Quadratic search.
    -- Step size scaled by   0.515
 Iteration  1 RMS(Cart)=  0.08887441 RMS(Int)=  0.07737322
 Iteration  2 RMS(Cart)=  0.02767038 RMS(Int)=  0.04629577
 Iteration  3 RMS(Cart)=  0.02779960 RMS(Int)=  0.01712353
 Iteration  4 RMS(Cart)=  0.01631851 RMS(Int)=  0.00021780
 Iteration  5 RMS(Cart)=  0.00000300 RMS(Int)=  0.00021779
 Iteration  6 RMS(Cart)=  0.00000000 RMS(Int)=  0.00021779
 ClnCor:  largest displacement from symmetrization is 2.11D-08 for atom     8.
 Variable       Old X    -DE/DX   Delta X   Delta X   Delta X     New X
                                 (Linear)    (Quad)   (Total)
    R1        2.59093   0.09724   0.06440   0.02772   0.09246   2.68339
    R2        2.60617   0.09656   0.05045   0.02548   0.07608   2.68225
    R3        3.14128   0.02216   0.14521  -0.05729   0.08792   3.22919
    R4        2.41383   0.19271   0.21506   0.02831   0.24356   2.65739
    R5        3.13719   0.03413   0.14909  -0.05456   0.09453   3.23173
    R6        2.29838   0.23259   0.30582   0.00650   0.31217   2.61055
    R7        3.29736  -0.08643  -0.23218  -0.48397  -0.71615   2.58120
    R8        2.43582   0.15721   0.19030   0.01028   0.20023   2.63606
    R9        2.56516   0.11634   0.08660   0.02945   0.11585   2.68101
   R10        3.14687   0.02766   0.13946  -0.05850   0.08096   3.22783
   R11        3.14025   0.02318   0.14575  -0.05797   0.08778   3.22803
    A1        2.06273   0.03184   0.03059   0.00822   0.03935   2.10208
    A2        2.11280  -0.01669  -0.01739  -0.00389  -0.02155   2.09125
    A3        2.10765  -0.01515  -0.01320  -0.00432  -0.01780   2.08985
    A4        2.06397  -0.01416   0.02377  -0.01002   0.01434   2.07831
    A5        2.13733  -0.00086  -0.03307   0.01053  -0.02283   2.11450
    A6        2.08188   0.01502   0.00930  -0.00051   0.00849   2.09037
    A7        2.14204  -0.02038  -0.04822  -0.01651  -0.06464   2.07740
    A8        2.06923   0.01056   0.02519   0.00818   0.03333   2.10256
    A9        2.07191   0.00982   0.02303   0.00832   0.03131   2.10322
   A10        2.19636  -0.01990  -0.07134   0.04369  -0.02833   2.16803
   A11        2.04359  -0.01222   0.03227  -0.03004   0.00170   2.04529
   A12        2.09885   0.01010  -0.00007   0.01064   0.01084   2.10969
   A13        2.14074   0.00212  -0.03220   0.01939  -0.01254   2.12820
   A14        2.05767   0.03481   0.03294   0.00466   0.03759   2.09525
   A15        2.11264  -0.01788  -0.01593  -0.00140  -0.01732   2.09531
   A16        2.11288  -0.01694  -0.01700  -0.00327  -0.02026   2.09262
    D1        0.00000   0.00000   0.00000  -0.00000   0.00000   0.00000
    D2        3.14159   0.00000   0.00000   0.00000   0.00000   3.14159
    D3        3.14159  -0.00000   0.00000  -0.00000   0.00000   3.14159
    D4       -0.00000   0.00000   0.00000   0.00000   0.00000   0.00000
    D5       -0.00000  -0.00000   0.00000  -0.00000   0.00000   0.00000
    D6        3.14159  -0.00000   0.00000  -0.00000   0.00000   3.14159
    D7        3.14159   0.00000   0.00000   0.00000   0.00000   3.14159
    D8        0.00000   0.00000   0.00000  -0.00000  -0.00000   0.00000
    D9        0.00000   0.00000   0.00000   0.00000  -0.00000   0.00000
   D10        3.14159   0.00000   0.00000   0.00000   0.00000   3.14159
   D11        3.14159  -0.00000   0.00000  -0.00000   0.00000   3.14159
   D12        0.00000   0.00000   0.00000   0.00000   0.00000   0.00000
   D13       -0.00000  -0.00000   0.00000  -0.00000   0.00000   0.00000
   D14        3.14159  -0.00000   0.00000  -0.00000   0.00000   3.14159
   D15        0.00000   0.00000   0.00000  -0.00000   0.00000   0.00000
   D16        3.14159   0.00000   0.00000   0.00000   0.00000   3.14159
   D17       -0.00000   0.00000   0.00000   0.00000   0.00000   0.00000
   D18        3.14159   0.00000   0.00000   0.00000   0.00000   3.14159
   D19        3.14159  -0.00000   0.00000  -0.00000   0.00000   3.14159
   D20       -0.00000   0.00000   0.00000   0.00000   0.00000   0.00000
         Item               Value     Threshold  Converged?
 Maximum Force            0.232586     0.000450     NO 
 RMS     Force            0.059022     0.000300     NO 
 Maximum Displacement     0.324157     0.001800     NO 
 RMS     Displacement     0.116064     0.001200     NO 
 Predicted change in Energy=-7.328142D-02
 GradGradGradGradGradGradGradGradGradGradGradGradGradGradGradGradGradGrad

                          Input orientation:                          
 ---------------------------------------------------------------------
 Center     Atomic      Atomic             Coordinates (Angstroms)
 Number     Number       Type             X           Y           Z
 ---------------------------------------------------------------------
      1          6           0       -3.194551    0.220957    0.000000
      2          6           0       -1.989429    0.971992    0.000000
      3          6           0       -0.759398    0.290447    0.000000
      4          6           0       -0.758532   -1.090997    0.000000
      5          6           0       -1.911508   -1.876175   -0.000000
      6          6           0       -3.157622   -1.197946   -0.000000
      7         17           0       -4.613427   -2.091584   -0.000000
      8         17           0       -4.699846    1.029744    0.000000
      9         17           0       -1.810847   -3.581302   -0.000000
     10         17           0       -2.012690    2.681990    0.000000
     11          1           0        0.417009    0.984556    0.000000
 ---------------------------------------------------------------------
                    Distance matrix (angstroms):
                    1          2          3          4          5
     1  C    0.000000
     2  C    1.419990   0.000000
     3  C    2.436145   1.406230   0.000000
     4  C    2.766842   2.402297   1.381444   0.000000
     5  C    2.458488   2.849233   2.453897   1.394941   0.000000
     6  C    1.419384   2.464408   2.822551   2.401473   1.418730
     7  Cl   2.713126   4.033715   4.530741   3.982636   2.710491
     8  Cl   1.708815   2.711032   4.009201   4.475657   4.027306
     9  Cl   4.046209   4.556794   4.011980   2.703513   1.708095
    10  Cl   2.730106   1.710156   2.700041   3.975971   4.559288
    11  H    3.691402   2.406471   1.365914   2.385334   3.688601
                    6          7          8          9         10
     6  C    0.000000
     7  Cl   1.708202   0.000000
     8  Cl   2.709439   3.122525   0.000000
     9  Cl   2.737551   3.173911   5.441329   0.000000
    10  Cl   4.045340   5.436069   3.154477   6.266543   0.000000
    11  H    4.188234   5.896433   5.117055   5.080394   2.963903
                   11
    11  H    0.000000
 Stoichiometry    C6HCl4(2)
 Framework group  CS[SG(C6HCl4)]
 Deg. of freedom    19
 Full point group                 CS      NOp   2
 Largest Abelian subgroup         CS      NOp   2
 Largest concise Abelian subgroup C1      NOp   1
                         Standard orientation:                         
 ---------------------------------------------------------------------
 Center     Atomic      Atomic             Coordinates (Angstroms)
 Number     Number       Type             X           Y           Z
 ---------------------------------------------------------------------
      1          6           0        0.000000   -0.790427    0.000000
      2          6           0        1.419426   -0.830459   -0.000000
      3          6           0        2.137239    0.378766   -0.000000
      4          6           0        1.440681    1.571744   -0.000000
      5          6           0        0.049036    1.667572   -0.000000
      6          6           0       -0.684334    0.453091    0.000000
      7         17           0       -2.392144    0.489691    0.000000
      8         17           0       -0.891208   -2.248438    0.000000
      9         17           0       -0.724755    3.190344   -0.000000
     10         17           0        2.262494   -2.318368   -0.000000
     11          1           0        3.503142    0.373381   -0.000000
 ---------------------------------------------------------------------
 Rotational constants (GHZ):           1.1808811           0.5427070           0.3718246
 Standard basis: VSTO-6G (5D, 7F)
 There are    31 symmetry adapted cartesian basis functions of A'  symmetry.
 There are    10 symmetry adapted cartesian basis functions of A"  symmetry.
 There are    31 symmetry adapted basis functions of A'  symmetry.
 There are    10 symmetry adapted basis functions of A"  symmetry.
    41 basis functions,   246 primitive gaussians,    41 cartesian basis functions
    27 alpha electrons       26 beta electrons
       nuclear repulsion energy       296.8947143143 Hartrees.
 Integral buffers will be    131072 words long.
 Regular integral format.
 Two-electron integral symmetry is turned off.
 Do NDO integrals.
 One-electron integrals computed using PRISM.
 NBasis=    41 RedAO= T EigKep=  1.00D+00  NBF=    31    10
 NBsUse=    41 1.00D-06 EigRej= -1.00D+00 NBFU=    31    10
 Lowest energy guess from the checkpoint file:  "geometry_chks/12_45ClBzNeutralRadical.chk"
 B after Tr=    -0.000000    0.000000   -0.000000
         Rot=    0.999983    0.000000   -0.000000   -0.005766 Ang=  -0.66 deg.
 B after Tr=     0.000000    0.000000   -0.000000
         Rot=    0.999800   -0.000000    0.000000    0.020019 Ang=   2.29 deg.
 Initial guess orbital symmetries:
 Alpha Orbitals:
       Occupied  (A') (A") (A') (A") (A') (A') (A') (A") (A') (A')
                 (A') (A') (A') (A') (A") (A") (A") (A") (A") (A")
                 (A") (A") (A") (A") (A") (A") (A")
       Virtual   (A') (A") (A') (A") (A') (A') (A') (A") (A') (A')
                 (A') (A') (A') (A')
 Beta  Orbitals:
       Occupied  (A') (A") (A") (A') (A') (A') (A") (A') (A') (A')
                 (A') (A') (A') (A') (A') (A") (A") (A') (A") (A')
                 (A') (A") (A') (A') (A") (A")
       Virtual   (A') (A") (A") (A') (A') (A') (A") (A') (A') (A')
                 (A') (A') (A') (A') (A')
 Initial guess <Sx>= 0.0000 <Sy>= 0.0000 <Sz>= 0.5000 <S**2>= 1.3368 S= 0.7597
 Keep J ints in memory in canonical form, NReq=864464.
 Overlap will be assumed to be unity.
 Requested convergence on RMS density matrix=1.00D-08 within  32 cycles.
 Requested convergence on MAX density matrix=1.00D-06.
 Requested convergence on             energy=1.00D-06.
 No special actions if energy rises.
 An orbital has undefined symmetry, so N**3 symmetry is turned off.
 SCF Done:  E(UAM1) =  0.116631818029     A.U. after   17 cycles
            NFock= 16  Conv=0.48D-08     -V/T= 1.0009
 <Sx>= 0.0000 <Sy>= 0.0000 <Sz>= 0.5000 <S**2>= 1.3834 S= 0.7781
 <L.S>=  0.00000000000    
 Annihilation of the first spin contaminant:
 S**2 before annihilation     1.3834,   after     1.1172
 QCSCF skips out because SCF is already converged.
 Calling FoFJK, ICntrl=      2127 FMM=F ISym2X=1 I1Cent= 0 IOpClX= 1 NMat=1 NMatS=1 NMatT=0.
 ***** Axes restored to original set *****
 -------------------------------------------------------------------
 Center     Atomic                   Forces (Hartrees/Bohr)
 Number     Number              X              Y              Z
 -------------------------------------------------------------------
      1        6          -0.003360333    0.002177449   -0.000000000
      2        6           0.002094109    0.000967629   -0.000000000
      3        6           0.087625562    0.036296577   -0.000000000
      4        6          -0.029920764    0.022086742    0.000000000
      5        6           0.013284797   -0.010625275   -0.000000000
      6        6          -0.004767011   -0.000469450    0.000000000
      7       17           0.011665322    0.006525835    0.000000000
      8       17           0.011428224   -0.005899173    0.000000000
      9       17          -0.000630932    0.016150024    0.000000000
     10       17           0.000992528   -0.015012876    0.000000000
     11        1          -0.088411502   -0.052197481    0.000000000
 -------------------------------------------------------------------
 Cartesian Forces:  Max     0.088411502 RMS     0.025869880

 GradGradGradGradGradGradGradGradGradGradGradGradGradGradGradGradGradGrad
 Berny optimization.
 Using GEDIIS/GDIIS optimizer.
 FormGI is forming the generalized inverse of G from B-inverse, IUseBI=4.
 Internal  Forces:  Max     0.102670200 RMS     0.016706072
 Search for a local minimum.
 Step number   4 out of a maximum of   57
 All quantities printed in internal units (Hartrees-Bohrs-Radians)
 Mixed Optimization -- RFO/linear search
 Update second derivatives using D2CorX and points    2    4
 DE= -6.12D-02 DEPred=-7.33D-02 R= 8.36D-01
 TightC=F SS=  1.41D+00  RLast= 5.00D-01 DXNew= 8.4853D-01 1.5014D+00
 Trust test= 8.36D-01 RLast= 5.00D-01 DXMaxT set to 8.49D-01
 ITU=  1  0  1  0
 Use linear search instead of GDIIS.
     Eigenvalues ---    0.01025   0.02011   0.02011   0.02011   0.02011
     Eigenvalues ---    0.02011   0.02011   0.02011   0.02011   0.10538
     Eigenvalues ---    0.16000   0.23326   0.24999   0.25000   0.25000
     Eigenvalues ---    0.25006   0.25059   0.25854   0.29033   0.29038
     Eigenvalues ---    0.29056   0.39146   0.41375   0.44505   0.44656
     Eigenvalues ---    0.44779   0.78940
 RFO step:  Lambda=-8.94474944D-03 EMin= 1.02479497D-02
 Quartic linear search produced a step of  1.02857.
 Iteration  1 RMS(Cart)=  0.02558242 RMS(Int)=  0.09625242
 Iteration  2 RMS(Cart)=  0.02775784 RMS(Int)=  0.06707890
 Iteration  3 RMS(Cart)=  0.02780310 RMS(Int)=  0.03790601
 Iteration  4 RMS(Cart)=  0.02780282 RMS(Int)=  0.00873378
 Iteration  5 RMS(Cart)=  0.00832258 RMS(Int)=  0.00012945
 Iteration  6 RMS(Cart)=  0.00000064 RMS(Int)=  0.00012945
 ClnCor:  largest displacement from symmetrization is 1.40D-08 for atom     9.
 Variable       Old X    -DE/DX   Delta X   Delta X   Delta X     New X
                                 (Linear)    (Quad)   (Total)
    R1        2.68339  -0.00778   0.02731  -0.03857  -0.01130   2.67210
    R2        2.68225  -0.00791   0.02515  -0.04107  -0.01612   2.66612
    R3        3.22919  -0.01286  -0.06244   0.09907   0.03664   3.26583
    R4        2.65739  -0.01325   0.02412   0.02427   0.04855   2.70593
    R5        3.23173  -0.01502  -0.05971   0.08275   0.02303   3.25476
    R6        2.61055  -0.02580  -0.00086   0.06218   0.06151   2.67206
    R7        2.58120  -0.10267  -0.49219  -0.36762  -0.85981   1.72139
    R8        2.63606  -0.01948   0.00563   0.01426   0.01994   2.65599
    R9        2.68101  -0.00824   0.02800  -0.02987  -0.00203   2.67898
   R10        3.22783  -0.01616  -0.06354   0.07843   0.01490   3.24273
   R11        3.22803  -0.01336  -0.06314   0.09760   0.03446   3.26249
    A1        2.10208  -0.00069   0.00827   0.00474   0.01275   2.11483
    A2        2.09125   0.00000  -0.00387  -0.00629  -0.01003   2.08123
    A3        2.08985   0.00069  -0.00441   0.00155  -0.00272   2.08713
    A4        2.07831   0.00046  -0.01027   0.03348   0.02331   2.10162
    A5        2.11450   0.00104   0.01133  -0.02830  -0.01702   2.09748
    A6        2.09037  -0.00150  -0.00106  -0.00518  -0.00629   2.08408
    A7        2.07740  -0.00571  -0.01573  -0.03916  -0.05454   2.02286
    A8        2.10256   0.00289   0.00777   0.02047   0.02806   2.13062
    A9        2.10322   0.00282   0.00796   0.01869   0.02648   2.12970
   A10        2.16803   0.01461   0.04596  -0.02742   0.01887   2.18690
   A11        2.04529  -0.00603  -0.03222   0.02993  -0.00242   2.04287
   A12        2.10969   0.00250   0.01122  -0.00280   0.00850   2.11819
   A13        2.12820   0.00354   0.02100  -0.02714  -0.00607   2.12213
   A14        2.09525  -0.00264   0.00399  -0.00157   0.00203   2.09729
   A15        2.09531   0.00219  -0.00104   0.00542   0.00457   2.09988
   A16        2.09262   0.00045  -0.00294  -0.00385  -0.00660   2.08602
    D1        0.00000   0.00000   0.00000   0.00000   0.00000   0.00000
    D2        3.14159   0.00000   0.00000   0.00000   0.00000   3.14159
    D3        3.14159  -0.00000   0.00000  -0.00000   0.00000   3.14159
    D4        0.00000   0.00000   0.00000  -0.00000  -0.00000   0.00000
    D5       -0.00000  -0.00000   0.00000  -0.00000   0.00000   0.00000
    D6        3.14159  -0.00000   0.00000  -0.00000   0.00000   3.14159
    D7        3.14159   0.00000   0.00000   0.00000   0.00000   3.14159
    D8        0.00000   0.00000   0.00000   0.00000  -0.00000   0.00000
    D9       -0.00000   0.00000   0.00000   0.00000   0.00000   0.00000
   D10        3.14159   0.00000   0.00000   0.00000   0.00000   3.14159
   D11        3.14159  -0.00000   0.00000  -0.00000   0.00000   3.14159
   D12        0.00000   0.00000   0.00000  -0.00000   0.00000   0.00000
   D13       -0.00000  -0.00000   0.00000  -0.00000   0.00000   0.00000
   D14        3.14159  -0.00000   0.00000  -0.00000   0.00000   3.14159
   D15       -0.00000  -0.00000   0.00000  -0.00000   0.00000   0.00000
   D16        3.14159   0.00000   0.00000   0.00000   0.00000   3.14159
   D17        0.00000   0.00000   0.00000   0.00000  -0.00000   0.00000
   D18        3.14159   0.00000   0.00000   0.00000   0.00000   3.14159
   D19        3.14159  -0.00000   0.00000  -0.00000   0.00000   3.14159
   D20       -0.00000   0.00000   0.00000  -0.00000   0.00000   0.00000
         Item               Value     Threshold  Converged?
 Maximum Force            0.102670     0.000450     NO 
 RMS     Force            0.016706     0.000300     NO 
 Maximum Displacement     0.599298     0.001800     NO 
 RMS     Displacement     0.107984     0.001200     NO 
 Predicted change in Energy=-7.593037D-02
 GradGradGradGradGradGradGradGradGradGradGradGradGradGradGradGradGradGrad

                          Input orientation:                          
 ---------------------------------------------------------------------
 Center     Atomic      Atomic             Coordinates (Angstroms)
 Number     Number       Type             X           Y           Z
 ---------------------------------------------------------------------
      1          6           0       -3.150599    0.231979    0.000000
      2          6           0       -1.956837    0.989846    0.000000
      3          6           0       -0.682994    0.335847    0.000000
      4          6           0       -0.714449   -1.077797    0.000000
      5          6           0       -1.879307   -1.864251   -0.000000
      6          6           0       -3.120095   -1.178542   -0.000000
      7         17           0       -4.591285   -2.081969   -0.000000
      8         17           0       -4.671599    1.052492    0.000000
      9         17           0       -1.799607   -3.578378   -0.000000
     10         17           0       -2.023943    2.710883    0.000000
     11          1           0        0.099874    0.801570    0.000000
 ---------------------------------------------------------------------
                    Distance matrix (angstroms):
                    1          2          3          4          5
     1  C    0.000000
     2  C    1.414012   0.000000
     3  C    2.469790   1.431919   0.000000
     4  C    2.765924   2.412193   1.413994   0.000000
     5  C    2.451604   2.855150   2.504315   1.405490   0.000000
     6  C    1.410851   2.460707   2.869292   2.407754   1.417657
     7  Cl   2.725790   4.046772   4.595713   4.004774   2.720703
     8  Cl   1.728202   2.715485   4.052475   4.494125   4.037856
     9  Cl   4.042772   4.570930   4.070379   2.725890   1.715980
    10  Cl   2.722924   1.722344   2.727442   4.008599   4.577419
    11  H    3.300001   2.065311   0.910923   2.048205   3.320205
                    6          7          8          9         10
     6  C    0.000000
     7  Cl   1.726436   0.000000
     8  Cl   2.717476   3.135489   0.000000
     9  Cl   2.739143   3.167445   5.449156   0.000000
    10  Cl   4.040938   5.437157   3.124155   6.293261   0.000000
    11  H    3.780085   5.506521   4.778067   4.774094   2.855885
                   11
    11  H    0.000000
 Stoichiometry    C6HCl4(2)
 Framework group  CS[SG(C6HCl4)]
 Deg. of freedom    19
 Full point group                 CS      NOp   2
 Largest Abelian subgroup         CS      NOp   2
 Largest concise Abelian subgroup C1      NOp   1
                         Standard orientation:                         
 ---------------------------------------------------------------------
 Center     Atomic      Atomic             Coordinates (Angstroms)
 Number     Number       Type             X           Y           Z
 ---------------------------------------------------------------------
      1          6           0        0.000000   -0.774929    0.000000
      2          6           0        1.411473   -0.859623    0.000000
      3          6           0        2.209039    0.329612    0.000000
      4          6           0        1.496695    1.551064   -0.000000
      5          6           0        0.096659    1.674769   -0.000000
      6          6           0       -0.656627    0.473807   -0.000000
      7         17           0       -2.381317    0.551444   -0.000000
      8         17           0       -0.933119   -2.229566    0.000000
      9         17           0       -0.664009    3.212940   -0.000000
     10         17           0        2.186506   -2.397737    0.000000
     11          1           0        3.119526    0.301439    0.000000
 ---------------------------------------------------------------------
 Rotational constants (GHZ):           1.1855554           0.5384603           0.3702835
 Standard basis: VSTO-6G (5D, 7F)
 There are    31 symmetry adapted cartesian basis functions of A'  symmetry.
 There are    10 symmetry adapted cartesian basis functions of A"  symmetry.
 There are    31 symmetry adapted basis functions of A'  symmetry.
 There are    10 symmetry adapted basis functions of A"  symmetry.
    41 basis functions,   246 primitive gaussians,    41 cartesian basis functions
    27 alpha electrons       26 beta electrons
       nuclear repulsion energy       297.0802590405 Hartrees.
 Integral buffers will be    131072 words long.
 Regular integral format.
 Two-electron integral symmetry is turned off.
 Do NDO integrals.
 One-electron integrals computed using PRISM.
 NBasis=    41 RedAO= T EigKep=  1.00D+00  NBF=    31    10
[...]
    R3        3.19447  -0.00002   0.00006  -0.00012  -0.00005   3.19442
    R4        2.67274   0.00007   0.00010   0.00003   0.00014   2.67288
    R5        3.18880   0.00003   0.00015  -0.00008   0.00007   3.18888
    R6        2.58186  -0.00014  -0.00001  -0.00024  -0.00026   2.58160
    R7        2.07464   0.00014   0.00021   0.00020   0.00041   2.07505
    R8        2.59943  -0.00007   0.00004  -0.00015  -0.00012   2.59931
    R9        2.68429   0.00000   0.00015  -0.00012   0.00003   2.68431
   R10        3.17074   0.00000  -0.00004   0.00004   0.00001   3.17075
   R11        3.18454   0.00000   0.00005  -0.00005   0.00001   3.18455
    A1        2.11442  -0.00003  -0.00001  -0.00007  -0.00008   2.11433
    A2        2.08506   0.00001  -0.00002   0.00005   0.00002   2.08509
    A3        2.08371   0.00002   0.00003   0.00003   0.00006   2.08377
    A4        2.09414   0.00001   0.00001   0.00002   0.00004   2.09417
    A5        2.11518  -0.00003  -0.00004  -0.00007  -0.00011   2.11507
    A6        2.07387   0.00002   0.00002   0.00005   0.00007   2.07394
    A7        2.00496   0.00001  -0.00000   0.00005   0.00004   2.00501
    A8        2.13318   0.00000   0.00008  -0.00007   0.00001   2.13318
    A9        2.14505  -0.00001  -0.00008   0.00003  -0.00005   2.14500
   A10        2.26224  -0.00001   0.00001  -0.00009  -0.00008   2.26215
   A11        2.00569   0.00006  -0.00005   0.00023   0.00018   2.00587
   A12        2.13080  -0.00007   0.00003  -0.00028  -0.00024   2.13056
   A13        2.14669   0.00001   0.00001   0.00005   0.00006   2.14675
   A14        2.08492  -0.00003   0.00004  -0.00013  -0.00009   2.08483
   A15        2.10706  -0.00002   0.00000  -0.00010  -0.00009   2.10697
   A16        2.09120   0.00006  -0.00004   0.00023   0.00018   2.09139
    D1        0.00000  -0.00000   0.00000  -0.00000  -0.00000   0.00000
    D2        3.14159   0.00000   0.00000   0.00000   0.00000   3.14159
    D3        3.14159  -0.00000   0.00000  -0.00000   0.00000   3.14159
    D4       -0.00000  -0.00000   0.00000  -0.00000   0.00000   0.00000
    D5       -0.00000  -0.00000   0.00000  -0.00000   0.00000   0.00000
    D6        3.14159  -0.00000   0.00000  -0.00000   0.00000   3.14159
    D7        3.14159   0.00000   0.00000   0.00000   0.00000   3.14159
    D8        0.00000   0.00000   0.00000   0.00000  -0.00000   0.00000
    D9        0.00000   0.00000   0.00000   0.00000   0.00000   0.00000
   D10        3.14159   0.00000   0.00000   0.00000   0.00000   3.14159
   D11        3.14159  -0.00000   0.00000  -0.00000   0.00000   3.14159
   D12       -0.00000  -0.00000   0.00000  -0.00000   0.00000   0.00000
   D13       -0.00000  -0.00000   0.00000  -0.00000   0.00000   0.00000
   D14        3.14159  -0.00000   0.00000  -0.00000   0.00000   3.14159
   D15        0.00000  -0.00000   0.00000  -0.00000   0.00000   0.00000
   D16        3.14159   0.00000   0.00000   0.00000   0.00000   3.14159
   D17       -0.00000   0.00000   0.00000   0.00000   0.00000   0.00000
   D18        3.14159   0.00000   0.00000   0.00000   0.00000   3.14159
   D19        3.14159  -0.00000   0.00000  -0.00000   0.00000   3.14159
   D20       -0.00000  -0.00000   0.00000  -0.00000   0.00000   0.00000
         Item               Value     Threshold  Converged?
 Maximum Force            0.000142     0.000450     YES
 RMS     Force            0.000038     0.000300     YES
 Maximum Displacement     0.000532     0.001800     YES
 RMS     Displacement     0.000139     0.001200     YES
 Predicted change in Energy=-9.411842D-08
 Optimization completed.
    -- Stationary point found.
                           ----------------------------
                           !   Optimized Parameters   !
                           ! (Angstroms and Degrees)  !
 --------------------------                            --------------------------
 ! Name  Definition              Value          Derivative Info.                !
 --------------------------------------------------------------------------------
 ! R1    R(1,2)                  1.4155         -DE/DX =    0.0                 !
 ! R2    R(1,6)                  1.4163         -DE/DX =    0.0                 !
 ! R3    R(1,8)                  1.6904         -DE/DX =    0.0                 !
 ! R4    R(2,3)                  1.4144         -DE/DX =    0.0001              !
 ! R5    R(2,10)                 1.6874         -DE/DX =    0.0                 !
 ! R6    R(3,4)                  1.3663         -DE/DX =   -0.0001              !
 ! R7    R(3,11)                 1.0979         -DE/DX =    0.0001              !
 ! R8    R(4,5)                  1.3756         -DE/DX =   -0.0001              !
 ! R9    R(5,6)                  1.4205         -DE/DX =    0.0                 !
 ! R10   R(5,9)                  1.6779         -DE/DX =    0.0                 !
 ! R11   R(6,7)                  1.6852         -DE/DX =    0.0                 !
 ! A1    A(2,1,6)              121.1471         -DE/DX =    0.0                 !
 ! A2    A(2,1,8)              119.4653         -DE/DX =    0.0                 !
 ! A3    A(6,1,8)              119.3876         -DE/DX =    0.0                 !
 ! A4    A(1,2,3)              119.9854         -DE/DX =    0.0                 !
 ! A5    A(1,2,10)             121.1909         -DE/DX =    0.0                 !
 ! A6    A(3,2,10)             118.8238         -DE/DX =    0.0                 !
 ! A7    A(2,3,4)              114.8758         -DE/DX =    0.0                 !
 ! A8    A(2,3,11)             122.222          -DE/DX =    0.0                 !
 ! A9    A(4,3,11)             122.9022         -DE/DX =    0.0                 !
 ! A10   A(3,4,5)              129.6166         -DE/DX =    0.0                 !
 ! A11   A(4,5,6)              114.9178         -DE/DX =    0.0001              !
 ! A12   A(4,5,9)              122.086          -DE/DX =   -0.0001              !
 ! A13   A(6,5,9)              122.9962         -DE/DX =    0.0                 !
 ! A14   A(1,6,5)              119.4573         -DE/DX =    0.0                 !
 ! A15   A(1,6,7)              120.7257         -DE/DX =    0.0                 !
 ! A16   A(5,6,7)              119.817          -DE/DX =    0.0001              !
 ! D1    D(6,1,2,3)              0.0            -DE/DX =    0.0                 !
 ! D2    D(6,1,2,10)           180.0            -DE/DX =    0.0                 !
 ! D3    D(8,1,2,3)            180.0            -DE/DX =    0.0                 !
 ! D4    D(8,1,2,10)             0.0            -DE/DX =    0.0                 !
 ! D5    D(2,1,6,5)              0.0            -DE/DX =    0.0                 !
 ! D6    D(2,1,6,7)            180.0            -DE/DX =    0.0                 !
 ! D7    D(8,1,6,5)            180.0            -DE/DX =    0.0                 !
 ! D8    D(8,1,6,7)              0.0            -DE/DX =    0.0                 !
 ! D9    D(1,2,3,4)              0.0            -DE/DX =    0.0                 !
 ! D10   D(1,2,3,11)           180.0            -DE/DX =    0.0                 !
 ! D11   D(10,2,3,4)           180.0            -DE/DX =    0.0                 !
 ! D12   D(10,2,3,11)            0.0            -DE/DX =    0.0                 !
 ! D13   D(2,3,4,5)              0.0            -DE/DX =    0.0                 !
 ! D14   D(11,3,4,5)           180.0            -DE/DX =    0.0                 !
 ! D15   D(3,4,5,6)              0.0            -DE/DX =    0.0                 !
 ! D16   D(3,4,5,9)            180.0            -DE/DX =    0.0                 !
 ! D17   D(4,5,6,1)              0.0            -DE/DX =    0.0                 !
 ! D18   D(4,5,6,7)            180.0            -DE/DX =    0.0                 !
 ! D19   D(9,5,6,1)            180.0            -DE/DX =    0.0                 !
 ! D20   D(9,5,6,7)              0.0            -DE/DX =    0.0                 !
 --------------------------------------------------------------------------------
 GradGradGradGradGradGradGradGradGradGradGradGradGradGradGradGradGradGrad

                          Input orientation:                          
 ---------------------------------------------------------------------
 Center     Atomic      Atomic             Coordinates (Angstroms)
 Number     Number       Type             X           Y           Z
 ---------------------------------------------------------------------
      1          6           0       -3.171433    0.225273    0.000000
      2          6           0       -1.971780    0.976610    0.000000
      3          6           0       -0.722471    0.313573    0.000000
      4          6           0       -0.795883   -1.050712    0.000000
      5          6           0       -1.901114   -1.869630   -0.000000
      6          6           0       -3.148900   -1.190848   -0.000000
      7         17           0       -4.583643   -2.074796   -0.000000
      8         17           0       -4.657360    1.031261    0.000000
      9         17           0       -1.770915   -3.542456   -0.000000
     10         17           0       -1.997339    2.663859    0.000000
     11          1           0        0.229999    0.859545    0.000000
 ---------------------------------------------------------------------
                    Distance matrix (angstroms):
                    1          2          3          4          5
     1  C    0.000000
     2  C    1.415512   0.000000
     3  C    2.450554   1.414352   0.000000
     4  C    2.696549   2.343666   1.366259   0.000000
     5  C    2.449966   2.847117   2.481043   1.375559   0.000000
     6  C    1.416301   2.466473   2.854968   2.357186   1.420463
     7  Cl   2.699010   4.016579   4.540149   3.923757   2.690363
     8  Cl   1.690442   2.686136   3.999804   4.386983   4.001508
     9  Cl   4.019607   4.523528   3.996022   2.675719   1.677885
    10  Cl   2.706511   1.687443   2.673787   3.904041   4.534511
    11  H    3.460063   2.204889   1.097854   2.168298   3.462664
                    6          7          8          9         10
     6  C    0.000000
     7  Cl   1.685185   0.000000
     8  Cl   2.685744   3.106932   0.000000
     9  Cl   2.725601   3.172612   5.408369   0.000000
    10  Cl   4.023042   5.398502   3.121072   6.210444   0.000000
    11  H    3.952350   5.637508   4.890375   4.835418   2.866458
                   11
    11  H    0.000000
 Stoichiometry    C6HCl4(2)
 Framework group  CS[SG(C6HCl4)]
 Deg. of freedom    19
 Full point group                 CS      NOp   2
 Largest Abelian subgroup         CS      NOp   2
 Largest concise Abelian subgroup C1      NOp   1
                         Standard orientation:                         
 ---------------------------------------------------------------------
 Center     Atomic      Atomic             Coordinates (Angstroms)
 Number     Number       Type             X           Y           Z
 ---------------------------------------------------------------------
      1          6           0        0.000000   -0.785059    0.000000
      2          6           0        1.414970   -0.824228    0.000000
      3          6           0        2.155461    0.380789    0.000000
      4          6           0        1.400314    1.519392    0.000000
      5          6           0        0.032451    1.664691   -0.000000
      6          6           0       -0.698742    0.446877   -0.000000
      7         17           0       -2.383579    0.481117   -0.000000
      8         17           0       -0.871929   -2.233277   -0.000000
      9         17           0       -0.703680    3.172474   -0.000000
     10         17           0        2.248603   -2.291375    0.000000
     11          1           0        3.253244    0.393262    0.000000
 ---------------------------------------------------------------------
 Rotational constants (GHZ):           1.1990665           0.5514336           0.3777238

 **********************************************************************

            Population analysis using the SCF Density.

 **********************************************************************

 Orbital symmetries:
 Alpha Orbitals:
       Occupied  (A') (A') (A') (A') (A') (A') (A') (A') (A') (A')
                 (A') (A') (A') (A") (A') (A') (A") (A") (A") (A')
                 (A') (A') (A") (A') (A') (A") (A")
       Virtual   (A") (A") (A') (A') (A') (A') (A") (A') (A') (A')
                 (A') (A') (A') (A')
 Beta  Orbitals:
       Occupied  (A') (A') (A') (A') (A') (A') (A') (A') (A') (A')
                 (A') (A') (A') (A") (A') (A") (A') (A") (A") (A')
                 (A') (A') (A') (A") (A") (A")
       Virtual   (A') (A") (A") (A') (A') (A') (A') (A") (A') (A')
                 (A') (A') (A') (A') (A')
 The electronic state is 2-A'.
 Alpha  occ. eigenvalues --   -1.49073  -1.42194  -1.41002  -1.39814  -1.38035
 Alpha  occ. eigenvalues --   -1.17523  -1.15207  -0.90726  -0.88420  -0.70591
 Alpha  occ. eigenvalues --   -0.66281  -0.65562  -0.60005  -0.59108  -0.56493
 Alpha  occ. eigenvalues --   -0.52807  -0.52594  -0.50125  -0.47748  -0.47576
 Alpha  occ. eigenvalues --   -0.45879  -0.45338  -0.44788  -0.44565  -0.41124
 Alpha  occ. eigenvalues --   -0.38139  -0.36999
 Alpha virt. eigenvalues --   -0.02013  -0.01513   0.01372   0.02575   0.03225
 Alpha virt. eigenvalues --    0.04598   0.06046   0.10948   0.11841   0.12889
 Alpha virt. eigenvalues --    0.13184   0.14548   0.16164   0.16649
  Beta  occ. eigenvalues --   -1.48512  -1.42104  -1.40907  -1.39780  -1.37598
  Beta  occ. eigenvalues --   -1.17432  -1.13946  -0.90394  -0.86162  -0.70509
  Beta  occ. eigenvalues --   -0.65824  -0.64180  -0.59742  -0.58889  -0.55714
  Beta  occ. eigenvalues --   -0.52568  -0.52557  -0.49913  -0.47762  -0.46496
  Beta  occ. eigenvalues --   -0.45785  -0.45152  -0.44529  -0.44328  -0.37858
  Beta  occ. eigenvalues --   -0.36949
  Beta virt. eigenvalues --   -0.02199  -0.02085  -0.00192   0.01510   0.02625
  Beta virt. eigenvalues --    0.04129   0.04768   0.06966   0.11217   0.12249
  Beta virt. eigenvalues --    0.13070   0.13935   0.14586   0.16697   0.18259
          Condensed to atoms (all electrons):
               1          2          3          4          5          6
     1  C    4.069714   0.000000   0.000000   0.000000   0.000000   0.000000
     2  C    0.000000   4.058974   0.000000   0.000000   0.000000   0.000000
     3  C    0.000000   0.000000   4.098577   0.000000   0.000000   0.000000
     4  C    0.000000   0.000000   0.000000   4.040879   0.000000   0.000000
     5  C    0.000000   0.000000   0.000000   0.000000   4.054078   0.000000
     6  C    0.000000   0.000000   0.000000   0.000000   0.000000   4.058505
     7  Cl   0.000000   0.000000   0.000000   0.000000   0.000000   0.000000
     8  Cl   0.000000   0.000000   0.000000   0.000000   0.000000   0.000000
     9  Cl   0.000000   0.000000   0.000000   0.000000   0.000000   0.000000
    10  Cl   0.000000   0.000000   0.000000   0.000000   0.000000   0.000000
    11  H    0.000000   0.000000   0.000000   0.000000   0.000000   0.000000
               7          8          9         10         11
     1  C    0.000000   0.000000   0.000000   0.000000   0.000000
     2  C    0.000000   0.000000   0.000000   0.000000   0.000000
     3  C    0.000000   0.000000   0.000000   0.000000   0.000000
     4  C    0.000000   0.000000   0.000000   0.000000   0.000000
     5  C    0.000000   0.000000   0.000000   0.000000   0.000000
     6  C    0.000000   0.000000   0.000000   0.000000   0.000000
     7  Cl   6.946984   0.000000   0.000000   0.000000   0.000000
     8  Cl   0.000000   6.954216   0.000000   0.000000   0.000000
     9  Cl   0.000000   0.000000   6.937161   0.000000   0.000000
    10  Cl   0.000000   0.000000   0.000000   6.962195   0.000000
    11  H    0.000000   0.000000   0.000000   0.000000   0.818716
          Atomic-Atomic Spin Densities.
               1          2          3          4          5          6
     1  C   -0.498296   0.000000   0.000000   0.000000   0.000000   0.000000
     2  C    0.000000   0.537189   0.000000   0.000000   0.000000   0.000000
     3  C    0.000000   0.000000  -0.527668   0.000000   0.000000   0.000000
     4  C    0.000000   0.000000   0.000000   1.415530   0.000000   0.000000
     5  C    0.000000   0.000000   0.000000   0.000000  -0.518403   0.000000
     6  C    0.000000   0.000000   0.000000   0.000000   0.000000   0.529753
     7  Cl   0.000000   0.000000   0.000000   0.000000   0.000000   0.000000
     8  Cl   0.000000   0.000000   0.000000   0.000000   0.000000   0.000000
     9  Cl   0.000000   0.000000   0.000000   0.000000   0.000000   0.000000
    10  Cl   0.000000   0.000000   0.000000   0.000000   0.000000   0.000000
    11  H    0.000000   0.000000   0.000000   0.000000   0.000000   0.000000
               7          8          9         10         11
     1  C    0.000000   0.000000   0.000000   0.000000   0.000000
     2  C    0.000000   0.000000   0.000000   0.000000   0.000000
     3  C    0.000000   0.000000   0.000000   0.000000   0.000000
     4  C    0.000000   0.000000   0.000000   0.000000   0.000000
     5  C    0.000000   0.000000   0.000000   0.000000   0.000000
     6  C    0.000000   0.000000   0.000000   0.000000   0.000000
     7  Cl   0.018691   0.000000   0.000000   0.000000   0.000000
     8  Cl   0.000000  -0.005457   0.000000   0.000000   0.000000
     9  Cl   0.000000   0.000000  -0.002745   0.000000   0.000000
    10  Cl   0.000000   0.000000   0.000000   0.016383   0.000000
    11  H    0.000000   0.000000   0.000000   0.000000   0.035023
 Mulliken charges and spin densities:
               1          2
     1  C   -0.069714  -0.498296
     2  C   -0.058974   0.537189
     3  C   -0.098577  -0.527668
     4  C   -0.040879   1.415530
     5  C   -0.054078  -0.518403
     6  C   -0.058505   0.529753
     7  Cl   0.053016   0.018691
     8  Cl   0.045784  -0.005457
     9  Cl   0.062839  -0.002745
    10  Cl   0.037805   0.016383
    11  H    0.181284   0.035023
 Sum of Mulliken charges =  -0.00000   1.00000
 Mulliken charges and spin densities with hydrogens summed into heavy atoms:
               1          2
     1  C   -0.069714  -0.498296
     2  C   -0.058974   0.537189
     3  C    0.082707  -0.492645
     4  C   -0.040879   1.415530
     5  C   -0.054078  -0.518403
     6  C   -0.058505   0.529753
     7  Cl   0.053016   0.018691
     8  Cl   0.045784  -0.005457
     9  Cl   0.062839  -0.002745
    10  Cl   0.037805   0.016383
 Charge=             -0.0000 electrons
 Dipole moment (field-independent basis, Debye):
    X=              0.6656    Y=             -0.0874    Z=              0.0000  Tot=              0.6713
 N-N= 2.988122128029D+02 E-N=-4.232700555607D+02  KE=-1.337577722833D+02
 Symmetry A'   KE=-1.022240421773D+02
 Symmetry A"   KE=-3.153373010600D+01
 Symmetry A'   SP= 1.000000000000D+00
 Symmetry A"   SP= 2.442490654175D-15
 1\1\GINC-SH02-01N16\FOpt\UAM1\ZDO\C6H1Cl4(2)\JLAPIER\09-Dec-2025\0\\# 
 opt am1 SCF=XQC\\Neutral Radical (removed 3) 12_45\\0,2\C,-3.171433279
 5,0.225273491,0.\C,-1.9717802598,0.9766103033,0.\C,-0.7224708936,0.313
 5728421,0.\C,-0.7958833262,-1.0507123045,0.\C,-1.9011142897,-1.8696300
 574,0.\C,-3.1488999566,-1.1908482756,0.\Cl,-4.5836425598,-2.0747957052
 ,0.\Cl,-4.6573604018,1.0312611838,0.\Cl,-1.770914873,-3.5424560709,0.\
 Cl,-1.9973387351,2.6638594025,0.\H,0.2299985751,0.8595451907,0.\\Versi
 on=ES64L-G16RevB.01\State=2-A'\HF=0.0817672\S2=1.361411\S2-1=0.\S2A=1.
 089032\RMSD=6.361e-09\RMSF=5.972e-05\Dipole=0.208255,0.1624449,0.\PG=C
 S [SG(C6H1Cl4)]\\@


 IN THE WOODS WE RETURN TO REASON AND FAITH.

                                 -- EMERSON
 Job cpu time:       0 days  0 hours  0 minutes  7.9 seconds.
 Elapsed time:       0 days  0 hours  0 minutes 17.9 seconds.
 File lengths (MBytes):  RWF=     15 Int=      0 D2E=      0 Chk=      2 Scr=      1
 Normal termination of Gaussian 16 at Tue Dec  9 08:34:58 2025.
