 Entering Gaussian System, Link 0=g16
 Initial command:
 /share/software/user/restricted/gaussian/g16.B01/l1.exe "/home/users/jlapier/Chloroaromatics/Gau-29335.inp" -scrdir="/home/users/jlapier/Chloroaromatics/"
 Entering Link 1 = /share/software/user/restricted/gaussian/g16.B01/l1.exe PID=     29336.
  
 Copyright (c) 1988-2017, Gaussian, Inc.  All Rights Reserved.
  
 This is part of the Gaussian(R) 16 program.  It is based on
 the Gaussian(R) 09 system (copyright 2009, Gaussian, Inc.),
 the Gaussian(R) 03 system (copyright 2003, Gaussian, Inc.),
 the Gaussian(R) 98 system (copyright 1998, Gaussian, Inc.),
 the Gaussian(R) 94 system (copyright 1995, Gaussian, Inc.),
 the Gaussian 92(TM) system (copyright 1992, Gaussian, Inc.),
 the Gaussian 90(TM) system (copyright 1990, Gaussian, Inc.),
 the Gaussian 88(TM) system (copyright 1988, Gaussian, Inc.),
 the Gaussian 86(TM) system (copyright 1986, Carnegie Mellon
 University), and the Gaussian 82(TM) system (copyright 1983,
 Carnegie Mellon University). Gaussian is a federally registered
 trademark of Gaussian, Inc.
  
 This software contains proprietary and confidential information,
 including trade secrets, belonging to Gaussian, Inc.
  
 This software is provided under written license and may be
 used, copied, transmitted, or stored only in accord with that
 written license.
  
 The following legend is applicable only to US Government
 contracts under FAR:
  
                    RESTRICTED RIGHTS LEGEND
  
 Use, reproduction and disclosure by the US Government is
 subject to restrictions as set forth in subparagraphs (a)
 and (c) of the Commercial Computer Software - Restricted
 Rights clause in FAR 52.227-19.
  
 Gaussian, Inc.
 340 Quinnipiac St., Bldg. 40, Wallingford CT 06492
  
  
 ---------------------------------------------------------------
 Warning -- This program may not be used in any manner that
 competes with the business of Gaussian, Inc. or will provide
 assistance to any competitor of Gaussian, Inc.  The licensee
 of this program is prohibited from giving any competitor of
 Gaussian, Inc. access to this program.  By using this program,
 the user acknowledges that Gaussian, Inc. is engaged in the
 business of creating and licensing software in the field of
 computational chemistry and represents and warrants to the
 licensee that it is not a competitor of Gaussian, Inc. and that
 it will not use this program in any manner prohibited above.
 ---------------------------------------------------------------
  

 Cite this work as:
 Gaussian 16, Revision B.01,
 M. J. Frisch, G. W. Trucks, H. B. Schlegel, G. E. Scuseria, 
 M. A. Robb, J. R. Cheeseman, G. Scalmani, V. Barone, 
 G. A. Petersson, H. Nakatsuji, X. Li, M. Caricato, A. V. Marenich, 
 J. Bloino, B. G. Janesko, R. Gomperts, B. Mennucci, H. P. Hratchian, 
 J. V. Ortiz, A. F. Izmaylov, J. L. Sonnenberg, D. Williams-Young, 
 F. Ding, F. Lipparini, F. Egidi, J. Goings, B. Peng, A. Petrone, 
 T. Henderson, D. Ranasinghe, V. G. Zakrzewski, J. Gao, N. Rega, 
 G. Zheng, W. Liang, M. Hada, M. Ehara, K. Toyota, R. Fukuda, 
 J. Hasegawa, M. Ishida, T. Nakajima, Y. Honda, O. Kitao, H. Nakai, 
 T. Vreven, K. Throssell, J. A. Montgomery, Jr., J. E. Peralta, 
 F. Ogliaro, M. J. Bearpark, J. J. Heyd, E. N. Brothers, K. N. Kudin, 
 V. N. Staroverov, T. A. Keith, R. Kobayashi, J. Normand, 
 K. Raghavachari, A. P. Rendell, J. C. Burant, S. S. Iyengar, 
 J. Tomasi, M. Cossi, J. M. Millam, M. Klene, C. Adamo, R. Cammi, 
 J. W. Ochterski, R. L. Martin, K. Morokuma, O. Farkas, 
 J. B. Foresman, and D. J. Fox, Gaussian, Inc., Wallingford CT, 2016.
 
 ******************************************
 Gaussian 16:  ES64L-G16RevB.01 20-Dec-2017
                 8-Dec-2025 
 ******************************************
 %mem=2GB
 %nprocshare=1
 Will use up to    1 processors via shared memory.
 %chk=geometry_chks/12_456ClBzAnionIntermediate.chk
 ---------------------------
 # opt am1 SCF(maxcyc=10000)
 ---------------------------
 1/18=20,19=15,26=1,38=1/1,3;
 2/9=110,12=2,17=6,18=5,40=1/2;
 3/5=2,25=1,41=700000,71=1/1,2,3;
 4/35=1/1;
 5/5=2,7=10000,35=1,38=5/2;
 6/7=2,8=2,9=2,10=2,28=1/1;
 7//1,2,3,16;
 1/18=20,19=15,26=1/3(2);
 2/9=110/2;
 99//99;
 2/9=110/2;
 3/5=2,25=1,41=700000,71=1,135=20/1,2,3;
 4/5=5,16=3,35=1/1;
 5/5=2,7=10000,35=1,38=5/2;
 7//1,2,3,16;
 1/18=20,19=15,26=1/3(-5);
 2/9=110/2;
 6/7=2,8=2,9=2,10=2,19=2,28=1/1;
 99/9=1/99;
 -------------------------------------
 Anion Intermediate (removed 3) 12_456
 -------------------------------------
 Symbolic Z-matrix:
 Charge = -1 Multiplicity = 1
 C                    -3.20928   0.19943   0. 
 C                    -2.0115    0.93555   0. 
 C                    -0.77511   0.2663    0. 
 C                    -0.7365   -1.13907   0. 
 C                    -1.93429  -1.87519   0. 
 C                    -3.17067  -1.20594   0. 
 Cl                   -4.67483  -2.13035   0. 
 Cl                   -4.76193   1.03987   0. 
 Cl                   -1.8858   -3.64003   0. 
 Cl                   -2.05998   2.7004    0. 
 Cl                    0.72905   1.19071   0. 
 

 GradGradGradGradGradGradGradGradGradGradGradGradGradGradGradGradGradGrad
 Berny optimization.
 Initialization pass.
                           ----------------------------
                           !    Initial Parameters    !
                           ! (Angstroms and Degrees)  !
 --------------------------                            --------------------------
 ! Name  Definition              Value          Derivative Info.                !
 --------------------------------------------------------------------------------
 ! R1    R(1,2)                  1.4059         estimate D2E/DX2                !
 ! R2    R(1,6)                  1.4059         estimate D2E/DX2                !
 ! R3    R(1,8)                  1.7655         estimate D2E/DX2                !
 ! R4    R(2,3)                  1.4059         estimate D2E/DX2                !
 ! R5    R(2,10)                 1.7655         estimate D2E/DX2                !
 ! R6    R(3,4)                  1.4059         estimate D2E/DX2                !
 ! R7    R(3,11)                 1.7655         estimate D2E/DX2                !
 ! R8    R(4,5)                  1.4059         estimate D2E/DX2                !
 ! R9    R(5,6)                  1.4059         estimate D2E/DX2                !
 ! R10   R(5,9)                  1.7655         estimate D2E/DX2                !
 ! R11   R(6,7)                  1.7655         estimate D2E/DX2                !
 ! A1    A(2,1,6)              119.9999         estimate D2E/DX2                !
 ! A2    A(2,1,8)              119.9999         estimate D2E/DX2                !
 ! A3    A(6,1,8)              120.0001         estimate D2E/DX2                !
 ! A4    A(1,2,3)              120.0            estimate D2E/DX2                !
 ! A5    A(1,2,10)             120.0001         estimate D2E/DX2                !
 ! A6    A(3,2,10)             119.9999         estimate D2E/DX2                !
 ! A7    A(2,3,4)              120.0001         estimate D2E/DX2                !
 ! A8    A(2,3,11)             120.0            estimate D2E/DX2                !
 ! A9    A(4,3,11)             119.9999         estimate D2E/DX2                !
 ! A10   A(3,4,5)              119.9997         estimate D2E/DX2                !
 ! A11   A(4,5,6)              120.0            estimate D2E/DX2                !
 ! A12   A(4,5,9)              119.9996         estimate D2E/DX2                !
 ! A13   A(6,5,9)              120.0004         estimate D2E/DX2                !
 ! A14   A(1,6,5)              120.0003         estimate D2E/DX2                !
 ! A15   A(1,6,7)              119.9999         estimate D2E/DX2                !
 ! A16   A(5,6,7)              119.9998         estimate D2E/DX2                !
 ! D1    D(6,1,2,3)              0.0            estimate D2E/DX2                !
 ! D2    D(6,1,2,10)           180.0            estimate D2E/DX2                !
 ! D3    D(8,1,2,3)            180.0            estimate D2E/DX2                !
 ! D4    D(8,1,2,10)             0.0            estimate D2E/DX2                !
 ! D5    D(2,1,6,5)              0.0            estimate D2E/DX2                !
 ! D6    D(2,1,6,7)            180.0            estimate D2E/DX2                !
 ! D7    D(8,1,6,5)            180.0            estimate D2E/DX2                !
 ! D8    D(8,1,6,7)              0.0            estimate D2E/DX2                !
 ! D9    D(1,2,3,4)              0.0            estimate D2E/DX2                !
 ! D10   D(1,2,3,11)           180.0            estimate D2E/DX2                !
 ! D11   D(10,2,3,4)           180.0            estimate D2E/DX2                !
 ! D12   D(10,2,3,11)            0.0            estimate D2E/DX2                !
 ! D13   D(2,3,4,5)              0.0            estimate D2E/DX2                !
 ! D14   D(11,3,4,5)           180.0            estimate D2E/DX2                !
 ! D15   D(3,4,5,6)              0.0            estimate D2E/DX2                !
 ! D16   D(3,4,5,9)            180.0            estimate D2E/DX2                !
 ! D17   D(4,5,6,1)              0.0            estimate D2E/DX2                !
 ! D18   D(4,5,6,7)            180.0            estimate D2E/DX2                !
 ! D19   D(9,5,6,1)            180.0            estimate D2E/DX2                !
 ! D20   D(9,5,6,7)              0.0            estimate D2E/DX2                !
 --------------------------------------------------------------------------------
 Trust Radius=3.00D-01 FncErr=1.00D-07 GrdErr=1.00D-07 EigMax=2.50D+02 EigMin=1.00D-04
 Number of steps in this run=     57 maximum allowed number of steps=    100.
 GradGradGradGradGradGradGradGradGradGradGradGradGradGradGradGradGradGrad

                          Input orientation:                          
 ---------------------------------------------------------------------
 Center     Atomic      Atomic             Coordinates (Angstroms)
 Number     Number       Type             X           Y           Z
 ---------------------------------------------------------------------
      1          6           0       -3.209280    0.199430    0.000000
      2          6           0       -2.011500    0.935550    0.000000
      3          6           0       -0.775110    0.266300    0.000000
      4          6           0       -0.736500   -1.139070    0.000000
      5          6           0       -1.934290   -1.875190    0.000000
      6          6           0       -3.170670   -1.205940    0.000000
      7         17           0       -4.674830   -2.130350    0.000000
      8         17           0       -4.761930    1.039870    0.000000
      9         17           0       -1.885800   -3.640030    0.000000
     10         17           0       -2.059980    2.700400    0.000000
     11         17           0        0.729050    1.190710    0.000000
 ---------------------------------------------------------------------
                    Distance matrix (angstroms):
                    1          2          3          4          5
     1  C    0.000000
     2  C    1.405898   0.000000
     3  C    2.435088   1.405900   0.000000
     4  C    2.811801   2.435092   1.405900   0.000000
     5  C    2.435087   2.811800   2.435093   1.405907   0.000000
     6  C    1.405900   2.435088   2.811796   2.435088   1.405892
     7  Cl   2.752401   4.061166   4.577308   4.061167   2.752393
     8  Cl   1.765520   2.752408   4.061175   4.577321   4.061173
     9  Cl   4.061164   4.577306   4.061163   2.752397   1.765506
    10  Cl   2.752406   1.765516   2.752405   4.061173   4.577316
    11  Cl   4.061167   2.752403   1.765512   2.752401   4.061173
                    6          7          8          9         10
     6  C    0.000000
     7  Cl   1.765512   0.000000
     8  Cl   2.752412   3.171416   0.000000
     9  Cl   2.752396   3.171407   5.493049   0.000000
    10  Cl   4.061173   5.493049   3.171418   6.342822   0.000000
    11  Cl   4.577308   6.342819   5.493051   5.493040   3.171412
                   11
    11  Cl   0.000000
 Stoichiometry    C6Cl5(1-)
 Framework group  CS[SG(C6Cl5)]
 Deg. of freedom    19
 Full point group                 CS      NOp   2
 Largest Abelian subgroup         CS      NOp   2
 Largest concise Abelian subgroup C1      NOp   1
                         Standard orientation:                         
 ---------------------------------------------------------------------
 Center     Atomic      Atomic             Coordinates (Angstroms)
 Number     Number       Type             X           Y           Z
 ---------------------------------------------------------------------
      1          6           0       -0.000001    0.960328    0.000000
      2          6           0        1.217543    0.257380    0.000000
      3          6           0        1.217543   -1.148521    0.000000
      4          6           0       -0.000001   -1.851473    0.000000
      5          6           0       -1.217550   -1.148516    0.000000
      6          6           0       -1.217545    0.257375    0.000000
      7         17           0       -2.746523    1.140131    0.000000
      8         17           0       -0.000001    2.725848    0.000000
      9         17           0       -2.746519   -2.031275    0.000000
     10         17           0        2.746526    1.140135    0.000000
     11         17           0        2.746521   -2.031277    0.000000
 ---------------------------------------------------------------------
 Rotational constants (GHZ):           0.6973100           0.4487113           0.2730236
 Standard basis: VSTO-6G (5D, 7F)
 There are    33 symmetry adapted cartesian basis functions of A'  symmetry.
 There are    11 symmetry adapted cartesian basis functions of A"  symmetry.
 There are    33 symmetry adapted basis functions of A'  symmetry.
 There are    11 symmetry adapted basis functions of A"  symmetry.
    44 basis functions,   264 primitive gaussians,    44 cartesian basis functions
    30 alpha electrons       30 beta electrons
       nuclear repulsion energy       349.2652845420 Hartrees.
 Integral buffers will be    131072 words long.
 Regular integral format.
 Two-electron integral symmetry is turned off.
 Do NDO integrals.
 One-electron integrals computed using PRISM.
 NBasis=    44 RedAO= T EigKep=  1.00D+00  NBF=    33    11
 NBsUse=    44 1.00D-06 EigRej= -1.00D+00 NBFU=    33    11
 Simple Huckel Guess.
 Initial guess orbital symmetries:
       Occupied  (A') (A') (A') (A') (A') (A') (A') (A') (A') (A')
                 (A') (A") (A') (A') (A") (A') (A') (A") (A') (A")
                 (A") (A') (A') (A') (A") (A') (A') (A") (A") (A')
       Virtual   (A") (A") (A") (A') (A') (A') (A') (A') (A') (A')
                 (A') (A') (A') (A')
 The electronic state of the initial guess is 1-A'.
 Keep J ints in memory in canonical form, NReq=865421.
 Overlap will be assumed to be unity.
 Requested convergence on RMS density matrix=1.00D-08 within**** cycles.
 Requested convergence on MAX density matrix=1.00D-06.
 Requested convergence on             energy=1.00D-06.
 No special actions if energy rises.
 Fock symm off for IB=2 I1=    1 I=   34 J=   33 Cut=1.00D-07 Err=9.60D-03
 Fock matrix is not symmetric: symmetry in diagonalization turned off.
 SCF Done:  E(RAM1) =  0.625914129870E-02 A.U. after   15 cycles
            NFock= 14  Conv=0.81D-08     -V/T= 1.0000

 **********************************************************************

            Population analysis using the SCF Density.

 **********************************************************************

 Orbital symmetries:
       Occupied  (A') (A') (A') (A') (A') (A') (A') (A') (A') (A')
                 (A') (A') (A') (A') (A") (A') (A") (A') (A") (A")
                 (A") (A') (A') (A') (A') (A') (A") (A") (A") (A')
       Virtual   (A") (A') (A") (A') (A') (A') (A') (A") (A') (A')
                 (A') (A') (A') (A')
 The electronic state is 1-A'.
 Alpha  occ. eigenvalues --   -1.30054  -1.24842  -1.24262  -1.22973  -1.22327
 Alpha  occ. eigenvalues --   -1.19879  -0.98613  -0.96170  -0.71384  -0.69846
 Alpha  occ. eigenvalues --   -0.53133  -0.48334  -0.47437  -0.43239  -0.42247
 Alpha  occ. eigenvalues --   -0.40059  -0.36425  -0.35627  -0.34815  -0.33014
 Alpha  occ. eigenvalues --   -0.32555  -0.32510  -0.31820  -0.30651  -0.29826
 Alpha  occ. eigenvalues --   -0.28438  -0.27816  -0.20613  -0.19048  -0.14689
 Alpha virt. eigenvalues --    0.13717   0.14922   0.15251   0.16389   0.16999
 Alpha virt. eigenvalues --    0.19258   0.20126   0.24972   0.28978   0.29019
 Alpha virt. eigenvalues --    0.30499   0.31216   0.34482   0.36930
          Condensed to atoms (all electrons):
               1          2          3          4          5          6
     1  C    4.109127   0.000000   0.000000   0.000000   0.000000   0.000000
     2  C    0.000000   4.033088   0.000000   0.000000   0.000000   0.000000
     3  C    0.000000   0.000000   4.041541   0.000000   0.000000   0.000000
     4  C    0.000000   0.000000   0.000000   4.314209   0.000000   0.000000
     5  C    0.000000   0.000000   0.000000   0.000000   4.041538   0.000000
     6  C    0.000000   0.000000   0.000000   0.000000   0.000000   4.033091
     7  Cl   0.000000   0.000000   0.000000   0.000000   0.000000   0.000000
     8  Cl   0.000000   0.000000   0.000000   0.000000   0.000000   0.000000
     9  Cl   0.000000   0.000000   0.000000   0.000000   0.000000   0.000000
    10  Cl   0.000000   0.000000   0.000000   0.000000   0.000000   0.000000
    11  Cl   0.000000   0.000000   0.000000   0.000000   0.000000   0.000000
               7          8          9         10         11
     1  C    0.000000   0.000000   0.000000   0.000000   0.000000
     2  C    0.000000   0.000000   0.000000   0.000000   0.000000
     3  C    0.000000   0.000000   0.000000   0.000000   0.000000
     4  C    0.000000   0.000000   0.000000   0.000000   0.000000
     5  C    0.000000   0.000000   0.000000   0.000000   0.000000
     6  C    0.000000   0.000000   0.000000   0.000000   0.000000
     7  Cl   7.087750   0.000000   0.000000   0.000000   0.000000
     8  Cl   0.000000   7.071399   0.000000   0.000000   0.000000
     9  Cl   0.000000   0.000000   7.090251   0.000000   0.000000
    10  Cl   0.000000   0.000000   0.000000   7.087751   0.000000
    11  Cl   0.000000   0.000000   0.000000   0.000000   7.090255
 Mulliken charges:
               1
     1  C   -0.109127
     2  C   -0.033088
     3  C   -0.041541
     4  C   -0.314209
     5  C   -0.041538
     6  C   -0.033091
     7  Cl  -0.087750
     8  Cl  -0.071399
     9  Cl  -0.090251
    10  Cl  -0.087751
    11  Cl  -0.090255
 Sum of Mulliken charges =  -1.00000
 Mulliken charges with hydrogens summed into heavy atoms:
               1
     1  C   -0.109127
     2  C   -0.033088
     3  C   -0.041541
     4  C   -0.314209
     5  C   -0.041538
     6  C   -0.033091
     7  Cl  -0.087750
     8  Cl  -0.071399
     9  Cl  -0.090251
    10  Cl  -0.087751
    11  Cl  -0.090255
 Charge=             -1.0000 electrons
 Dipole moment (field-independent basis, Debye):
    X=             -0.0001    Y=              4.5786    Z=              0.0000  Tot=              4.5786
 N-N= 3.492652845420D+02 E-N=-5.056584031584D+02  KE=-1.576067522141D+02
 Symmetry A'   KE=-1.203412796252D+02
 Symmetry A"   KE=-3.726547258884D+01
 Calling FoFJK, ICntrl=      2127 FMM=F ISym2X=1 I1Cent= 0 IOpClX= 0 NMat=1 NMatS=1 NMatT=0.
 ***** Axes restored to original set *****
 -------------------------------------------------------------------
 Center     Atomic                   Forces (Hartrees/Bohr)
 Number     Number              X              Y              Z
 -------------------------------------------------------------------
      1        6          -0.015583221    0.008436390    0.000000000
      2        6           0.004983893    0.020877157    0.000000000
      3        6           0.001001794   -0.014322837    0.000000000
      4        6          -0.009723625    0.005261149   -0.000000000
      5        6           0.012548738    0.006993598    0.000000000
      6        6          -0.014759883   -0.015584980   -0.000000000
      7       17           0.021838348    0.016364027   -0.000000000
      8       17           0.027114594   -0.014677240   -0.000000000
      9       17           0.000233208    0.031076959   -0.000000000
     10       17          -0.001759840   -0.027235010   -0.000000000
     11       17          -0.025894006   -0.017189212   -0.000000000
 -------------------------------------------------------------------
 Cartesian Forces:  Max     0.031076959 RMS     0.013642811

 GradGradGradGradGradGradGradGradGradGradGradGradGradGradGradGradGradGrad
 Berny optimization.
 FormGI is forming the generalized inverse of G from B-inverse, IUseBI=4.
 Internal  Forces:  Max     0.031061030 RMS     0.012523633
 Search for a local minimum.
 Step number   1 out of a maximum of   57
 All quantities printed in internal units (Hartrees-Bohrs-Radians)
 Mixed Optimization -- RFO/linear search
 Second derivative matrix not updated -- first step.
 ITU=  0
     Eigenvalues ---    0.02011   0.02011   0.02011   0.02011   0.02011
     Eigenvalues ---    0.02011   0.02011   0.02011   0.25000   0.25000
     Eigenvalues ---    0.25000   0.25000   0.25000   0.25000   0.25000
     Eigenvalues ---    0.25000   0.29033   0.29033   0.29033   0.29033
     Eigenvalues ---    0.29034   0.41212   0.41599   0.44656   0.44657
     Eigenvalues ---    0.44657   0.44657
 RFO step:  Lambda=-2.13189179D-02 EMin= 2.01067519D-02
 Linear search not attempted -- first point.
 Iteration  1 RMS(Cart)=  0.05167626 RMS(Int)=  0.00028725
 Iteration  2 RMS(Cart)=  0.00033250 RMS(Int)=  0.00002329
 Iteration  3 RMS(Cart)=  0.00000013 RMS(Int)=  0.00002329
 ClnCor:  largest displacement from symmetrization is 4.53D-11 for atom     9.
 Variable       Old X    -DE/DX   Delta X   Delta X   Delta X     New X
                                 (Linear)    (Quad)   (Total)
    R1        2.65676  -0.01494   0.00000  -0.03088  -0.03092   2.62585
    R2        2.65677  -0.01494   0.00000  -0.03088  -0.03091   2.62585
    R3        3.33635  -0.03083   0.00000  -0.09893  -0.09893   3.23742
    R4        2.65677  -0.01242   0.00000  -0.02654  -0.02654   2.63023
    R5        3.33634  -0.02718   0.00000  -0.08720  -0.08720   3.24914
    R6        2.65677  -0.02888   0.00000  -0.06276  -0.06273   2.59403
    R7        3.33633  -0.03106   0.00000  -0.09967  -0.09967   3.23667
    R8        2.65678  -0.02888   0.00000  -0.06277  -0.06274   2.59404
    R9        2.65675  -0.01241   0.00000  -0.02652  -0.02652   2.63023
   R10        3.33632  -0.03106   0.00000  -0.09966  -0.09966   3.23667
   R11        3.33633  -0.02717   0.00000  -0.08719  -0.08719   3.24914
    A1        2.09439  -0.00341   0.00000  -0.00863  -0.00870   2.08570
    A2        2.09439   0.00171   0.00000   0.00432   0.00435   2.09874
    A3        2.09440   0.00171   0.00000   0.00431   0.00435   2.09874
    A4        2.09439  -0.00433   0.00000  -0.01386  -0.01390   2.08050
    A5        2.09440  -0.00201   0.00000  -0.00848  -0.00847   2.08593
    A6        2.09439   0.00635   0.00000   0.02234   0.02236   2.11676
    A7        2.09440   0.01075   0.00000   0.03806   0.03808   2.13248
    A8        2.09440  -0.00356   0.00000  -0.01235  -0.01236   2.08204
    A9        2.09439  -0.00719   0.00000  -0.02571  -0.02572   2.06867
   A10        2.09439  -0.00941   0.00000  -0.03976  -0.03967   2.05472
   A11        2.09439   0.01075   0.00000   0.03805   0.03808   2.13248
   A12        2.09439  -0.00719   0.00000  -0.02571  -0.02572   2.06867
   A13        2.09440  -0.00356   0.00000  -0.01235  -0.01236   2.08204
   A14        2.09440  -0.00434   0.00000  -0.01386  -0.01390   2.08050
   A15        2.09439  -0.00201   0.00000  -0.00848  -0.00846   2.08593
   A16        2.09439   0.00635   0.00000   0.02235   0.02237   2.11676
    D1        0.00000   0.00000   0.00000   0.00000   0.00000   0.00000
    D2        3.14159  -0.00000   0.00000  -0.00000   0.00000   3.14159
    D3        3.14159   0.00000   0.00000   0.00000   0.00000   3.14159
    D4        0.00000   0.00000   0.00000   0.00000   0.00000   0.00000
    D5        0.00000   0.00000   0.00000   0.00000   0.00000   0.00000
    D6        3.14159   0.00000   0.00000   0.00000   0.00000   3.14159
    D7        3.14159  -0.00000   0.00000  -0.00000   0.00000   3.14159
    D8        0.00000  -0.00000   0.00000  -0.00000   0.00000   0.00000
    D9        0.00000  -0.00000   0.00000  -0.00000   0.00000   0.00000
   D10        3.14159  -0.00000   0.00000  -0.00000   0.00000   3.14159
   D11        3.14159   0.00000   0.00000   0.00000   0.00000   3.14159
   D12        0.00000  -0.00000   0.00000  -0.00000   0.00000   0.00000
   D13        0.00000   0.00000   0.00000   0.00000   0.00000   0.00000
   D14        3.14159   0.00000   0.00000   0.00000   0.00000   3.14159
   D15        0.00000   0.00000   0.00000   0.00000   0.00000   0.00000
   D16        3.14159  -0.00000   0.00000  -0.00000   0.00000   3.14159
   D17        0.00000  -0.00000   0.00000  -0.00000   0.00000   0.00000
   D18        3.14159  -0.00000   0.00000  -0.00000   0.00000   3.14159
   D19        3.14159   0.00000   0.00000   0.00000   0.00000   3.14159
   D20        0.00000  -0.00000   0.00000  -0.00000   0.00000   0.00000
         Item               Value     Threshold  Converged?
 Maximum Force            0.031061     0.000450     NO 
 RMS     Force            0.012524     0.000300     NO 
 Maximum Displacement     0.183201     0.001800     NO 
 RMS     Displacement     0.051682     0.001200     NO 
 Predicted change in Energy=-1.133988D-02
 GradGradGradGradGradGradGradGradGradGradGradGradGradGradGradGradGradGrad

                          Input orientation:                          
 ---------------------------------------------------------------------
 Center     Atomic      Atomic             Coordinates (Angstroms)
 Number     Number       Type             X           Y           Z
 ---------------------------------------------------------------------
      1          6           0       -3.206070    0.197694    0.000000
      2          6           0       -2.019074    0.920091    0.000000
      3          6           0       -0.807327    0.235303    0.000000
      4          6           0       -0.742419   -1.135865    0.000000
      5          6           0       -1.925949   -1.831267    0.000000
      6          6           0       -3.161872   -1.191144    0.000000
      7         17           0       -4.630416   -2.085356    0.000000
      8         17           0       -4.712679    1.013212    0.000000
      9         17           0       -1.868826   -3.543084    0.000000
     10         17           0       -2.073360    2.638604    0.000000
     11         17           0        0.657153    1.123493    0.000000
 ---------------------------------------------------------------------
                    Distance matrix (angstroms):
                    1          2          3          4          5
     1  C    0.000000
     2  C    1.389538   0.000000
     3  C    2.399038   1.391857   0.000000
     4  C    2.801420   2.420083   1.372704   0.000000
     5  C    2.399040   2.752933   2.349899   1.372707   0.000000
     6  C    1.389541   2.400687   2.752931   2.420084   1.391856
     7  Cl   2.690925   3.981434   4.472300   4.002256   2.716377
     8  Cl   1.713167   2.695214   3.982074   4.514587   3.982076
     9  Cl   3.972611   4.465703   3.924664   2.657723   1.712770
    10  Cl   2.690924   1.719370   2.716375   4.002252   4.472301
    11  Cl   3.972606   2.683946   1.712771   2.657725   3.924668
                    6          7          8          9         10
     6  C    0.000000
     7  Cl   1.719372   0.000000
     8  Cl   2.695216   3.099660   0.000000
     9  Cl   2.683950   3.122715   5.370972   0.000000
    10  Cl   3.981435   5.371623   3.099661   6.185071   0.000000
    11  Cl   4.465702   6.185071   5.370965   5.306365   3.122702
                   11
    11  Cl   0.000000
 Stoichiometry    C6Cl5(1-)
 Framework group  CS[SG(C6Cl5)]
 Deg. of freedom    19
 Full point group                 CS      NOp   2
 Largest Abelian subgroup         CS      NOp   2
 Largest concise Abelian subgroup C1      NOp   1
                         Standard orientation:                         
 ---------------------------------------------------------------------
 Center     Atomic      Atomic             Coordinates (Angstroms)
 Number     Number       Type             X           Y           Z
 ---------------------------------------------------------------------
      1          6           0        0.000000    0.959300   -0.000000
      2          6           0        1.200342    0.259304   -0.000000
      3          6           0        1.174948   -1.132321   -0.000000
      4          6           0       -0.000000   -1.842120    0.000000
      5          6           0       -1.174951   -1.132322    0.000000
      6          6           0       -1.200345    0.259303    0.000000
      7         17           0       -2.685812    1.125112    0.000000
      8         17           0        0.000000    2.672467   -0.000000
      9         17           0       -2.653181   -1.997433    0.000000
     10         17           0        2.685811    1.125108   -0.000000
     11         17           0        2.653184   -1.997423   -0.000000
 ---------------------------------------------------------------------
 Rotational constants (GHZ):           0.7204669           0.4747432           0.2861729
 Standard basis: VSTO-6G (5D, 7F)
 There are    33 symmetry adapted cartesian basis functions of A'  symmetry.
 There are    11 symmetry adapted cartesian basis functions of A"  symmetry.
 There are    33 symmetry adapted basis functions of A'  symmetry.
 There are    11 symmetry adapted basis functions of A"  symmetry.
    44 basis functions,   264 primitive gaussians,    44 cartesian basis functions
    30 alpha electrons       30 beta electrons
       nuclear repulsion energy       354.1617963549 Hartrees.
 Integral buffers will be    131072 words long.
 Regular integral format.
 Two-electron integral symmetry is turned off.
 Do NDO integrals.
 One-electron integrals computed using PRISM.
 NBasis=    44 RedAO= T EigKep=  1.00D+00  NBF=    33    11
 NBsUse=    44 1.00D-06 EigRej= -1.00D+00 NBFU=    33    11
 Initial guess from the checkpoint file:  "geometry_chks/12_456ClBzAnionIntermediate.chk"
 B after Tr=    -0.000000    0.000000   -0.000000
         Rot=    1.000000    0.000000   -0.000000   -0.000000 Ang=  -0.00 deg.
 Initial guess orbital symmetries:
       Occupied  (A') (A') (A') (A') (A') (A') (A') (A') (A') (A')
                 (A') (A') (A') (A') (A") (A') (A") (A') (A") (A")
                 (A") (A') (A') (A') (A') (A') (A") (A") (A") (A')
       Virtual   (A") (A') (A") (A') (A') (A') (A') (A") (A') (A')
                 (A') (A') (A') (A')
 Keep J ints in memory in canonical form, NReq=865421.
 Overlap will be assumed to be unity.
 Requested convergence on RMS density matrix=1.00D-08 within**** cycles.
 Requested convergence on MAX density matrix=1.00D-06.
 Requested convergence on             energy=1.00D-06.
 No special actions if energy rises.
 Fock symm off for IB=2 I1=    1 I=   34 J=    4 Cut=1.00D-07 Err=1.86D-03
 Fock matrix is not symmetric: symmetry in diagonalization turned off.
 SCF Done:  E(RAM1) = -0.225066253250E-02 A.U. after   13 cycles
            NFock= 12  Conv=0.68D-08     -V/T= 1.0000
 Calling FoFJK, ICntrl=      2127 FMM=F ISym2X=1 I1Cent= 0 IOpClX= 0 NMat=1 NMatS=1 NMatT=0.
 ***** Axes restored to original set *****
 -------------------------------------------------------------------
 Center     Atomic                   Forces (Hartrees/Bohr)
 Number     Number              X              Y              Z
 -------------------------------------------------------------------
      1        6          -0.017961335    0.009720642    0.000000000
      2        6           0.003207621    0.022823981    0.000000000
      3        6           0.015139833    0.008792791    0.000000000
      4        6           0.010096368   -0.005467042    0.000000000
      5        6           0.000917941   -0.017481911    0.000000000
      6        6          -0.017356071   -0.015164677   -0.000000000
      7       17           0.002120502    0.001324037   -0.000000000
      8       17           0.000614633   -0.000332798   -0.000000000
      9       17           0.000121213   -0.003561730   -0.000000000
     10       17           0.000050409   -0.002498715   -0.000000000
     11       17           0.003048885    0.001845421    0.000000000
 -------------------------------------------------------------------
 Cartesian Forces:  Max     0.022823981 RMS     0.008280541

 GradGradGradGradGradGradGradGradGradGradGradGradGradGradGradGradGradGrad
 Berny optimization.
 Using GEDIIS/GDIIS optimizer.
 FormGI is forming the generalized inverse of G from B-inverse, IUseBI=4.
 Internal  Forces:  Max     0.022327832 RMS     0.006990049
 Search for a local minimum.
 Step number   2 out of a maximum of   57
 All quantities printed in internal units (Hartrees-Bohrs-Radians)
 Mixed Optimization -- RFO/linear search
 Update second derivatives using D2CorX and points    1    2
 DE= -8.51D-03 DEPred=-1.13D-02 R= 7.50D-01
 TightC=F SS=  1.41D+00  RLast= 2.53D-01 DXNew= 5.0454D-01 7.5774D-01
 Trust test= 7.50D-01 RLast= 2.53D-01 DXMaxT set to 5.05D-01
 ITU=  1  0
 Use linear search instead of GDIIS.
     Eigenvalues ---    0.02011   0.02011   0.02011   0.02011   0.02011
     Eigenvalues ---    0.02011   0.02011   0.02011   0.23527   0.25000
     Eigenvalues ---    0.25000   0.25000   0.25000   0.25000   0.25000
     Eigenvalues ---    0.25458   0.25554   0.29033   0.29033   0.29034
     Eigenvalues ---    0.29280   0.41028   0.41189   0.44603   0.44656
     Eigenvalues ---    0.44657   0.70687
 RFO step:  Lambda=-2.67720455D-03 EMin= 2.01067605D-02
 Quartic linear search produced a step of -0.18149.
 Iteration  1 RMS(Cart)=  0.01299952 RMS(Int)=  0.00003517
 Iteration  2 RMS(Cart)=  0.00003827 RMS(Int)=  0.00000783
 Iteration  3 RMS(Cart)=  0.00000000 RMS(Int)=  0.00000783
 ClnCor:  largest displacement from symmetrization is 1.97D-11 for atom     9.
 Variable       Old X    -DE/DX   Delta X   Delta X   Delta X     New X
                                 (Linear)    (Quad)   (Total)
    R1        2.62585   0.02233   0.00561   0.03097   0.03659   2.66244
    R2        2.62585   0.02233   0.00561   0.03097   0.03659   2.66244
    R3        3.23742  -0.00070   0.01796  -0.03500  -0.01704   3.22038
    R4        2.63023   0.01666   0.00482   0.02174   0.02656   2.65679
    R5        3.24914  -0.00250   0.01583  -0.03610  -0.02027   3.22887
    R6        2.59403   0.01781   0.01138   0.01189   0.02326   2.61729
    R7        3.23667   0.00356   0.01809  -0.02335  -0.00526   3.23141
    R8        2.59404   0.01781   0.01139   0.01188   0.02326   2.61730
    R9        2.63023   0.01666   0.00481   0.02175   0.02656   2.65679
   R10        3.23667   0.00356   0.01809  -0.02334  -0.00526   3.23141
   R11        3.24914  -0.00250   0.01582  -0.03610  -0.02027   3.22887
    A1        2.08570   0.00172   0.00158   0.00381   0.00541   2.09110
    A2        2.09874  -0.00086  -0.00079  -0.00190  -0.00270   2.09604
    A3        2.09874  -0.00086  -0.00079  -0.00190  -0.00270   2.09604
    A4        2.08050  -0.00112   0.00252  -0.00770  -0.00517   2.07533
    A5        2.08593   0.00051   0.00154  -0.00153  -0.00000   2.08593
    A6        2.11676   0.00061  -0.00406   0.00923   0.00517   2.12192
    A7        2.13248  -0.00286  -0.00691   0.00322  -0.00370   2.12878
    A8        2.08204   0.00143   0.00224   0.00068   0.00292   2.08496
    A9        2.06867   0.00142   0.00467  -0.00389   0.00078   2.06945
   A10        2.05472   0.00624   0.00720   0.00516   0.01233   2.06705
   A11        2.13248  -0.00286  -0.00691   0.00322  -0.00370   2.12878
   A12        2.06867   0.00142   0.00467  -0.00389   0.00078   2.06945
   A13        2.08204   0.00143   0.00224   0.00067   0.00292   2.08496
   A14        2.08050  -0.00112   0.00252  -0.00770  -0.00517   2.07533
   A15        2.08593   0.00051   0.00154  -0.00153   0.00000   2.08593
   A16        2.11676   0.00061  -0.00406   0.00923   0.00516   2.12192
    D1        0.00000  -0.00000   0.00000  -0.00000   0.00000   0.00000
    D2        3.14159  -0.00000   0.00000  -0.00000   0.00000   3.14159
    D3        3.14159   0.00000   0.00000   0.00000   0.00000   3.14159
    D4       -0.00000  -0.00000   0.00000  -0.00000   0.00000   0.00000
    D5       -0.00000   0.00000   0.00000   0.00000   0.00000   0.00000
    D6        3.14159   0.00000   0.00000   0.00000   0.00000   3.14159
    D7        3.14159  -0.00000   0.00000  -0.00000   0.00000   3.14159
    D8        0.00000  -0.00000   0.00000  -0.00000   0.00000   0.00000
    D9       -0.00000   0.00000   0.00000   0.00000   0.00000   0.00000
   D10        3.14159  -0.00000   0.00000  -0.00000   0.00000   3.14159
   D11        3.14159   0.00000   0.00000   0.00000   0.00000   3.14159
   D12        0.00000   0.00000   0.00000  -0.00000   0.00000   0.00000
   D13        0.00000   0.00000   0.00000   0.00000   0.00000   0.00000
   D14        3.14159   0.00000   0.00000   0.00000   0.00000   3.14159
   D15        0.00000  -0.00000   0.00000  -0.00000   0.00000   0.00000
   D16        3.14159  -0.00000   0.00000  -0.00000   0.00000   3.14159
   D17       -0.00000   0.00000   0.00000  -0.00000   0.00000   0.00000
   D18        3.14159  -0.00000   0.00000  -0.00000   0.00000   3.14159
   D19        3.14159   0.00000   0.00000   0.00000   0.00000   3.14159
   D20        0.00000   0.00000   0.00000   0.00000   0.00000   0.00000
         Item               Value     Threshold  Converged?
 Maximum Force            0.022328     0.000450     NO 
 RMS     Force            0.006990     0.000300     NO 
 Maximum Displacement     0.037601     0.001800     NO 
 RMS     Displacement     0.012994     0.001200     NO 
 Predicted change in Energy=-1.793487D-03
 GradGradGradGradGradGradGradGradGradGradGradGradGradGradGradGradGradGrad

                          Input orientation:                          
 ---------------------------------------------------------------------
 Center     Atomic      Atomic             Coordinates (Angstroms)
 Number     Number       Type             X           Y           Z
 ---------------------------------------------------------------------
      1          6           0       -3.218224    0.204272    0.000000
      2          6           0       -2.016671    0.939988    0.000000
      3          6           0       -0.794393    0.245276    0.000000
      4          6           0       -0.737432   -1.138565   -0.000000
      5          6           0       -1.927225   -1.847546   -0.000000
      6          6           0       -3.177216   -1.204035   -0.000000
      7         17           0       -4.638994   -2.088721   -0.000000
      8         17           0       -4.716903    1.015497    0.000000
      9         17           0       -1.861003   -3.556251   -0.000000
     10         17           0       -2.075238    2.647627    0.000000
     11         17           0        0.672461    1.124138    0.000000
 ---------------------------------------------------------------------
                    Distance matrix (angstroms):
                    1          2          3          4          5
     1  C    0.000000
     2  C    1.408903   0.000000
     3  C    2.424177   1.405912   0.000000
     4  C    2.820911   2.440663   1.385012   0.000000
     5  C    2.424178   2.788969   2.379751   1.385013   0.000000
     6  C    1.408904   2.437971   2.788969   2.440662   1.405911
     7  Cl   2.697481   4.006202   4.497610   4.015592   2.722472
     8  Cl   1.704149   2.701288   3.997415   4.525060   3.997414
     9  Cl   3.997947   4.498933   3.948324   2.666012   1.709987
    10  Cl   2.697480   1.708643   2.722472   4.015591   4.497609
    11  Cl   3.997947   2.695429   1.709988   2.666012   3.948325
                    6          7          8          9         10
     6  C    0.000000
     7  Cl   1.708643   0.000000
     8  Cl   2.701287   3.105195   0.000000
     9  Cl   2.695429   3.141795   5.390458   0.000000
    10  Cl   4.006202   5.385706   3.105196   6.207576   0.000000
    11  Cl   4.498933   6.207576   5.390459   5.322074   3.141794
                   11
    11  Cl   0.000000
 Stoichiometry    C6Cl5(1-)
 Framework group  CS[SG(C6Cl5)]
 Deg. of freedom    19
 Full point group                 CS      NOp   2
 Largest Abelian subgroup         CS      NOp   2
 Largest concise Abelian subgroup C1      NOp   1
                         Standard orientation:                         
 ---------------------------------------------------------------------
 Center     Atomic      Atomic             Coordinates (Angstroms)
 Number     Number       Type             X           Y           Z
 ---------------------------------------------------------------------
      1          6           0       -0.973994    0.000001    0.000000
      2          6           0       -0.267535    1.218985    0.000000
      3          6           0        1.138075    1.189875    0.000000
      4          6           0        1.846917   -0.000000    0.000000
      5          6           0        1.138074   -1.189876    0.000000
      6          6           0       -0.267535   -1.218985    0.000000
      7         17           0       -1.131929   -2.692853    0.000000
      8         17           0       -2.678143   -0.000000    0.000000
      9         17           0        2.009705   -2.661037    0.000000
     10         17           0       -1.131927    2.692853    0.000000
     11         17           0        2.009705    2.661037    0.000000
 ---------------------------------------------------------------------
 Rotational constants (GHZ):           0.7138019           0.4714229           0.2839145
 Standard basis: VSTO-6G (5D, 7F)
 There are    33 symmetry adapted cartesian basis functions of A'  symmetry.
 There are    11 symmetry adapted cartesian basis functions of A"  symmetry.
 There are    33 symmetry adapted basis functions of A'  symmetry.
 There are    11 symmetry adapted basis functions of A"  symmetry.
    44 basis functions,   264 primitive gaussians,    44 cartesian basis functions
    30 alpha electrons       30 beta electrons
       nuclear repulsion energy       353.2085631780 Hartrees.
 Integral buffers will be    131072 words long.
 Regular integral format.
 Two-electron integral symmetry is turned off.
 Do NDO integrals.
 One-electron integrals computed using PRISM.
 NBasis=    44 RedAO= T EigKep=  1.00D+00  NBF=    33    11
 NBsUse=    44 1.00D-06 EigRej= -1.00D+00 NBFU=    33    11
 Initial guess from the checkpoint file:  "geometry_chks/12_456ClBzAnionIntermediate.chk"
 B after Tr=     0.000000    0.000000   -0.000000
         Rot=    0.707107   -0.000000   -0.000000   -0.707107 Ang= -90.00 deg.
 Initial guess orbital symmetries:
       Occupied  (A') (A') (A') (A') (A') (A') (A') (A') (A') (A')
                 (A') (A') (A') (A') (A") (A') (A") (A') (A") (A")
                 (A") (A') (A') (A') (A') (A') (A") (A") (A") (A')
       Virtual   (A") (A") (A') (A') (A') (A') (A') (A") (A') (A')
                 (A') (A') (A') (A')
 Keep J ints in memory in canonical form, NReq=865421.
 Overlap will be assumed to be unity.
 Requested convergence on RMS density matrix=1.00D-08 within**** cycles.
 Requested convergence on MAX density matrix=1.00D-06.
 Requested convergence on             energy=1.00D-06.
 No special actions if energy rises.
 Fock symm off for IB=2 I1=    1 I=   34 J=   13 Cut=1.00D-07 Err=6.42D-04
 Fock matrix is not symmetric: symmetry in diagonalization turned off.
 SCF Done:  E(RAM1) = -0.367702438257E-02 A.U. after   13 cycles
            NFock= 12  Conv=0.23D-08     -V/T= 1.0000
 Calling FoFJK, ICntrl=      2127 FMM=F ISym2X=1 I1Cent= 0 IOpClX= 0 NMat=1 NMatS=1 NMatT=0.
 ***** Axes restored to original set *****
 -------------------------------------------------------------------
 Center     Atomic                   Forces (Hartrees/Bohr)
 Number     Number              X              Y              Z
 -------------------------------------------------------------------
      1        6           0.006211070   -0.003362415    0.000000000
      2        6          -0.000860255   -0.004901154    0.000000000
      3        6          -0.004301781   -0.000370221    0.000000000
      4        6          -0.001865140    0.001009234   -0.000000000
      5        6          -0.002041154    0.003804367    0.000000000
      6        6           0.003632276    0.003400479   -0.000000000
      7       17          -0.000509923   -0.000520454   -0.000000000
      8       17          -0.001972874    0.001067985   -0.000000000
      9       17          -0.000321545   -0.002446493   -0.000000000
     10       17           0.000156892    0.000711931   -0.000000000
     11       17           0.001872435    0.001606741   -0.000000000
 -------------------------------------------------------------------
 Cartesian Forces:  Max     0.006211070 RMS     0.002198153

 GradGradGradGradGradGradGradGradGradGradGradGradGradGradGradGradGradGrad
 Berny optimization.
 Using GEDIIS/GDIIS optimizer.
 FormGI is forming the generalized inverse of G from B-inverse, IUseBI=4.
 Internal  Forces:  Max     0.004219085 RMS     0.001379926
 Search for a local minimum.
 Step number   3 out of a maximum of   57
 All quantities printed in internal units (Hartrees-Bohrs-Radians)
 Mixed Optimization -- RFO/linear search
 Update second derivatives using D2CorX and points    1    2    3
 DE= -1.43D-03 DEPred=-1.79D-03 R= 7.95D-01
 TightC=F SS=  1.41D+00  RLast= 8.18D-02 DXNew= 8.4853D-01 2.4531D-01
 Trust test= 7.95D-01 RLast= 8.18D-02 DXMaxT set to 5.05D-01
 ITU=  1  1  0
 Use linear search instead of GDIIS.
     Eigenvalues ---    0.02011   0.02011   0.02011   0.02011   0.02011
     Eigenvalues ---    0.02011   0.02011   0.02011   0.24131   0.25000
     Eigenvalues ---    0.25000   0.25000   0.25000   0.25000   0.25065
     Eigenvalues ---    0.25369   0.26504   0.29033   0.29034   0.29046
     Eigenvalues ---    0.30171   0.41125   0.41906   0.44656   0.44657
     Eigenvalues ---    0.44866   0.78923
 RFO step:  Lambda=-9.39429600D-05 EMin= 2.01067584D-02
 Quartic linear search produced a step of -0.16025.
 Iteration  1 RMS(Cart)=  0.00369751 RMS(Int)=  0.00000477
 Iteration  2 RMS(Cart)=  0.00000844 RMS(Int)=  0.00000052
 Iteration  3 RMS(Cart)=  0.00000000 RMS(Int)=  0.00000052
 ClnCor:  largest displacement from symmetrization is 1.33D-11 for atom    11.
 Variable       Old X    -DE/DX   Delta X   Delta X   Delta X     New X
                                 (Linear)    (Quad)   (Total)
    R1        2.66244  -0.00422  -0.00586  -0.00140  -0.00726   2.65518
    R2        2.66244  -0.00422  -0.00586  -0.00140  -0.00726   2.65518
    R3        3.22038   0.00224   0.00273   0.00610   0.00883   3.22921
    R4        2.65679  -0.00380  -0.00426  -0.00205  -0.00631   2.65048
    R5        3.22887   0.00071   0.00325   0.00118   0.00443   3.23329
    R6        2.61729  -0.00107  -0.00373   0.00334  -0.00039   2.61690
    R7        3.23141   0.00243   0.00084   0.00835   0.00919   3.24060
    R8        2.61730  -0.00107  -0.00373   0.00334  -0.00039   2.61691
    R9        2.65679  -0.00380  -0.00426  -0.00205  -0.00631   2.65048
   R10        3.23141   0.00243   0.00084   0.00835   0.00919   3.24060
   R11        3.22887   0.00071   0.00325   0.00118   0.00442   3.23329
    A1        2.09110   0.00078  -0.00087   0.00267   0.00180   2.09291
    A2        2.09604  -0.00039   0.00043  -0.00133  -0.00090   2.09514
    A3        2.09604  -0.00039   0.00043  -0.00133  -0.00090   2.09514
    A4        2.07533   0.00037   0.00083   0.00037   0.00120   2.07653
    A5        2.08593   0.00011   0.00000   0.00076   0.00076   2.08669
    A6        2.12192  -0.00048  -0.00083  -0.00113  -0.00196   2.11996
    A7        2.12878  -0.00069   0.00059  -0.00339  -0.00280   2.12598
    A8        2.08496  -0.00032  -0.00047  -0.00043  -0.00090   2.08406
    A9        2.06945   0.00102  -0.00013   0.00382   0.00370   2.07315
   A10        2.06705  -0.00014  -0.00198   0.00338   0.00140   2.06845
   A11        2.12878  -0.00069   0.00059  -0.00339  -0.00280   2.12598
   A12        2.06945   0.00102  -0.00013   0.00383   0.00370   2.07315
   A13        2.08496  -0.00033  -0.00047  -0.00043  -0.00090   2.08406
   A14        2.07533   0.00037   0.00083   0.00037   0.00120   2.07653
   A15        2.08593   0.00011  -0.00000   0.00076   0.00076   2.08669
   A16        2.12192  -0.00048  -0.00083  -0.00113  -0.00196   2.11996
    D1        0.00000  -0.00000   0.00000  -0.00000   0.00000   0.00000
    D2        3.14159  -0.00000   0.00000  -0.00000   0.00000   3.14159
    D3        3.14159   0.00000   0.00000   0.00000   0.00000   3.14159
    D4        0.00000  -0.00000   0.00000  -0.00000   0.00000   0.00000
    D5        0.00000   0.00000   0.00000   0.00000   0.00000   0.00000
    D6        3.14159   0.00000   0.00000   0.00000   0.00000   3.14159
    D7        3.14159  -0.00000   0.00000  -0.00000   0.00000   3.14159
    D8        0.00000  -0.00000   0.00000  -0.00000   0.00000   0.00000
    D9        0.00000   0.00000   0.00000   0.00000   0.00000   0.00000
   D10        3.14159  -0.00000   0.00000  -0.00000   0.00000   3.14159
   D11        3.14159   0.00000   0.00000   0.00000   0.00000   3.14159
   D12        0.00000   0.00000   0.00000   0.00000   0.00000   0.00000
   D13        0.00000  -0.00000   0.00000  -0.00000   0.00000   0.00000
   D14        3.14159   0.00000   0.00000   0.00000   0.00000   3.14159
   D15        0.00000   0.00000   0.00000   0.00000   0.00000   0.00000
   D16        3.14159  -0.00000   0.00000  -0.00000   0.00000   3.14159
   D17        0.00000  -0.00000   0.00000  -0.00000   0.00000   0.00000
   D18        3.14159  -0.00000   0.00000  -0.00000   0.00000   3.14159
   D19        3.14159   0.00000   0.00000   0.00000   0.00000   3.14159
   D20        0.00000   0.00000   0.00000   0.00000   0.00000   0.00000
         Item               Value     Threshold  Converged?
 Maximum Force            0.004219     0.000450     NO 
 RMS     Force            0.001380     0.000300     NO 
 Maximum Displacement     0.014682     0.001800     NO 
 RMS     Displacement     0.003702     0.001200     NO 
 Predicted change in Energy=-9.653228D-05
 GradGradGradGradGradGradGradGradGradGradGradGradGradGradGradGradGradGrad

                          Input orientation:                          
 ---------------------------------------------------------------------
 Center     Atomic      Atomic             Coordinates (Angstroms)
 Number     Number       Type             X           Y           Z
 ---------------------------------------------------------------------
      1          6           0       -3.213756    0.201854   -0.000000
      2          6           0       -2.016141    0.936643   -0.000000
      3          6           0       -0.795315    0.246138   -0.000000
      4          6           0       -0.739333   -1.137536   -0.000000
      5          6           0       -1.928451   -1.847247   -0.000000
      6          6           0       -3.174126   -1.202649   -0.000000
      7         17           0       -4.638029   -2.088345   -0.000000
      8         17           0       -4.716547    1.015304   -0.000000
      9         17           0       -1.867179   -3.561004   -0.000000
     10         17           0       -2.075025    2.646614   -0.000000
     11         17           0        0.673063    1.131907   -0.000000
 ---------------------------------------------------------------------
                    Distance matrix (angstroms):
                    1          2          3          4          5
     1  C    0.000000
     2  C    1.405061   0.000000
     3  C    2.418847   1.402574   0.000000
     4  C    2.813669   2.435664   1.384806   0.000000
     5  C    2.418847   2.785271   2.380391   1.384807   0.000000
     6  C    1.405062   2.432592   2.785270   2.435664   1.402574
     7  Cl   2.696955   4.003105   4.496251   4.012963   2.720283
     8  Cl   1.708825   2.701551   3.995958   4.522494   3.995957
     9  Cl   3.996544   4.500113   3.955152   2.673057   1.714852
    10  Cl   2.696954   1.710985   2.720284   4.012962   4.496251
    11  Cl   3.996544   2.696284   1.714852   2.673057   3.955153
                    6          7          8          9         10
     6  C    0.000000
     7  Cl   1.710985   0.000000
     8  Cl   2.701551   3.104643   0.000000
     9  Cl   2.696284   3.137886   5.390871   0.000000
    10  Cl   4.003105   5.384128   3.104643   6.211097   0.000000
    11  Cl   4.500113   6.211097   5.390871   5.336314   3.137885
                   11
    11  Cl   0.000000
 Stoichiometry    C6Cl5(1-)
 Framework group  CS[SG(C6Cl5)]
 Deg. of freedom    19
 Full point group                 CS      NOp   2
 Largest Abelian subgroup         CS      NOp   2
 Largest concise Abelian subgroup C1      NOp   1
                         Standard orientation:                         
 ---------------------------------------------------------------------
 Center     Atomic      Atomic             Coordinates (Angstroms)
 Number     Number       Type             X           Y           Z
 ---------------------------------------------------------------------
      1          6           0       -0.968496    0.000000   -0.000000
      2          6           0       -0.265060    1.216296    0.000000
      3          6           0        1.137272    1.190195    0.000000
      4          6           0        1.845173   -0.000000    0.000000
      5          6           0        1.137271   -1.190196   -0.000000
      6          6           0       -0.265060   -1.216296   -0.000000
      7         17           0       -1.130841   -2.692064   -0.000000
      8         17           0       -2.677321    0.000000   -0.000000
      9         17           0        2.006954   -2.668157   -0.000000
     10         17           0       -1.130840    2.692064    0.000000
     11         17           0        2.006954    2.668157    0.000000
 ---------------------------------------------------------------------
 Rotational constants (GHZ):           0.7151958           0.4704498           0.2837810
 Standard basis: VSTO-6G (5D, 7F)
 There are    33 symmetry adapted cartesian basis functions of A'  symmetry.
 There are    11 symmetry adapted cartesian basis functions of A"  symmetry.
 There are    33 symmetry adapted basis functions of A'  symmetry.
 There are    11 symmetry adapted basis functions of A"  symmetry.
    44 basis functions,   264 primitive gaussians,    44 cartesian basis functions
    30 alpha electrons       30 beta electrons
       nuclear repulsion energy       353.2079383407 Hartrees.
 Integral buffers will be    131072 words long.
 Regular integral format.
 Two-electron integral symmetry is turned off.
 Do NDO integrals.
 One-electron integrals computed using PRISM.
 NBasis=    44 RedAO= T EigKep=  1.00D+00  NBF=    33    11
 NBsUse=    44 1.00D-06 EigRej= -1.00D+00 NBFU=    33    11
 Initial guess from the checkpoint file:  "geometry_chks/12_456ClBzAnionIntermediate.chk"
 B after Tr=     0.000000   -0.000000   -0.000000
         Rot=    1.000000   -0.000000   -0.000000   -0.000000 Ang=  -0.00 deg.
 Initial guess orbital symmetries:
       Occupied  (A') (A') (A') (A') (A') (A') (A') (A') (A') (A')
                 (A') (A') (A') (A') (A") (A') (A") (A') (A") (A")
                 (A") (A') (A') (A') (A') (A') (A") (A") (A") (A')
       Virtual   (A") (A") (A') (A') (A') (A') (A') (A") (A') (A')
                 (A') (A') (A') (A')
 Keep J ints in memory in canonical form, NReq=865421.
 Overlap will be assumed to be unity.
 Requested convergence on RMS density matrix=1.00D-08 within**** cycles.
 Requested convergence on MAX density matrix=1.00D-06.
 Requested convergence on             energy=1.00D-06.
 No special actions if energy rises.
 Fock symm off for IB=2 I1=    1 I=   34 J=   16 Cut=1.00D-07 Err=1.85D-04
 Fock matrix is not symmetric: symmetry in diagonalization turned off.
 SCF Done:  E(RAM1) = -0.376780772871E-02 A.U. after   12 cycles
            NFock= 11  Conv=0.48D-08     -V/T= 1.0000
 Calling FoFJK, ICntrl=      2127 FMM=F ISym2X=1 I1Cent= 0 IOpClX= 0 NMat=1 NMatS=1 NMatT=0.
 ***** Axes restored to original set *****
 -------------------------------------------------------------------
 Center     Atomic                   Forces (Hartrees/Bohr)
 Number     Number              X              Y              Z
 -------------------------------------------------------------------
      1        6           0.000154490   -0.000083800    0.000000000
      2        6          -0.000183775    0.000680460    0.000000000
      3        6           0.000302183   -0.001061497    0.000000000
      4        6          -0.000406970    0.000220010    0.000000000
      5        6           0.001054722    0.000327622    0.000000000
      6        6          -0.000670672   -0.000217955   -0.000000000
      7       17           0.000039818    0.000034973   -0.000000000
      8       17          -0.000120032    0.000064993   -0.000000000
      9       17           0.000050256    0.000286522   -0.000000000
     10       17          -0.000007521   -0.000052442   -0.000000000
     11       17          -0.000212499   -0.000198885   -0.000000000
 -------------------------------------------------------------------
 Cartesian Forces:  Max     0.001061497 RMS     0.000342472

 GradGradGradGradGradGradGradGradGradGradGradGradGradGradGradGradGradGrad
 Berny optimization.
 Using GEDIIS/GDIIS optimizer.
 FormGI is forming the generalized inverse of G from B-inverse, IUseBI=4.
 Internal  Forces:  Max     0.000790743 RMS     0.000224742
 Search for a local minimum.
 Step number   4 out of a maximum of   57
 All quantities printed in internal units (Hartrees-Bohrs-Radians)
 Mixed Optimization -- En-DIIS/RFO-DIIS
 Update second derivatives using D2CorX and points    1    2    3    4
 DE= -9.08D-05 DEPred=-9.65D-05 R= 9.40D-01
 TightC=F SS=  1.41D+00  RLast= 2.31D-02 DXNew= 8.4853D-01 6.9371D-02
 Trust test= 9.40D-01 RLast= 2.31D-02 DXMaxT set to 5.05D-01
 ITU=  1  1  1  0
 Use linear search instead of GDIIS.
     Eigenvalues ---    0.02011   0.02011   0.02011   0.02011   0.02011
     Eigenvalues ---    0.02011   0.02011   0.02011   0.23984   0.24805
     Eigenvalues ---    0.25000   0.25000   0.25000   0.25000   0.25118
     Eigenvalues ---    0.25332   0.26354   0.28773   0.29033   0.29034
     Eigenvalues ---    0.30547   0.41122   0.43027   0.44656   0.44657
     Eigenvalues ---    0.50125   0.76212
 RFO step:  Lambda=-3.91959490D-06 EMin= 2.01067581D-02
 Quartic linear search produced a step of -0.07540.
 Iteration  1 RMS(Cart)=  0.00080368 RMS(Int)=  0.00000021
 Iteration  2 RMS(Cart)=  0.00000028 RMS(Int)=  0.00000004
 ClnCor:  largest displacement from symmetrization is 7.91D-12 for atom    11.
 Variable       Old X    -DE/DX   Delta X   Delta X   Delta X     New X
                                 (Linear)    (Quad)   (Total)
    R1        2.65518   0.00014   0.00055  -0.00020   0.00035   2.65553
    R2        2.65518   0.00014   0.00055  -0.00020   0.00035   2.65553
    R3        3.22921   0.00014  -0.00067   0.00131   0.00064   3.22985
    R4        2.65048   0.00045   0.00048   0.00040   0.00087   2.65136
    R5        3.23329  -0.00005  -0.00033   0.00019  -0.00014   3.23315
    R6        2.61690  -0.00079   0.00003  -0.00157  -0.00154   2.61537
    R7        3.24060  -0.00028  -0.00069   0.00011  -0.00058   3.24002
    R8        2.61691  -0.00079   0.00003  -0.00157  -0.00154   2.61537
    R9        2.65048   0.00045   0.00048   0.00040   0.00087   2.65135
   R10        3.24060  -0.00028  -0.00069   0.00011  -0.00058   3.24002
   R11        3.23329  -0.00005  -0.00033   0.00019  -0.00014   3.23315
    A1        2.09291  -0.00006  -0.00014   0.00030   0.00017   2.09307
    A2        2.09514   0.00003   0.00007  -0.00015  -0.00008   2.09506
    A3        2.09514   0.00003   0.00007  -0.00015  -0.00008   2.09506
    A4        2.07653  -0.00026  -0.00009  -0.00069  -0.00078   2.07575
    A5        2.08669   0.00011  -0.00006   0.00043   0.00037   2.08706
    A6        2.11996   0.00014   0.00015   0.00026   0.00041   2.12037
    A7        2.12598   0.00029   0.00021   0.00059   0.00080   2.12677
    A8        2.08406  -0.00004   0.00007  -0.00019  -0.00012   2.08394
    A9        2.07315  -0.00024  -0.00028  -0.00040  -0.00068   2.07247
   A10        2.06845   0.00000  -0.00011  -0.00009  -0.00020   2.06825
   A11        2.12598   0.00029   0.00021   0.00059   0.00080   2.12677
   A12        2.07315  -0.00024  -0.00028  -0.00040  -0.00068   2.07247
   A13        2.08406  -0.00004   0.00007  -0.00019  -0.00012   2.08394
   A14        2.07653  -0.00026  -0.00009  -0.00069  -0.00078   2.07575
   A15        2.08669   0.00011  -0.00006   0.00043   0.00037   2.08706
   A16        2.11996   0.00014   0.00015   0.00026   0.00041   2.12037
    D1       -0.00000  -0.00000   0.00000  -0.00000   0.00000   0.00000
    D2        3.14159  -0.00000   0.00000  -0.00000   0.00000   3.14159
    D3        3.14159   0.00000   0.00000   0.00000   0.00000   3.14159
    D4        0.00000   0.00000   0.00000   0.00000   0.00000   0.00000
    D5        0.00000   0.00000   0.00000   0.00000   0.00000   0.00000
    D6        3.14159   0.00000   0.00000   0.00000   0.00000   3.14159
    D7        3.14159  -0.00000   0.00000  -0.00000   0.00000   3.14159
    D8       -0.00000  -0.00000   0.00000  -0.00000   0.00000   0.00000
    D9        0.00000  -0.00000   0.00000  -0.00000   0.00000   0.00000
   D10        3.14159  -0.00000   0.00000  -0.00000   0.00000   3.14159
   D11        3.14159   0.00000   0.00000   0.00000   0.00000   3.14159
   D12       -0.00000  -0.00000   0.00000  -0.00000   0.00000   0.00000
   D13        0.00000   0.00000   0.00000   0.00000  -0.00000   0.00000
   D14        3.14159   0.00000   0.00000   0.00000   0.00000   3.14159
   D15        0.00000   0.00000   0.00000   0.00000  -0.00000   0.00000
   D16        3.14159  -0.00000   0.00000  -0.00000   0.00000   3.14159
   D17       -0.00000  -0.00000   0.00000  -0.00000   0.00000   0.00000
   D18        3.14159  -0.00000   0.00000  -0.00000   0.00000   3.14159
   D19        3.14159   0.00000   0.00000   0.00000   0.00000   3.14159
   D20        0.00000   0.00000   0.00000   0.00000  -0.00000   0.00000
         Item               Value     Threshold  Converged?
 Maximum Force            0.000791     0.000450     NO 
 RMS     Force            0.000225     0.000300     YES
 Maximum Displacement     0.003265     0.001800     NO 
 RMS     Displacement     0.000804     0.001200     YES
 Predicted change in Energy=-2.568544D-06
 GradGradGradGradGradGradGradGradGradGradGradGradGradGradGradGradGradGrad

                          Input orientation:                          
 ---------------------------------------------------------------------
 Center     Atomic      Atomic             Coordinates (Angstroms)
 Number     Number       Type             X           Y           Z
 ---------------------------------------------------------------------
      1          6           0       -3.214062    0.202019   -0.000000
      2          6           0       -2.016351    0.937004   -0.000000
      3          6           0       -0.795604    0.245420   -0.000000
      4          6           0       -0.739518   -1.137436   -0.000000
      5          6           0       -1.928007   -1.846612    0.000000
      6          6           0       -3.174543   -1.202671    0.000000
      7         17           0       -4.638129   -2.088748    0.000000
      8         17           0       -4.717150    1.015631   -0.000000
      9         17           0       -1.865755   -3.560025    0.000000
     10         17           0       -2.074743    2.646918   -0.000000
     11         17           0        0.673022    1.130179   -0.000000
 ---------------------------------------------------------------------
                    Distance matrix (angstroms):
                    1          2          3          4          5
     1  C    0.000000
     2  C    1.405246   0.000000
     3  C    2.418847   1.403037   0.000000
     4  C    2.813806   2.435899   1.383993   0.000000
     5  C    2.418848   2.785018   2.378852   1.383993   0.000000
     6  C    1.405246   2.433027   2.785018   2.435899   1.403037
     7  Cl   2.697328   4.003611   4.495925   4.012999   2.720917
     8  Cl   1.709163   2.701943   3.996467   4.522969   3.996467
     9  Cl   3.996361   4.499550   3.953054   2.671582   1.714544
    10  Cl   2.697328   1.710911   2.720918   4.012999   4.495925
    11  Cl   3.996361   2.696302   1.714544   2.671582   3.953055
                    6          7          8          9         10
     6  C    0.000000
     7  Cl   1.710911   0.000000
     8  Cl   2.701943   3.105384   0.000000
     9  Cl   2.696302   3.138585   5.391389   0.000000
    10  Cl   4.003611   5.384931   3.105384   6.210461   0.000000
    11  Cl   4.499550   6.210461   5.391389   5.333236   3.138585
                   11
    11  Cl   0.000000
 Stoichiometry    C6Cl5(1-)
 Framework group  CS[SG(C6Cl5)]
 Deg. of freedom    19
 Full point group                 CS      NOp   2
 Largest Abelian subgroup         CS      NOp   2
 Largest concise Abelian subgroup C1      NOp   1
                         Standard orientation:                         
 ---------------------------------------------------------------------
 Center     Atomic      Atomic             Coordinates (Angstroms)
 Number     Number       Type             X           Y           Z
 ---------------------------------------------------------------------
      1          6           0        0.000000    0.968943    0.000000
      2          6           0        1.216514    0.265515    0.000000
      3          6           0        1.189426   -1.137260    0.000000
      4          6           0        0.000000   -1.844863    0.000000
      5          6           0       -1.189426   -1.137260    0.000000
      6          6           0       -1.216514    0.265515    0.000000
      7         17           0       -2.692465    1.130837    0.000000
      8         17           0       -0.000000    2.678106    0.000000
      9         17           0       -2.666618   -2.007641    0.000000
     10         17           0        2.692465    1.130837    0.000000
     11         17           0        2.666618   -2.007641    0.000000
 ---------------------------------------------------------------------
 Rotational constants (GHZ):           0.7148506           0.4706487           0.2837990
 Standard basis: VSTO-6G (5D, 7F)
 There are    33 symmetry adapted cartesian basis functions of A'  symmetry.
 There are    11 symmetry adapted cartesian basis functions of A"  symmetry.
 There are    33 symmetry adapted basis functions of A'  symmetry.
 There are    11 symmetry adapted basis functions of A"  symmetry.
    44 basis functions,   264 primitive gaussians,    44 cartesian basis functions
    30 alpha electrons       30 beta electrons
       nuclear repulsion energy       353.2100108420 Hartrees.
 Integral buffers will be    131072 words long.
 Regular integral format.
 Two-electron integral symmetry is turned off.
 Do NDO integrals.
 One-electron integrals computed using PRISM.
 NBasis=    44 RedAO= T EigKep=  1.00D+00  NBF=    33    11
 NBsUse=    44 1.00D-06 EigRej= -1.00D+00 NBFU=    33    11
 Initial guess from the checkpoint file:  "geometry_chks/12_456ClBzAnionIntermediate.chk"
 B after Tr=     0.000000   -0.000000    0.000000
         Rot=    0.707107    0.000000    0.000000    0.707107 Ang=  90.00 deg.
 Initial guess orbital symmetries:
       Occupied  (A') (A') (A') (A') (A') (A') (A') (A') (A') (A')
                 (A') (A') (A') (A') (A") (A') (A") (A') (A") (A")
                 (A") (A') (A') (A') (A') (A') (A") (A") (A") (A')
       Virtual   (A") (A") (A') (A') (A') (A') (A') (A") (A') (A')
                 (A') (A') (A') (A')
 Keep J ints in memory in canonical form, NReq=865421.
 Overlap will be assumed to be unity.
 Requested convergence on RMS density matrix=1.00D-08 within**** cycles.
 Requested convergence on MAX density matrix=1.00D-06.
 Requested convergence on             energy=1.00D-06.
 No special actions if energy rises.
 Fock symm off for IB=2 I1=    1 I=   34 J=   22 Cut=1.00D-07 Err=3.10D-05
 Fock matrix is not symmetric: symmetry in diagonalization turned off.
 SCF Done:  E(RAM1) = -0.377028841143E-02 A.U. after   10 cycles
            NFock=  9  Conv=0.41D-08     -V/T= 1.0000
 Calling FoFJK, ICntrl=      2127 FMM=F ISym2X=1 I1Cent= 0 IOpClX= 0 NMat=1 NMatS=1 NMatT=0.
 ***** Axes restored to original set *****
 -------------------------------------------------------------------
 Center     Atomic                   Forces (Hartrees/Bohr)
 Number     Number              X              Y              Z
 -------------------------------------------------------------------
      1        6           0.000156663   -0.000084903    0.000000000
      2        6          -0.000103993    0.000243445    0.000000000
      3        6           0.000095016   -0.000029538    0.000000000
      4        6          -0.000080377    0.000043390   -0.000000000
      5        6           0.000076960   -0.000063311    0.000000000
      6        6          -0.000260861   -0.000045947   -0.000000000
      7       17           0.000116915    0.000072588   -0.000000000
      8       17           0.000059392   -0.000032145   -0.000000000
      9       17          -0.000042884   -0.000004155   -0.000000000
     10       17           0.000003147   -0.000137550   -0.000000000
     11       17          -0.000019977    0.000038125   -0.000000000
 -------------------------------------------------------------------
 Cartesian Forces:  Max     0.000260861 RMS     0.000086393

 GradGradGradGradGradGradGradGradGradGradGradGradGradGradGradGradGradGrad
 Berny optimization.
 Using GEDIIS/GDIIS optimizer.
 FormGI is forming the generalized inverse of G from B-inverse, IUseBI=4.
 Internal  Forces:  Max     0.000141475 RMS     0.000051091
 Search for a local minimum.
 Step number   5 out of a maximum of   57
 All quantities printed in internal units (Hartrees-Bohrs-Radians)
 Mixed Optimization -- En-DIIS/RFO-DIIS
 Swapping is turned off.
 Update second derivatives using D2CorX and points    1    2    3    4    5
 DE= -2.48D-06 DEPred=-2.57D-06 R= 9.66D-01
 TightC=F SS=  1.41D+00  RLast= 3.43D-03 DXNew= 8.4853D-01 1.0286D-02
 Trust test= 9.66D-01 RLast= 3.43D-03 DXMaxT set to 5.05D-01
 ITU=  1  1  1  1  0
     Eigenvalues ---    0.02011   0.02011   0.02011   0.02011   0.02011
     Eigenvalues ---    0.02011   0.02011   0.02011   0.20942   0.24903
     Eigenvalues ---    0.25000   0.25000   0.25000   0.25000   0.25129
     Eigenvalues ---    0.26527   0.26827   0.28597   0.29033   0.29034
     Eigenvalues ---    0.30532   0.41121   0.43268   0.44656   0.44657
     Eigenvalues ---    0.55954   0.75497
 En-DIIS/RFO-DIIS/Sim-DIIS IScMMF=       -3 using points:     5    4
 RFO step:  Lambda=-4.40665251D-07.
 DidBck=F Rises=F RFO-DIIS coefs:    1.06603   -0.06603
 Iteration  1 RMS(Cart)=  0.00021490 RMS(Int)=  0.00000002
 Iteration  2 RMS(Cart)=  0.00000003 RMS(Int)=  0.00000001
 ClnCor:  largest displacement from symmetrization is 1.07D-11 for atom    11.
 Variable       Old X    -DE/DX   Delta X   Delta X   Delta X     New X
                                 (Linear)    (Quad)   (Total)
    R1        2.65553  -0.00005   0.00002  -0.00010  -0.00008   2.65545
    R2        2.65553  -0.00005   0.00002  -0.00010  -0.00008   2.65545
    R3        3.22985  -0.00007   0.00004  -0.00023  -0.00019   3.22966
    R4        2.65136   0.00002   0.00006   0.00007   0.00012   2.65148
    R5        3.23315  -0.00014  -0.00001  -0.00052  -0.00053   3.23263
    R6        2.61537   0.00004  -0.00010   0.00005  -0.00005   2.61532
    R7        3.24002   0.00000  -0.00004  -0.00002  -0.00006   3.23996
    R8        2.61537   0.00004  -0.00010   0.00005  -0.00005   2.61532
    R9        2.65135   0.00002   0.00006   0.00007   0.00012   2.65148
   R10        3.24002   0.00000  -0.00004  -0.00002  -0.00006   3.23996
   R11        3.23315  -0.00014  -0.00001  -0.00052  -0.00053   3.23263
    A1        2.09307   0.00014   0.00001   0.00054   0.00055   2.09362
    A2        2.09506  -0.00007  -0.00001  -0.00027  -0.00028   2.09478
    A3        2.09506  -0.00007  -0.00001  -0.00027  -0.00028   2.09478
    A4        2.07575  -0.00006  -0.00005  -0.00028  -0.00033   2.07542
    A5        2.08706   0.00003   0.00002   0.00012   0.00015   2.08721
    A6        2.12037   0.00003   0.00003   0.00015   0.00018   2.12056
    A7        2.12677  -0.00005   0.00005  -0.00014  -0.00009   2.12669
    A8        2.08394  -0.00005  -0.00001  -0.00020  -0.00020   2.08373
    A9        2.07247   0.00009  -0.00004   0.00034   0.00029   2.07277
   A10        2.06825   0.00007  -0.00001   0.00030   0.00029   2.06854
   A11        2.12677  -0.00005   0.00005  -0.00014  -0.00009   2.12669
   A12        2.07247   0.00009  -0.00004   0.00034   0.00029   2.07277
   A13        2.08394  -0.00005  -0.00001  -0.00020  -0.00021   2.08373
   A14        2.07575  -0.00006  -0.00005  -0.00028  -0.00033   2.07542
   A15        2.08706   0.00003   0.00002   0.00012   0.00015   2.08721
   A16        2.12037   0.00003   0.00003   0.00015   0.00018   2.12056
    D1        0.00000  -0.00000   0.00000  -0.00000   0.00000   0.00000
    D2        3.14159  -0.00000   0.00000  -0.00000   0.00000   3.14159
    D3        3.14159   0.00000   0.00000   0.00000   0.00000   3.14159
    D4        0.00000  -0.00000   0.00000  -0.00000   0.00000   0.00000
    D5        0.00000   0.00000   0.00000   0.00000   0.00000   0.00000
    D6        3.14159   0.00000   0.00000   0.00000   0.00000   3.14159
    D7        3.14159  -0.00000   0.00000  -0.00000   0.00000   3.14159
    D8        0.00000  -0.00000   0.00000  -0.00000   0.00000   0.00000
    D9        0.00000  -0.00000   0.00000  -0.00000   0.00000   0.00000
   D10        3.14159  -0.00000   0.00000  -0.00000   0.00000   3.14159
   D11        3.14159   0.00000   0.00000   0.00000   0.00000   3.14159
   D12        0.00000  -0.00000   0.00000  -0.00000   0.00000   0.00000
   D13        0.00000   0.00000   0.00000   0.00000   0.00000   0.00000
   D14        3.14159   0.00000   0.00000   0.00000   0.00000   3.14159
   D15        0.00000   0.00000   0.00000   0.00000   0.00000   0.00000
   D16        3.14159  -0.00000   0.00000  -0.00000   0.00000   3.14159
   D17        0.00000  -0.00000   0.00000  -0.00000   0.00000   0.00000
   D18        3.14159  -0.00000   0.00000  -0.00000   0.00000   3.14159
   D19        3.14159   0.00000   0.00000   0.00000   0.00000   3.14159
   D20        0.00000   0.00000   0.00000   0.00000   0.00000   0.00000
         Item               Value     Threshold  Converged?
 Maximum Force            0.000141     0.000450     YES
 RMS     Force            0.000051     0.000300     YES
 Maximum Displacement     0.000696     0.001800     YES
 RMS     Displacement     0.000215     0.001200     YES
 Predicted change in Energy=-2.203335D-07
 Optimization completed.
    -- Stationary point found.
                           ----------------------------
                           !   Optimized Parameters   !
                           ! (Angstroms and Degrees)  !
 --------------------------                            --------------------------
 ! Name  Definition              Value          Derivative Info.                !
 --------------------------------------------------------------------------------
 ! R1    R(1,2)                  1.4052         -DE/DX =   -0.0001              !
 ! R2    R(1,6)                  1.4052         -DE/DX =   -0.0001              !
 ! R3    R(1,8)                  1.7092         -DE/DX =   -0.0001              !
 ! R4    R(2,3)                  1.403          -DE/DX =    0.0                 !
 ! R5    R(2,10)                 1.7109         -DE/DX =   -0.0001              !
 ! R6    R(3,4)                  1.384          -DE/DX =    0.0                 !
 ! R7    R(3,11)                 1.7145         -DE/DX =    0.0                 !
 ! R8    R(4,5)                  1.384          -DE/DX =    0.0                 !
 ! R9    R(5,6)                  1.403          -DE/DX =    0.0                 !
 ! R10   R(5,9)                  1.7145         -DE/DX =    0.0                 !
 ! R11   R(6,7)                  1.7109         -DE/DX =   -0.0001              !
 ! A1    A(2,1,6)              119.9242         -DE/DX =    0.0001              !
 ! A2    A(2,1,8)              120.0379         -DE/DX =   -0.0001              !
 ! A3    A(6,1,8)              120.0379         -DE/DX =   -0.0001              !
 ! A4    A(1,2,3)              118.9316         -DE/DX =   -0.0001              !
 ! A5    A(1,2,10)             119.5799         -DE/DX =    0.0                 !
 ! A6    A(3,2,10)             121.4885         -DE/DX =    0.0                 !
 ! A7    A(2,3,4)              121.8552         -DE/DX =    0.0                 !
 ! A8    A(2,3,11)             119.4009         -DE/DX =    0.0                 !
 ! A9    A(4,3,11)             118.7439         -DE/DX =    0.0001              !
 ! A10   A(3,4,5)              118.5022         -DE/DX =    0.0001              !
 ! A11   A(4,5,6)              121.8552         -DE/DX =    0.0                 !
 ! A12   A(4,5,9)              118.7439         -DE/DX =    0.0001              !
 ! A13   A(6,5,9)              119.4009         -DE/DX =    0.0                 !
 ! A14   A(1,6,5)              118.9316         -DE/DX =   -0.0001              !
 ! A15   A(1,6,7)              119.5798         -DE/DX =    0.0                 !
 ! A16   A(5,6,7)              121.4885         -DE/DX =    0.0                 !
 ! D1    D(6,1,2,3)              0.0            -DE/DX =    0.0                 !
 ! D2    D(6,1,2,10)           180.0            -DE/DX =    0.0                 !
 ! D3    D(8,1,2,3)            180.0            -DE/DX =    0.0                 !
 ! D4    D(8,1,2,10)             0.0            -DE/DX =    0.0                 !
 ! D5    D(2,1,6,5)              0.0            -DE/DX =    0.0                 !
 ! D6    D(2,1,6,7)            180.0            -DE/DX =    0.0                 !
 ! D7    D(8,1,6,5)            180.0            -DE/DX =    0.0                 !
 ! D8    D(8,1,6,7)              0.0            -DE/DX =    0.0                 !
 ! D9    D(1,2,3,4)              0.0            -DE/DX =    0.0                 !
 ! D10   D(1,2,3,11)           180.0            -DE/DX =    0.0                 !
 ! D11   D(10,2,3,4)           180.0            -DE/DX =    0.0                 !
 ! D12   D(10,2,3,11)            0.0            -DE/DX =    0.0                 !
 ! D13   D(2,3,4,5)              0.0            -DE/DX =    0.0                 !
 ! D14   D(11,3,4,5)           180.0            -DE/DX =    0.0                 !
 ! D15   D(3,4,5,6)              0.0            -DE/DX =    0.0                 !
 ! D16   D(3,4,5,9)            180.0            -DE/DX =    0.0                 !
 ! D17   D(4,5,6,1)              0.0            -DE/DX =    0.0                 !
 ! D18   D(4,5,6,7)            180.0            -DE/DX =    0.0                 !
 ! D19   D(9,5,6,1)            180.0            -DE/DX =    0.0                 !
 ! D20   D(9,5,6,7)              0.0            -DE/DX =    0.0                 !
 --------------------------------------------------------------------------------
 GradGradGradGradGradGradGradGradGradGradGradGradGradGradGradGradGradGrad

                          Input orientation:                          
 ---------------------------------------------------------------------
 Center     Atomic      Atomic             Coordinates (Angstroms)
 Number     Number       Type             X           Y           Z
 ---------------------------------------------------------------------
      1          6           0       -3.214062    0.202019   -0.000000
      2          6           0       -2.016351    0.937004   -0.000000
      3          6           0       -0.795604    0.245420   -0.000000
      4          6           0       -0.739518   -1.137436   -0.000000
      5          6           0       -1.928007   -1.846612   -0.000000
      6          6           0       -3.174543   -1.202671   -0.000000
      7         17           0       -4.638129   -2.088748   -0.000000
      8         17           0       -4.717150    1.015631   -0.000000
      9         17           0       -1.865755   -3.560025   -0.000000
     10         17           0       -2.074743    2.646918   -0.000000
     11         17           0        0.673022    1.130179   -0.000000
 ---------------------------------------------------------------------
                    Distance matrix (angstroms):
                    1          2          3          4          5
     1  C    0.000000
     2  C    1.405246   0.000000
     3  C    2.418847   1.403037   0.000000
     4  C    2.813806   2.435899   1.383993   0.000000
     5  C    2.418848   2.785018   2.378852   1.383993   0.000000
     6  C    1.405246   2.433027   2.785018   2.435899   1.403037
     7  Cl   2.697328   4.003611   4.495925   4.012999   2.720917
     8  Cl   1.709163   2.701943   3.996467   4.522969   3.996467
     9  Cl   3.996361   4.499550   3.953054   2.671582   1.714544
    10  Cl   2.697328   1.710911   2.720918   4.012999   4.495925
    11  Cl   3.996361   2.696302   1.714544   2.671582   3.953055
                    6          7          8          9         10
     6  C    0.000000
     7  Cl   1.710911   0.000000
     8  Cl   2.701943   3.105384   0.000000
     9  Cl   2.696302   3.138585   5.391389   0.000000
    10  Cl   4.003611   5.384931   3.105384   6.210461   0.000000
    11  Cl   4.499550   6.210461   5.391389   5.333236   3.138585
                   11
    11  Cl   0.000000
 Stoichiometry    C6Cl5(1-)
 Framework group  CS[SG(C6Cl5)]
 Deg. of freedom    19
 Full point group                 CS      NOp   2
 Largest Abelian subgroup         CS      NOp   2
 Largest concise Abelian subgroup C1      NOp   1
                         Standard orientation:                         
 ---------------------------------------------------------------------
 Center     Atomic      Atomic             Coordinates (Angstroms)
 Number     Number       Type             X           Y           Z
 ---------------------------------------------------------------------
      1          6           0        0.000000    0.968943    0.000000
      2          6           0        1.216514    0.265515    0.000000
      3          6           0        1.189426   -1.137260    0.000000
      4          6           0        0.000000   -1.844863    0.000000
      5          6           0       -1.189426   -1.137260    0.000000
      6          6           0       -1.216514    0.265515    0.000000
      7         17           0       -2.692465    1.130837    0.000000
      8         17           0       -0.000000    2.678106    0.000000
      9         17           0       -2.666618   -2.007641    0.000000
     10         17           0        2.692465    1.130837    0.000000
     11         17           0        2.666618   -2.007641    0.000000
 ---------------------------------------------------------------------
 Rotational constants (GHZ):           0.7148506           0.4706487           0.2837990

 **********************************************************************

            Population analysis using the SCF Density.

 **********************************************************************

 Orbital symmetries:
       Occupied  (A') (A') (A') (A') (A') (A') (A') (A') (A') (A')
                 (A') (A') (A') (A') (A") (A') (A") (A') (A") (A")
                 (A") (A') (A') (A') (A') (A') (A") (A") (A") (A')
       Virtual   (A") (A") (A') (A') (A') (A') (A') (A") (A') (A')
                 (A') (A') (A') (A')
 The electronic state is 1-A'.
 Alpha  occ. eigenvalues --   -1.31536  -1.26000  -1.25168  -1.23766  -1.22923
 Alpha  occ. eigenvalues --   -1.19836  -0.98545  -0.96878  -0.72248  -0.70553
 Alpha  occ. eigenvalues --   -0.54028  -0.49088  -0.48369  -0.43484  -0.42980
 Alpha  occ. eigenvalues --   -0.40421  -0.37026  -0.35825  -0.35260  -0.33214
 Alpha  occ. eigenvalues --   -0.32664  -0.32376  -0.31314  -0.30405  -0.29474
 Alpha  occ. eigenvalues --   -0.27745  -0.27040  -0.19685  -0.18500  -0.14221
 Alpha virt. eigenvalues --    0.14325   0.15769   0.16355   0.17832   0.18220
 Alpha virt. eigenvalues --    0.20678   0.21426   0.25818   0.29598   0.29721
 Alpha virt. eigenvalues --    0.30829   0.31988   0.35691   0.37665
          Condensed to atoms (all electrons):
               1          2          3          4          5          6
     1  C    4.121555   0.000000   0.000000   0.000000   0.000000   0.000000
     2  C    0.000000   4.061231   0.000000   0.000000   0.000000   0.000000
     3  C    0.000000   0.000000   4.044813   0.000000   0.000000   0.000000
     4  C    0.000000   0.000000   0.000000   4.331250   0.000000   0.000000
     5  C    0.000000   0.000000   0.000000   0.000000   4.044812   0.000000
     6  C    0.000000   0.000000   0.000000   0.000000   0.000000   4.061231
     7  Cl   0.000000   0.000000   0.000000   0.000000   0.000000   0.000000
     8  Cl   0.000000   0.000000   0.000000   0.000000   0.000000   0.000000
     9  Cl   0.000000   0.000000   0.000000   0.000000   0.000000   0.000000
    10  Cl   0.000000   0.000000   0.000000   0.000000   0.000000   0.000000
    11  Cl   0.000000   0.000000   0.000000   0.000000   0.000000   0.000000
               7          8          9         10         11
     1  C    0.000000   0.000000   0.000000   0.000000   0.000000
     2  C    0.000000   0.000000   0.000000   0.000000   0.000000
     3  C    0.000000   0.000000   0.000000   0.000000   0.000000
     4  C    0.000000   0.000000   0.000000   0.000000   0.000000
     5  C    0.000000   0.000000   0.000000   0.000000   0.000000
     6  C    0.000000   0.000000   0.000000   0.000000   0.000000
     7  Cl   7.062087   0.000000   0.000000   0.000000   0.000000
     8  Cl   0.000000   7.052832   0.000000   0.000000   0.000000
     9  Cl   0.000000   0.000000   7.079050   0.000000   0.000000
    10  Cl   0.000000   0.000000   0.000000   7.062087   0.000000
    11  Cl   0.000000   0.000000   0.000000   0.000000   7.079050
 Mulliken charges:
               1
     1  C   -0.121555
     2  C   -0.061231
     3  C   -0.044813
     4  C   -0.331250
     5  C   -0.044812
     6  C   -0.061231
     7  Cl  -0.062087
     8  Cl  -0.052832
     9  Cl  -0.079050
    10  Cl  -0.062087
    11  Cl  -0.079050
 Sum of Mulliken charges =  -1.00000
 Mulliken charges with hydrogens summed into heavy atoms:
               1
     1  C   -0.121555
     2  C   -0.061231
     3  C   -0.044813
     4  C   -0.331250
     5  C   -0.044812
     6  C   -0.061231
     7  Cl  -0.062087
     8  Cl  -0.052832
     9  Cl  -0.079050
    10  Cl  -0.062087
    11  Cl  -0.079050
 Charge=             -1.0000 electrons
 Dipole moment (field-independent basis, Debye):
    X=             -0.0000    Y=              4.8791    Z=              0.0000  Tot=              4.8791
 N-N= 3.532100108420D+02 E-N=-5.133892883620D+02  KE=-1.576268639528D+02
 Symmetry A'   KE=-1.203770371767D+02
 Symmetry A"   KE=-3.724982677606D+01
 1\1\GINC-SH02-01N36\FOpt\RAM1\ZDO\C6Cl5(1-)\JLAPIER\08-Dec-2025\0\\# o
 pt am1 SCF(maxcyc=10000)\\Anion Intermediate (removed 3) 12_456\\-1,1\
 C,-3.214061543,0.2020187976,0.\C,-2.0163506807,0.9370044127,0.\C,-0.79
 56035246,0.2454201503,0.\C,-0.7395182253,-1.1374358154,0.\C,-1.9280072
 932,-1.8466119126,0.\C,-3.1745433138,-1.2026712491,0.\Cl,-4.6381293577
 ,-2.0887476488,0.\Cl,-4.7171496929,1.0156306402,0.\Cl,-1.8657551587,-3
 .5600251628,0.\Cl,-2.0747434535,2.6469182934,0.\Cl,0.6730222347,1.1301
 794788,0.\\Version=ES64L-G16RevB.01\State=1-A'\HF=-0.0037703\RMSD=4.11
 9e-09\RMSF=8.639e-05\Dipole=-1.688125,0.9137707,0.\PG=CS [SG(C6Cl5)]\\
 @


 I WANT IT ALL - RICH, THIN, AND CHOCOLATE.
 Job cpu time:       0 days  0 hours  0 minutes  4.5 seconds.
 Elapsed time:       0 days  0 hours  0 minutes 15.9 seconds.
 File lengths (MBytes):  RWF=     10 Int=      0 D2E=      0 Chk=      2 Scr=      1
 Normal termination of Gaussian 16 at Mon Dec  8 17:08:42 2025.
