 Entering Gaussian System, Link 0=g16
 Initial command:
 /share/software/user/restricted/gaussian/g16.B01/l1.exe "/home/users/jlapier/Chloroaromatics/Gau-4332.inp" -scrdir="/home/users/jlapier/Chloroaromatics/"
 Entering Link 1 = /share/software/user/restricted/gaussian/g16.B01/l1.exe PID=      4333.
  
 Copyright (c) 1988-2017, Gaussian, Inc.  All Rights Reserved.
  
 This is part of the Gaussian(R) 16 program.  It is based on
 the Gaussian(R) 09 system (copyright 2009, Gaussian, Inc.),
 the Gaussian(R) 03 system (copyright 2003, Gaussian, Inc.),
 the Gaussian(R) 98 system (copyright 1998, Gaussian, Inc.),
 the Gaussian(R) 94 system (copyright 1995, Gaussian, Inc.),
 the Gaussian 92(TM) system (copyright 1992, Gaussian, Inc.),
 the Gaussian 90(TM) system (copyright 1990, Gaussian, Inc.),
 the Gaussian 88(TM) system (copyright 1988, Gaussian, Inc.),
 the Gaussian 86(TM) system (copyright 1986, Carnegie Mellon
 University), and the Gaussian 82(TM) system (copyright 1983,
 Carnegie Mellon University). Gaussian is a federally registered
 trademark of Gaussian, Inc.
  
 This software contains proprietary and confidential information,
 including trade secrets, belonging to Gaussian, Inc.
  
 This software is provided under written license and may be
 used, copied, transmitted, or stored only in accord with that
 written license.
  
 The following legend is applicable only to US Government
 contracts under FAR:
  
                    RESTRICTED RIGHTS LEGEND
  
 Use, reproduction and disclosure by the US Government is
 subject to restrictions as set forth in subparagraphs (a)
 and (c) of the Commercial Computer Software - Restricted
 Rights clause in FAR 52.227-19.
  
 Gaussian, Inc.
 340 Quinnipiac St., Bldg. 40, Wallingford CT 06492
  
  
 ---------------------------------------------------------------
 Warning -- This program may not be used in any manner that
 competes with the business of Gaussian, Inc. or will provide
 assistance to any competitor of Gaussian, Inc.  The licensee
 of this program is prohibited from giving any competitor of
 Gaussian, Inc. access to this program.  By using this program,
 the user acknowledges that Gaussian, Inc. is engaged in the
 business of creating and licensing software in the field of
 computational chemistry and represents and warrants to the
 licensee that it is not a competitor of Gaussian, Inc. and that
 it will not use this program in any manner prohibited above.
 ---------------------------------------------------------------
  

 Cite this work as:
 Gaussian 16, Revision B.01,
 M. J. Frisch, G. W. Trucks, H. B. Schlegel, G. E. Scuseria, 
 M. A. Robb, J. R. Cheeseman, G. Scalmani, V. Barone, 
 G. A. Petersson, H. Nakatsuji, X. Li, M. Caricato, A. V. Marenich, 
 J. Bloino, B. G. Janesko, R. Gomperts, B. Mennucci, H. P. Hratchian, 
 J. V. Ortiz, A. F. Izmaylov, J. L. Sonnenberg, D. Williams-Young, 
 F. Ding, F. Lipparini, F. Egidi, J. Goings, B. Peng, A. Petrone, 
 T. Henderson, D. Ranasinghe, V. G. Zakrzewski, J. Gao, N. Rega, 
 G. Zheng, W. Liang, M. Hada, M. Ehara, K. Toyota, R. Fukuda, 
 J. Hasegawa, M. Ishida, T. Nakajima, Y. Honda, O. Kitao, H. Nakai, 
 T. Vreven, K. Throssell, J. A. Montgomery, Jr., J. E. Peralta, 
 F. Ogliaro, M. J. Bearpark, J. J. Heyd, E. N. Brothers, K. N. Kudin, 
 V. N. Staroverov, T. A. Keith, R. Kobayashi, J. Normand, 
 K. Raghavachari, A. P. Rendell, J. C. Burant, S. S. Iyengar, 
 J. Tomasi, M. Cossi, J. M. Millam, M. Klene, C. Adamo, R. Cammi, 
 J. W. Ochterski, R. L. Martin, K. Morokuma, O. Farkas, 
 J. B. Foresman, and D. J. Fox, Gaussian, Inc., Wallingford CT, 2016.
 
 ******************************************
 Gaussian 16:  ES64L-G16RevB.01 20-Dec-2017
                 8-Dec-2025 
 ******************************************
 %mem=2GB
 %nprocshare=1
 Will use up to    1 processors via shared memory.
 %chk=geometry_chks/12_4ClBzAnionIntermediate.chk
 ---------------------------
 # opt am1 SCF(maxcyc=10000)
 ---------------------------
 1/18=20,19=15,26=1,38=1/1,3;
 2/9=110,12=2,17=6,18=5,40=1/2;
 3/5=2,25=1,41=700000,71=1/1,2,3;
 4/35=1/1;
 5/5=2,7=10000,35=1,38=5/2;
 6/7=2,8=2,9=2,10=2,28=1/1;
 7//1,2,3,16;
 1/18=20,19=15,26=1/3(2);
 2/9=110/2;
 99//99;
 2/9=110/2;
 3/5=2,25=1,41=700000,71=1,135=20/1,2,3;
 4/5=5,16=3,35=1/1;
 5/5=2,7=10000,35=1,38=5/2;
 7//1,2,3,16;
 1/18=20,19=15,26=1/3(-5);
 2/9=110/2;
 6/7=2,8=2,9=2,10=2,19=2,28=1/1;
 99/9=1/99;
 -----------------------------------
 Anion Intermediate (removed 3) 12_4
 -----------------------------------
 Symbolic Z-matrix:
 Charge = -1 Multiplicity = 1
 C                    -3.20928   0.19943   0. 
 C                    -2.0115    0.93555   0. 
 C                    -0.77511   0.2663    0. 
 C                    -0.7365   -1.13907   0. 
 C                    -1.93429  -1.87519   0. 
 C                    -3.17067  -1.20594   0. 
 Cl                   -4.67483  -2.13035   0. 
 Cl                   -4.76193   1.03987   0. 
 Cl                   -1.8858   -3.64003   0. 
 H                    -2.05998   2.7004    0. 
 H                     0.72905   1.19071   0. 
 
 Add virtual bond connecting atoms H11        and C3         Dist= 3.34D+00.
 Add virtual bond connecting atoms H10        and C2         Dist= 3.34D+00.

 GradGradGradGradGradGradGradGradGradGradGradGradGradGradGradGradGradGrad
 Berny optimization.
 Initialization pass.
                           ----------------------------
                           !    Initial Parameters    !
                           ! (Angstroms and Degrees)  !
 --------------------------                            --------------------------
 ! Name  Definition              Value          Derivative Info.                !
 --------------------------------------------------------------------------------
 ! R1    R(1,2)                  1.4059         estimate D2E/DX2                !
 ! R2    R(1,6)                  1.4059         estimate D2E/DX2                !
 ! R3    R(1,8)                  1.7655         estimate D2E/DX2                !
 ! R4    R(2,3)                  1.4059         estimate D2E/DX2                !
 ! R5    R(2,10)                 1.7655         estimate D2E/DX2                !
 ! R6    R(3,4)                  1.4059         estimate D2E/DX2                !
 ! R7    R(3,11)                 1.7655         estimate D2E/DX2                !
 ! R8    R(4,5)                  1.4059         estimate D2E/DX2                !
 ! R9    R(5,6)                  1.4059         estimate D2E/DX2                !
 ! R10   R(5,9)                  1.7655         estimate D2E/DX2                !
 ! R11   R(6,7)                  1.7655         estimate D2E/DX2                !
 ! A1    A(2,1,6)              119.9999         estimate D2E/DX2                !
 ! A2    A(2,1,8)              119.9999         estimate D2E/DX2                !
 ! A3    A(6,1,8)              120.0001         estimate D2E/DX2                !
 ! A4    A(1,2,3)              120.0            estimate D2E/DX2                !
 ! A5    A(1,2,10)             120.0001         estimate D2E/DX2                !
 ! A6    A(3,2,10)             119.9999         estimate D2E/DX2                !
 ! A7    A(2,3,4)              120.0001         estimate D2E/DX2                !
 ! A8    A(2,3,11)             120.0            estimate D2E/DX2                !
 ! A9    A(4,3,11)             119.9999         estimate D2E/DX2                !
 ! A10   A(3,4,5)              119.9997         estimate D2E/DX2                !
 ! A11   A(4,5,6)              120.0            estimate D2E/DX2                !
 ! A12   A(4,5,9)              119.9996         estimate D2E/DX2                !
 ! A13   A(6,5,9)              120.0004         estimate D2E/DX2                !
 ! A14   A(1,6,5)              120.0003         estimate D2E/DX2                !
 ! A15   A(1,6,7)              119.9999         estimate D2E/DX2                !
 ! A16   A(5,6,7)              119.9998         estimate D2E/DX2                !
 ! D1    D(6,1,2,3)              0.0            estimate D2E/DX2                !
 ! D2    D(6,1,2,10)           180.0            estimate D2E/DX2                !
 ! D3    D(8,1,2,3)            180.0            estimate D2E/DX2                !
 ! D4    D(8,1,2,10)             0.0            estimate D2E/DX2                !
 ! D5    D(2,1,6,5)              0.0            estimate D2E/DX2                !
 ! D6    D(2,1,6,7)            180.0            estimate D2E/DX2                !
 ! D7    D(8,1,6,5)            180.0            estimate D2E/DX2                !
 ! D8    D(8,1,6,7)              0.0            estimate D2E/DX2                !
 ! D9    D(1,2,3,4)              0.0            estimate D2E/DX2                !
 ! D10   D(1,2,3,11)           180.0            estimate D2E/DX2                !
 ! D11   D(10,2,3,4)           180.0            estimate D2E/DX2                !
 ! D12   D(10,2,3,11)            0.0            estimate D2E/DX2                !
 ! D13   D(2,3,4,5)              0.0            estimate D2E/DX2                !
 ! D14   D(11,3,4,5)           180.0            estimate D2E/DX2                !
 ! D15   D(3,4,5,6)              0.0            estimate D2E/DX2                !
 ! D16   D(3,4,5,9)            180.0            estimate D2E/DX2                !
 ! D17   D(4,5,6,1)              0.0            estimate D2E/DX2                !
 ! D18   D(4,5,6,7)            180.0            estimate D2E/DX2                !
 ! D19   D(9,5,6,1)            180.0            estimate D2E/DX2                !
 ! D20   D(9,5,6,7)              0.0            estimate D2E/DX2                !
 --------------------------------------------------------------------------------
 Trust Radius=3.00D-01 FncErr=1.00D-07 GrdErr=1.00D-07 EigMax=2.50D+02 EigMin=1.00D-04
 Number of steps in this run=     57 maximum allowed number of steps=    100.
 GradGradGradGradGradGradGradGradGradGradGradGradGradGradGradGradGradGrad

                          Input orientation:                          
 ---------------------------------------------------------------------
 Center     Atomic      Atomic             Coordinates (Angstroms)
 Number     Number       Type             X           Y           Z
 ---------------------------------------------------------------------
      1          6           0       -3.209280    0.199430    0.000000
      2          6           0       -2.011500    0.935550    0.000000
      3          6           0       -0.775110    0.266300    0.000000
      4          6           0       -0.736500   -1.139070    0.000000
      5          6           0       -1.934290   -1.875190    0.000000
      6          6           0       -3.170670   -1.205940    0.000000
      7         17           0       -4.674830   -2.130350    0.000000
      8         17           0       -4.761930    1.039870    0.000000
      9         17           0       -1.885800   -3.640030    0.000000
     10          1           0       -2.059980    2.700400    0.000000
     11          1           0        0.729050    1.190710    0.000000
 ---------------------------------------------------------------------
                    Distance matrix (angstroms):
                    1          2          3          4          5
     1  C    0.000000
     2  C    1.405898   0.000000
     3  C    2.435088   1.405900   0.000000
     4  C    2.811801   2.435092   1.405900   0.000000
     5  C    2.435087   2.811800   2.435093   1.405907   0.000000
     6  C    1.405900   2.435088   2.811796   2.435088   1.405892
     7  Cl   2.752401   4.061166   4.577308   4.061167   2.752393
     8  Cl   1.765520   2.752408   4.061175   4.577321   4.061173
     9  Cl   4.061164   4.577306   4.061163   2.752397   1.765506
    10  H    2.752406   1.765516   2.752405   4.061173   4.577316
    11  H    4.061167   2.752403   1.765512   2.752401   4.061173
                    6          7          8          9         10
     6  C    0.000000
     7  Cl   1.765512   0.000000
     8  Cl   2.752412   3.171416   0.000000
     9  Cl   2.752396   3.171407   5.493049   0.000000
    10  H    4.061173   5.493049   3.171418   6.342822   0.000000
    11  H    4.577308   6.342819   5.493051   5.493040   3.171412
                   11
    11  H    0.000000
 Stoichiometry    C6H2Cl3(1-)
 Framework group  CS[SG(C6H2Cl3)]
 Deg. of freedom    19
 Full point group                 CS      NOp   2
 Largest Abelian subgroup         CS      NOp   2
 Largest concise Abelian subgroup C1      NOp   1
                         Standard orientation:                         
 ---------------------------------------------------------------------
 Center     Atomic      Atomic             Coordinates (Angstroms)
 Number     Number       Type             X           Y           Z
 ---------------------------------------------------------------------
      1          6           0        0.987513    0.800123    0.000000
      2          6           0        2.205057    0.097174    0.000000
      3          6           0        2.205057   -1.308726    0.000000
      4          6           0        0.987513   -2.011678    0.000000
      5          6           0       -0.230036   -1.308721    0.000000
      6          6           0       -0.230031    0.097170    0.000000
      7         17           0       -1.759009    0.979926    0.000000
      8         17           0        0.987513    2.565643    0.000000
      9         17           0       -1.759005   -2.191481    0.000000
     10          1           0        3.734040    0.979930    0.000000
     11          1           0        3.734035   -2.191482    0.000000
 ---------------------------------------------------------------------
 Rotational constants (GHZ):           1.4523929           0.8332497           0.5294817
 Standard basis: VSTO-6G (5D, 7F)
 There are    29 symmetry adapted cartesian basis functions of A'  symmetry.
 There are     9 symmetry adapted cartesian basis functions of A"  symmetry.
 There are    29 symmetry adapted basis functions of A'  symmetry.
 There are     9 symmetry adapted basis functions of A"  symmetry.
    38 basis functions,   228 primitive gaussians,    38 cartesian basis functions
    24 alpha electrons       24 beta electrons
       nuclear repulsion energy       242.1156939607 Hartrees.
 Integral buffers will be    131072 words long.
 Regular integral format.
 Two-electron integral symmetry is turned off.
 Do NDO integrals.
 One-electron integrals computed using PRISM.
 NBasis=    38 RedAO= T EigKep=  1.00D+00  NBF=    29     9
 NBsUse=    38 1.00D-06 EigRej= -1.00D+00 NBFU=    29     9
 Simple Huckel Guess.
 Initial guess orbital symmetries:
       Occupied  (A') (A') (A') (A') (A') (A') (A') (A') (A') (A")
                 (A') (A') (A') (A') (A") (A") (A') (A") (A') (A')
                 (A') (A") (A") (A')
       Virtual   (A') (A") (A") (A') (A") (A') (A') (A') (A') (A')
                 (A') (A') (A') (A')
 The electronic state of the initial guess is 1-A'.
 Keep J ints in memory in canonical form, NReq=863588.
 Overlap will be assumed to be unity.
 Requested convergence on RMS density matrix=1.00D-08 within**** cycles.
 Requested convergence on MAX density matrix=1.00D-06.
 Requested convergence on             energy=1.00D-06.
 No special actions if energy rises.
 Fock symm off for IB=2 I1=    1 I=   30 J=   26 Cut=1.00D-07 Err=8.20D-03
 Fock matrix is not symmetric: symmetry in diagonalization turned off.
 SCF Done:  E(RAM1) =  0.277991789919     A.U. after   17 cycles
            NFock= 16  Conv=0.51D-08     -V/T= 1.0025

 **********************************************************************

            Population analysis using the SCF Density.

 **********************************************************************

 Orbital symmetries:
       Occupied  (A') (A') (A') (A') (A') (A') (A') (A') (A') (A')
                 (A') (A") (A') (A") (A") (A') (A') (A') (A') (A")
                 (A') (A") (A") (A')
       Virtual   (A') (A") (A') (A') (A") (A') (A') (A") (A') (A')
                 (A') (A') (A') (A')
 The electronic state is 1-A'.
 Alpha  occ. eigenvalues --   -1.26822  -1.22725  -1.21252  -1.18825  -0.94524
 Alpha  occ. eigenvalues --   -0.93164  -0.66155  -0.65272  -0.48868  -0.43986
 Alpha  occ. eigenvalues --   -0.40944  -0.39213  -0.37312  -0.33544  -0.31565
 Alpha  occ. eigenvalues --   -0.31155  -0.30334  -0.28623  -0.27967  -0.27906
 Alpha  occ. eigenvalues --   -0.22987  -0.19254  -0.17360  -0.12313
 Alpha virt. eigenvalues --    0.14768   0.16442   0.16599   0.17708   0.17831
 Alpha virt. eigenvalues --    0.19955   0.21468   0.27555   0.31323   0.31647
 Alpha virt. eigenvalues --    0.33228   0.34885   0.36971   0.39784
          Condensed to atoms (all electrons):
               1          2          3          4          5          6
     1  C    4.117666   0.000000   0.000000   0.000000   0.000000   0.000000
     2  C    0.000000   4.105875   0.000000   0.000000   0.000000   0.000000
     3  C    0.000000   0.000000   4.115837   0.000000   0.000000   0.000000
     4  C    0.000000   0.000000   0.000000   4.344801   0.000000   0.000000
     5  C    0.000000   0.000000   0.000000   0.000000   4.049604   0.000000
     6  C    0.000000   0.000000   0.000000   0.000000   0.000000   4.041080
     7  Cl   0.000000   0.000000   0.000000   0.000000   0.000000   0.000000
     8  Cl   0.000000   0.000000   0.000000   0.000000   0.000000   0.000000
     9  Cl   0.000000   0.000000   0.000000   0.000000   0.000000   0.000000
    10  H    0.000000   0.000000   0.000000   0.000000   0.000000   0.000000
    11  H    0.000000   0.000000   0.000000   0.000000   0.000000   0.000000
               7          8          9         10         11
     1  C    0.000000   0.000000   0.000000   0.000000   0.000000
     2  C    0.000000   0.000000   0.000000   0.000000   0.000000
     3  C    0.000000   0.000000   0.000000   0.000000   0.000000
     4  C    0.000000   0.000000   0.000000   0.000000   0.000000
     5  C    0.000000   0.000000   0.000000   0.000000   0.000000
     6  C    0.000000   0.000000   0.000000   0.000000   0.000000
     7  Cl   7.105604   0.000000   0.000000   0.000000   0.000000
     8  Cl   0.000000   7.105405   0.000000   0.000000   0.000000
     9  Cl   0.000000   0.000000   7.110060   0.000000   0.000000
    10  H    0.000000   0.000000   0.000000   0.947413   0.000000
    11  H    0.000000   0.000000   0.000000   0.000000   0.956656
 Mulliken charges:
               1
     1  C   -0.117666
     2  C   -0.105875
     3  C   -0.115837
     4  C   -0.344801
     5  C   -0.049604
     6  C   -0.041080
     7  Cl  -0.105604
     8  Cl  -0.105405
     9  Cl  -0.110060
    10  H    0.052587
    11  H    0.043344
 Sum of Mulliken charges =  -1.00000
 Mulliken charges with hydrogens summed into heavy atoms:
               1
     1  C   -0.117666
     2  C   -0.053288
     3  C   -0.072493
     4  C   -0.344801
     5  C   -0.049604
     6  C   -0.041080
     7  Cl  -0.105604
     8  Cl  -0.105405
     9  Cl  -0.110060
 Charge=             -1.0000 electrons
 Dipole moment (field-independent basis, Debye):
    X=             -1.7553    Y=              5.0013    Z=              0.0000  Tot=              5.3004
 N-N= 2.421156939607D+02 E-N=-3.441722635007D+02  KE=-1.134617607292D+02
 Symmetry A'   KE=-8.740459846084D+01
 Symmetry A"   KE=-2.605716226833D+01
 Calling FoFJK, ICntrl=      2127 FMM=F ISym2X=1 I1Cent= 0 IOpClX= 0 NMat=1 NMatS=1 NMatT=0.
 ***** Axes restored to original set *****
 -------------------------------------------------------------------
 Center     Atomic                   Forces (Hartrees/Bohr)
 Number     Number              X              Y              Z
 -------------------------------------------------------------------
      1        6          -0.003780069    0.020152548    0.000000000
      2        6           0.024678089    0.073843528   -0.000000000
      3        6           0.033766059    0.030904617    0.000000000
      4        6          -0.003890829    0.021754677    0.000000000
      5        6           0.015902198    0.010100833    0.000000000
      6        6          -0.014661468   -0.013803758    0.000000000
      7       17           0.019870966    0.014907541   -0.000000000
      8       17           0.025943132   -0.011100279   -0.000000000
      9       17           0.000057686    0.028270465   -0.000000000
     10        1           0.000936139   -0.114599890   -0.000000000
     11        1          -0.098821903   -0.060430281   -0.000000000
 -------------------------------------------------------------------
 Cartesian Forces:  Max     0.114599890 RMS     0.034196632

 GradGradGradGradGradGradGradGradGradGradGradGradGradGradGradGradGradGrad
 Berny optimization.
 FormGI is forming the generalized inverse of G from B-inverse, IUseBI=4.
 Internal  Forces:  Max     0.115834023 RMS     0.028080240
 Search for a local minimum.
 Step number   1 out of a maximum of   57
 All quantities printed in internal units (Hartrees-Bohrs-Radians)
 Mixed Optimization -- RFO/linear search
 Second derivative matrix not updated -- first step.
 ITU=  0
     Eigenvalues ---    0.02011   0.02011   0.02011   0.02011   0.02011
     Eigenvalues ---    0.02011   0.02011   0.02011   0.06524   0.06524
     Eigenvalues ---    0.16000   0.16000   0.22422   0.24427   0.25000
     Eigenvalues ---    0.25000   0.25000   0.25000   0.29033   0.29033
     Eigenvalues ---    0.29034   0.40957   0.41540   0.44656   0.44657
     Eigenvalues ---    0.44657   0.44657
 RFO step:  Lambda=-1.45905332D-01 EMin= 2.01067519D-02
 Linear search not attempted -- first point.
 Maximum step size (   0.300) exceeded in Quadratic search.
    -- Step size scaled by   0.376
 Iteration  1 RMS(Cart)=  0.04879715 RMS(Int)=  0.00114202
 Iteration  2 RMS(Cart)=  0.00105596 RMS(Int)=  0.00001987
 Iteration  3 RMS(Cart)=  0.00000025 RMS(Int)=  0.00001987
 ClnCor:  largest displacement from symmetrization is 5.72D-09 for atom     9.
 Variable       Old X    -DE/DX   Delta X   Delta X   Delta X     New X
                                 (Linear)    (Quad)   (Total)
    R1        2.65676  -0.03332   0.00000  -0.02138  -0.02137   2.63539
    R2        2.65677  -0.01497   0.00000  -0.00878  -0.00881   2.64796
    R3        3.33635  -0.02810   0.00000  -0.02424  -0.02424   3.31211
    R4        2.65677  -0.05184   0.00000  -0.03387  -0.03384   2.62293
    R5        3.33634  -0.11458   0.00000  -0.20425  -0.20425   3.13209
    R6        2.65677  -0.04576   0.00000  -0.02980  -0.02978   2.62699
    R7        3.33633  -0.11583   0.00000  -0.20649  -0.20649   3.12985
    R8        2.65678  -0.02900   0.00000  -0.01822  -0.01823   2.63855
    R9        2.65675  -0.00932   0.00000  -0.00499  -0.00502   2.65173
   R10        3.33632  -0.02826   0.00000  -0.02438  -0.02438   3.31194
   R11        3.33633  -0.02473   0.00000  -0.02134  -0.02134   3.31499
    A1        2.09439  -0.00845   0.00000  -0.00742  -0.00743   2.08696
    A2        2.09439  -0.00009   0.00000  -0.00039  -0.00039   2.09401
    A3        2.09440   0.00854   0.00000   0.00781   0.00782   2.10222
    A4        2.09439   0.00576   0.00000   0.00385   0.00389   2.09828
    A5        2.09440  -0.00657   0.00000  -0.00646  -0.00648   2.08792
    A6        2.09439   0.00081   0.00000   0.00262   0.00260   2.09699
    A7        2.09440   0.01915   0.00000   0.01675   0.01681   2.11120
    A8        2.09440  -0.01000   0.00000  -0.00890  -0.00893   2.08546
    A9        2.09439  -0.00914   0.00000  -0.00785  -0.00787   2.08652
   A10        2.09439  -0.01526   0.00000  -0.01597  -0.01595   2.07844
   A11        2.09439   0.00814   0.00000   0.00931   0.00927   2.10366
   A12        2.09439  -0.00546   0.00000  -0.00598  -0.00596   2.08843
   A13        2.09440  -0.00268   0.00000  -0.00333  -0.00331   2.09109
   A14        2.09440  -0.00935   0.00000  -0.00652  -0.00658   2.08782
   A15        2.09439   0.00084   0.00000  -0.00038  -0.00035   2.09404
   A16        2.09439   0.00850   0.00000   0.00690   0.00693   2.10132
    D1        0.00000  -0.00000   0.00000  -0.00000   0.00000   0.00000
    D2        3.14159  -0.00000   0.00000  -0.00000   0.00000   3.14159
    D3        3.14159   0.00000   0.00000   0.00000   0.00000   3.14159
    D4        0.00000  -0.00000   0.00000  -0.00000   0.00000   0.00000
    D5        0.00000   0.00000   0.00000   0.00000   0.00000   0.00000
    D6        3.14159   0.00000   0.00000   0.00000   0.00000   3.14159
    D7        3.14159  -0.00000   0.00000  -0.00000   0.00000   3.14159
    D8        0.00000   0.00000   0.00000   0.00000   0.00000   0.00000
    D9        0.00000   0.00000   0.00000   0.00000   0.00000   0.00000
   D10        3.14159  -0.00000   0.00000  -0.00000   0.00000   3.14159
   D11        3.14159   0.00000   0.00000   0.00000   0.00000   3.14159
   D12        0.00000  -0.00000   0.00000  -0.00000   0.00000   0.00000
   D13        0.00000  -0.00000   0.00000  -0.00000   0.00000   0.00000
   D14        3.14159   0.00000   0.00000   0.00000   0.00000   3.14159
   D15        0.00000  -0.00000   0.00000  -0.00000   0.00000   0.00000
   D16        3.14159  -0.00000   0.00000  -0.00000   0.00000   3.14159
   D17        0.00000   0.00000   0.00000   0.00000   0.00000   0.00000
   D18        3.14159  -0.00000   0.00000  -0.00000   0.00000   3.14159
   D19        3.14159   0.00000   0.00000   0.00000   0.00000   3.14159
   D20        0.00000   0.00000   0.00000   0.00000   0.00000   0.00000
         Item               Value     Threshold  Converged?
 Maximum Force            0.115834     0.000450     NO 
 RMS     Force            0.028080     0.000300     NO 
 Maximum Displacement     0.208466     0.001800     NO 
 RMS     Displacement     0.049784     0.001200     NO 
 Predicted change in Energy=-5.114777D-02
 GradGradGradGradGradGradGradGradGradGradGradGradGradGradGradGradGradGrad

                          Input orientation:                          
 ---------------------------------------------------------------------
 Center     Atomic      Atomic             Coordinates (Angstroms)
 Number     Number       Type             X           Y           Z
 ---------------------------------------------------------------------
      1          6           0       -3.199085    0.211719    0.000000
      2          6           0       -2.005847    0.933567    0.000000
      3          6           0       -0.787276    0.269026    0.000000
      4          6           0       -0.730096   -1.119940    0.000000
      5          6           0       -1.921325   -1.848309    0.000000
      6          6           0       -3.160014   -1.188977    0.000000
      7         17           0       -4.654491   -2.107575    0.000000
      8         17           0       -4.734235    1.057436    0.000000
      9         17           0       -1.866729   -3.600062    0.000000
     10          1           0       -2.050476    2.590395    0.000000
     11          1           0        0.618734    1.144400    0.000000
 ---------------------------------------------------------------------
                    Distance matrix (angstroms):
                    1          2          3          4          5
     1  C    0.000000
     2  C    1.394590   0.000000
     3  C    2.412490   1.387994   0.000000
     4  C    2.805214   2.417526   1.390143   0.000000
     5  C    2.424126   2.783160   2.401911   1.396262   0.000000
     6  C    1.401241   2.416050   2.784899   2.430899   1.403235
     7  Cl   2.738125   4.032848   4.539117   4.046763   2.745435
     8  Cl   1.752691   2.731199   4.024932   4.557861   4.044233
     9  Cl   4.037927   4.535764   4.016848   2.728175   1.752604
    10  H    2.641477   1.657429   2.642807   3.938273   4.440582
    11  H    3.930094   2.633035   1.656244   2.635637   3.925329
                    6          7          8          9         10
     6  C    0.000000
     7  Cl   1.754218   0.000000
     8  Cl   2.743090   3.166016   0.000000
     9  Cl   2.736041   3.162141   5.469450   0.000000
    10  H    3.938874   5.371388   3.090716   6.193184   0.000000
    11  H    4.441125   6.195340   5.353676   5.356067   3.035718
                   11
    11  H    0.000000
 Stoichiometry    C6H2Cl3(1-)
 Framework group  CS[SG(C6H2Cl3)]
 Deg. of freedom    19
 Full point group                 CS      NOp   2
 Largest Abelian subgroup         CS      NOp   2
 Largest concise Abelian subgroup C1      NOp   1
                         Standard orientation:                         
 ---------------------------------------------------------------------
 Center     Atomic      Atomic             Coordinates (Angstroms)
 Number     Number       Type             X           Y           Z
 ---------------------------------------------------------------------
      1          6           0        1.120302   -0.588284    0.000000
      2          6           0        0.942061   -1.971437    0.000000
      3          6           0       -0.336731   -2.511085    0.000000
      4          6           0       -1.459132   -1.690893    0.000000
      5          6           0       -1.287245   -0.305252    0.000000
      6          6           0        0.000000    0.253381    0.000000
      7         17           0        0.211879    1.994757    0.000000
      8         17           0        2.737994    0.086250    0.000000
      9         17           0       -2.691898    0.742875    0.000000
     10          1           0        2.266234   -2.968250    0.000000
     11          1           0       -0.527342   -4.156324    0.000000
 ---------------------------------------------------------------------
 Rotational constants (GHZ):           1.4791197           0.8416033           0.5363984
 Standard basis: VSTO-6G (5D, 7F)
 There are    29 symmetry adapted cartesian basis functions of A'  symmetry.
 There are     9 symmetry adapted cartesian basis functions of A"  symmetry.
 There are    29 symmetry adapted basis functions of A'  symmetry.
 There are     9 symmetry adapted basis functions of A"  symmetry.
    38 basis functions,   228 primitive gaussians,    38 cartesian basis functions
    24 alpha electrons       24 beta electrons
       nuclear repulsion energy       243.3780021868 Hartrees.
 Integral buffers will be    131072 words long.
 Regular integral format.
 Two-electron integral symmetry is turned off.
 Do NDO integrals.
 One-electron integrals computed using PRISM.
 NBasis=    38 RedAO= T EigKep=  1.00D+00  NBF=    29     9
 NBsUse=    38 1.00D-06 EigRej= -1.00D+00 NBFU=    29     9
 Initial guess from the checkpoint file:  "geometry_chks/12_4ClBzAnionIntermediate.chk"
 B after Tr=     0.000000    0.000000    0.000000
         Rot=    0.834261    0.000000    0.000000    0.551370 Ang=  66.92 deg.
 Initial guess orbital symmetries:
       Occupied  (A') (A') (A') (A') (A') (A') (A') (A') (A') (A')
                 (A') (A") (A') (A") (A") (A') (A') (A') (A') (A")
                 (A') (A") (A") (A')
       Virtual   (A') (A") (A') (A') (A") (A') (A') (A") (A') (A')
                 (A') (A') (A') (A')
 Keep J ints in memory in canonical form, NReq=863588.
 Overlap will be assumed to be unity.
 Requested convergence on RMS density matrix=1.00D-08 within**** cycles.
 Requested convergence on MAX density matrix=1.00D-06.
 Requested convergence on             energy=1.00D-06.
 No special actions if energy rises.
 Fock symm off for IB=2 I1=    1 I=   30 J=    7 Cut=1.00D-07 Err=1.26D-03
 Fock matrix is not symmetric: symmetry in diagonalization turned off.
 SCF Done:  E(RAM1) =  0.223450698752     A.U. after   14 cycles
            NFock= 13  Conv=0.30D-08     -V/T= 1.0020
 Calling FoFJK, ICntrl=      2127 FMM=F ISym2X=1 I1Cent= 0 IOpClX= 0 NMat=1 NMatS=1 NMatT=0.
 ***** Axes restored to original set *****
 -------------------------------------------------------------------
 Center     Atomic                   Forces (Hartrees/Bohr)
 Number     Number              X              Y              Z
 -------------------------------------------------------------------
      1        6          -0.011352516    0.016942360    0.000000000
      2        6           0.016553556    0.099748692    0.000000000
      3        6           0.063700459    0.047189744   -0.000000000
      4        6           0.002728276    0.009103284    0.000000000
      5        6           0.010565060    0.002169817    0.000000000
      6        6          -0.015942272   -0.015723836   -0.000000000
      7       17           0.015533984    0.011748977   -0.000000000
      8       17           0.019617828   -0.008492168   -0.000000000
      9       17          -0.000228611    0.020298265   -0.000000000
     10        1           0.001151363   -0.119667989   -0.000000000
     11        1          -0.102327126   -0.063317146   -0.000000000
 -------------------------------------------------------------------
 Cartesian Forces:  Max     0.119667989 RMS     0.038012139

 GradGradGradGradGradGradGradGradGradGradGradGradGradGradGradGradGradGrad
 Berny optimization.
 Using GEDIIS/GDIIS optimizer.
 FormGI is forming the generalized inverse of G from B-inverse, IUseBI=4.
 Internal  Forces:  Max     0.120332005 RMS     0.026282011
 Search for a local minimum.
 Step number   2 out of a maximum of   57
 All quantities printed in internal units (Hartrees-Bohrs-Radians)
 Mixed Optimization -- RFO/linear search
 Update second derivatives using D2CorX and points    1    2
 DE= -5.45D-02 DEPred=-5.11D-02 R= 1.07D+00
 TightC=F SS=  1.41D+00  RLast= 3.00D-01 DXNew= 5.0454D-01 9.0000D-01
 Trust test= 1.07D+00 RLast= 3.00D-01 DXMaxT set to 5.05D-01
 ITU=  1  0
 Use linear search instead of GDIIS.
 Linear search step of   0.600 exceeds DXMaxT=   0.505 but not scaled.
 Quartic linear search produced a step of  2.00000.
 Iteration  1 RMS(Cart)=  0.06161609 RMS(Int)=  0.04349669
 Iteration  2 RMS(Cart)=  0.03822671 RMS(Int)=  0.00229053
 Iteration  3 RMS(Cart)=  0.00212742 RMS(Int)=  0.00012129
 Iteration  4 RMS(Cart)=  0.00000006 RMS(Int)=  0.00012129
 ClnCor:  largest displacement from symmetrization is 1.78D-15 for atom    10.
 Variable       Old X    -DE/DX   Delta X   Delta X   Delta X     New X
                                 (Linear)    (Quad)   (Total)
    R1        2.63539  -0.01531  -0.04274   0.00000  -0.04267   2.59272
    R2        2.64796  -0.00397  -0.01761   0.00000  -0.01775   2.63021
    R3        3.31211  -0.02128  -0.04849   0.00000  -0.04849   3.26362
    R4        2.62293  -0.02819  -0.06767   0.00000  -0.06747   2.55545
    R5        3.13209  -0.11966  -0.40851   0.00000  -0.40851   2.72358
    R6        2.62699  -0.02311  -0.05955   0.00000  -0.05941   2.56758
    R7        3.12985  -0.12033  -0.41297   0.00000  -0.41297   2.71688
    R8        2.63855  -0.01424  -0.03645   0.00000  -0.03651   2.60204
    R9        2.65173  -0.00156  -0.01004   0.00000  -0.01024   2.64149
   R10        3.31194  -0.02030  -0.04876   0.00000  -0.04876   3.26318
   R11        3.31499  -0.01939  -0.04268   0.00000  -0.04268   3.27231
    A1        2.08696  -0.00587  -0.01487   0.00000  -0.01496   2.07200
    A2        2.09401  -0.00042  -0.00077   0.00000  -0.00073   2.09328
    A3        2.10222   0.00629   0.01564   0.00000   0.01569   2.11790
    A4        2.09828   0.00356   0.00777   0.00000   0.00802   2.10630
    A5        2.08792  -0.00502  -0.01296   0.00000  -0.01309   2.07483
    A6        2.09699   0.00146   0.00519   0.00000   0.00507   2.10205
    A7        2.11120   0.01312   0.03361   0.00000   0.03394   2.14514
    A8        2.08546  -0.00708  -0.01786   0.00000  -0.01803   2.06744
    A9        2.08652  -0.00604  -0.01575   0.00000  -0.01591   2.07061
   A10        2.07844  -0.01114  -0.03189   0.00000  -0.03177   2.04667
   A11        2.10366   0.00663   0.01854   0.00000   0.01828   2.12194
   A12        2.08843  -0.00399  -0.01191   0.00000  -0.01178   2.07665
   A13        2.09109  -0.00265  -0.00662   0.00000  -0.00649   2.08460
   A14        2.08782  -0.00630  -0.01316   0.00000  -0.01351   2.07431
   A15        2.09404   0.00004  -0.00070   0.00000  -0.00053   2.09351
   A16        2.10132   0.00626   0.01386   0.00000   0.01404   2.11536
    D1        0.00000   0.00000   0.00000   0.00000   0.00000   0.00000
    D2        3.14159  -0.00000   0.00000   0.00000   0.00000   3.14159
    D3        3.14159   0.00000   0.00000   0.00000   0.00000   3.14159
    D4        0.00000   0.00000   0.00000   0.00000   0.00000   0.00000
    D5        0.00000   0.00000   0.00000   0.00000   0.00000   0.00000
    D6        3.14159   0.00000   0.00000   0.00000   0.00000   3.14159
    D7        3.14159  -0.00000   0.00000   0.00000   0.00000   3.14159
    D8        0.00000  -0.00000   0.00000   0.00000   0.00000   0.00000
    D9        0.00000  -0.00000   0.00000   0.00000   0.00000   0.00000
   D10        3.14159  -0.00000   0.00000   0.00000   0.00000   3.14159
   D11        3.14159   0.00000   0.00000   0.00000   0.00000   3.14159
   D12        0.00000  -0.00000   0.00000   0.00000   0.00000   0.00000
   D13        0.00000   0.00000   0.00000   0.00000   0.00000   0.00000
   D14        3.14159   0.00000   0.00000   0.00000   0.00000   3.14159
   D15        0.00000   0.00000   0.00000   0.00000   0.00000   0.00000
   D16        3.14159  -0.00000   0.00000   0.00000   0.00000   3.14159
   D17        0.00000  -0.00000   0.00000   0.00000   0.00000   0.00000
   D18        3.14159  -0.00000   0.00000   0.00000   0.00000   3.14159
   D19        3.14159   0.00000   0.00000   0.00000   0.00000   3.14159
   D20        0.00000   0.00000   0.00000   0.00000   0.00000   0.00000
         Item               Value     Threshold  Converged?
 Maximum Force            0.120332     0.000450     NO 
 RMS     Force            0.026282     0.000300     NO 
 Maximum Displacement     0.415505     0.001800     NO 
 RMS     Displacement     0.099504     0.001200     NO 
 Predicted change in Energy=-1.054238D-01
 GradGradGradGradGradGradGradGradGradGradGradGradGradGradGradGradGradGrad

                          Input orientation:                          
 ---------------------------------------------------------------------
 Center     Atomic      Atomic             Coordinates (Angstroms)
 Number     Number       Type             X           Y           Z
 ---------------------------------------------------------------------
      1          6           0       -3.178716    0.236245    0.000000
      2          6           0       -1.994883    0.929748    0.000000
      3          6           0       -0.811636    0.275064    0.000000
      4          6           0       -0.717996   -1.080412    0.000000
      5          6           0       -1.895564   -1.794062    0.000000
      6          6           0       -3.138758   -1.155029    0.000000
      7         17           0       -4.613723   -2.062236    0.000000
      8         17           0       -4.678843    1.091966    0.000000
      9         17           0       -1.828241   -3.519550    0.000000
     10          1           0       -2.032191    2.370519    0.000000
     11          1           0        0.399712    1.049429    0.000000
 ---------------------------------------------------------------------
                    Distance matrix (angstroms):
                    1          2          3          4          5
     1  C    0.000000
     2  C    1.372008   0.000000
     3  C    2.367398   1.352288   0.000000
     4  C    2.790830   2.381425   1.358707   0.000000
     5  C    2.401797   2.725620   2.335847   1.376940   0.000000
     6  C    1.391847   2.377970   2.731421   2.421912   1.397818
     7  Cl   2.709661   3.976216   4.463052   4.017546   2.731357
     8  Cl   1.727032   2.688858   3.952545   4.517470   4.009464
     9  Cl   3.991213   4.452417   3.928432   2.679933   1.726801
    10  H    2.422735   1.441255   2.425013   3.692701   4.166822
    11  H    3.669662   2.397585   1.437709   2.405305   3.654276
                    6          7          8          9         10
     6  C    0.000000
     7  Cl   1.731632   0.000000
     8  Cl   2.724123   3.154874   0.000000
     9  Cl   2.703408   3.143672   5.421440   0.000000
    10  H    3.695129   5.129681   2.939297   5.893599   0.000000
    11  H    4.168981   5.900593   5.078734   5.083242   2.767569
                   11
    11  H    0.000000
 Stoichiometry    C6H2Cl3(1-)
 Framework group  CS[SG(C6H2Cl3)]
 Deg. of freedom    19
 Full point group                 CS      NOp   2
 Largest Abelian subgroup         CS      NOp   2
 Largest concise Abelian subgroup C1      NOp   1
                         Standard orientation:                         
 ---------------------------------------------------------------------
 Center     Atomic      Atomic             Coordinates (Angstroms)
 Number     Number       Type             X           Y           Z
 ---------------------------------------------------------------------
      1          6           0        1.117827   -0.568462    0.000000
      2          6           0        0.930358   -1.927602    0.000000
      3          6           0       -0.316003   -2.452263    0.000000
      4          6           0       -1.438913   -1.687308    0.000000
      5          6           0       -1.271149   -0.320626    0.000000
      6          6           0        0.000000    0.260817    0.000000
      7         17           0        0.199665    1.980899    0.000000
      8         17           0        2.718169    0.080802    0.000000
      9         17           0       -2.668492    0.693905    0.000000
     10          1           0        2.085435   -2.789584    0.000000
     11          1           0       -0.456961   -3.883046    0.000000
 ---------------------------------------------------------------------
 Rotational constants (GHZ):           1.5342864           0.8588216           0.5506138
 Standard basis: VSTO-6G (5D, 7F)
 There are    29 symmetry adapted cartesian basis functions of A'  symmetry.
 There are     9 symmetry adapted cartesian basis functions of A"  symmetry.
 There are    29 symmetry adapted basis functions of A'  symmetry.
 There are     9 symmetry adapted basis functions of A"  symmetry.
    38 basis functions,   228 primitive gaussians,    38 cartesian basis functions
    24 alpha electrons       24 beta electrons
       nuclear repulsion energy       246.0304801323 Hartrees.
 Integral buffers will be    131072 words long.
 Regular integral format.
 Two-electron integral symmetry is turned off.
 Do NDO integrals.
 One-electron integrals computed using PRISM.
 NBasis=    38 RedAO= T EigKep=  1.00D+00  NBF=    29     9
 NBsUse=    38 1.00D-06 EigRej= -1.00D+00 NBFU=    29     9
 Initial guess from the checkpoint file:  "geometry_chks/12_4ClBzAnionIntermediate.chk"
 B after Tr=    -0.000000   -0.000000    0.000000
         Rot=    0.999995   -0.000000   -0.000000   -0.003030 Ang=  -0.35 deg.
 Initial guess orbital symmetries:
       Occupied  (A') (A') (A') (A') (A') (A') (A') (A') (A') (A')
                 (A') (A") (A') (A") (A") (A') (A') (A') (A") (A')
                 (A') (A") (A") (A')
       Virtual   (A') (A") (A') (A") (A') (A') (A') (A") (A') (A')
                 (A') (A') (A') (A')
 Keep J ints in memory in canonical form, NReq=863588.
 Overlap will be assumed to be unity.
 Requested convergence on RMS density matrix=1.00D-08 within**** cycles.
 Requested convergence on MAX density matrix=1.00D-06.
 Requested convergence on             energy=1.00D-06.
 No special actions if energy rises.
 Fock symm off for IB=2 I1=    1 I=   30 J=    5 Cut=1.00D-07 Err=3.06D-03
 Fock matrix is not symmetric: symmetry in diagonalization turned off.
 SCF Done:  E(RAM1) =  0.124358162920     A.U. after   14 cycles
            NFock= 13  Conv=0.51D-08     -V/T= 1.0011
 Calling FoFJK, ICntrl=      2127 FMM=F ISym2X=1 I1Cent= 0 IOpClX= 0 NMat=1 NMatS=1 NMatT=0.
 ***** Axes restored to original set *****
 -------------------------------------------------------------------
 Center     Atomic                   Forces (Hartrees/Bohr)
 Number     Number              X              Y              Z
 -------------------------------------------------------------------
      1        6          -0.029766765    0.007625885    0.000000000
      2        6          -0.004655820    0.141916278   -0.000000000
      3        6           0.117564017    0.072489252   -0.000000000
      4        6           0.017465616   -0.021033588   -0.000000000
      5        6          -0.001401385   -0.015650769    0.000000000
      6        6          -0.018874477   -0.019931964    0.000000000
      7       17           0.006142623    0.004848127   -0.000000000
      8       17           0.005719901   -0.002546339   -0.000000000
      9       17          -0.000672331    0.002823737   -0.000000000
     10        1           0.001577992   -0.111451925   -0.000000000
     11        1          -0.093099372   -0.059088692   -0.000000000
 -------------------------------------------------------------------
 Cartesian Forces:  Max     0.141916278 RMS     0.044931551

 GradGradGradGradGradGradGradGradGradGradGradGradGradGradGradGradGradGrad
 Berny optimization.
 Using GEDIIS/GDIIS optimizer.
 FormGI is forming the generalized inverse of G from B-inverse, IUseBI=4.
 Internal  Forces:  Max     0.111455426 RMS     0.024468775
 Search for a local minimum.
 Step number   3 out of a maximum of   57
 All quantities printed in internal units (Hartrees-Bohrs-Radians)
 Mixed Optimization -- RFO/linear search
 Update second derivatives using D2CorX and points    2    3
 ITU=  0  1  0
 Use linear search instead of GDIIS.
 Linear search step of   0.766 exceeds DXMaxT=   0.505 but not scaled.
 Quartic linear search produced a step of  1.27602.
 Iteration  1 RMS(Cart)=  0.06919976 RMS(Int)=  0.06689480
 Iteration  2 RMS(Cart)=  0.03817416 RMS(Int)=  0.02564211
 Iteration  3 RMS(Cart)=  0.02375449 RMS(Int)=  0.00024257
 Iteration  4 RMS(Cart)=  0.00001257 RMS(Int)=  0.00024235
 Iteration  5 RMS(Cart)=  0.00000000 RMS(Int)=  0.00024235
 ClnCor:  largest displacement from symmetrization is 6.28D-16 for atom    10.
 Variable       Old X    -DE/DX   Delta X   Delta X   Delta X     New X
                                 (Linear)    (Quad)   (Total)
    R1        2.59272   0.02670  -0.05445   0.00000  -0.05431   2.53841
    R2        2.63021   0.02026  -0.02265   0.00000  -0.02293   2.60728
    R3        3.26362  -0.00623  -0.06187   0.00000  -0.06187   3.20174
    R4        2.55545   0.02943  -0.08610   0.00000  -0.08569   2.46977
    R5        2.72358  -0.11146  -0.52127   0.00000  -0.52127   2.20231
    R6        2.56758   0.02871  -0.07580   0.00000  -0.07550   2.49208
    R7        2.71688  -0.11027  -0.52696   0.00000  -0.52696   2.18992
    R8        2.60204   0.01834  -0.04659   0.00000  -0.04673   2.55531
    R9        2.64149   0.01542  -0.01306   0.00000  -0.01347   2.62802
   R10        3.26318  -0.00285  -0.06222   0.00000  -0.06222   3.20096
   R11        3.27231  -0.00777  -0.05446   0.00000  -0.05446   3.21785
    A1        2.07200   0.00080  -0.01908   0.00000  -0.01924   2.05276
    A2        2.09328  -0.00141  -0.00093   0.00000  -0.00085   2.09242
    A3        2.11790   0.00062   0.02002   0.00000   0.02009   2.13800
    A4        2.10630  -0.00299   0.01024   0.00000   0.01074   2.11705
    A5        2.07483  -0.00029  -0.01670   0.00000  -0.01695   2.05788
    A6        2.10205   0.00328   0.00646   0.00000   0.00621   2.10826
    A7        2.14514  -0.00239   0.04330   0.00000   0.04394   2.18908
    A8        2.06744   0.00071  -0.02300   0.00000  -0.02332   2.04412
    A9        2.07061   0.00168  -0.02030   0.00000  -0.02062   2.04999
   A10        2.04667  -0.00075  -0.04054   0.00000  -0.04031   2.00636
   A11        2.12194   0.00377   0.02332   0.00000   0.02280   2.14474
   A12        2.07665  -0.00097  -0.01504   0.00000  -0.01478   2.06187
   A13        2.08460  -0.00280  -0.00829   0.00000  -0.00803   2.07657
   A14        2.07431   0.00156  -0.01724   0.00000  -0.01793   2.05638
   A15        2.09351  -0.00227  -0.00068   0.00000  -0.00033   2.09318
   A16        2.11536   0.00071   0.01791   0.00000   0.01826   2.13362
    D1        0.00000  -0.00000   0.00000   0.00000   0.00000   0.00000
    D2        3.14159  -0.00000   0.00000   0.00000   0.00000   3.14159
    D3        3.14159   0.00000   0.00000   0.00000   0.00000   3.14159
    D4        0.00000   0.00000   0.00000   0.00000   0.00000   0.00000
    D5        0.00000  -0.00000   0.00000   0.00000   0.00000   0.00000
    D6        3.14159   0.00000   0.00000   0.00000   0.00000   3.14159
    D7        3.14159  -0.00000   0.00000   0.00000   0.00000   3.14159
    D8        0.00000   0.00000   0.00000   0.00000   0.00000   0.00000
    D9        0.00000   0.00000   0.00000   0.00000   0.00000   0.00000
   D10        3.14159  -0.00000   0.00000   0.00000   0.00000   3.14159
   D11        3.14159   0.00000   0.00000   0.00000   0.00000   3.14159
   D12        0.00000  -0.00000   0.00000   0.00000   0.00000   0.00000
   D13        0.00000  -0.00000   0.00000   0.00000   0.00000   0.00000
   D14        3.14159   0.00000   0.00000   0.00000   0.00000   3.14159
   D15        0.00000  -0.00000   0.00000   0.00000   0.00000   0.00000
   D16        3.14159  -0.00000   0.00000   0.00000   0.00000   3.14159
   D17        0.00000   0.00000   0.00000   0.00000   0.00000   0.00000
   D18        3.14159  -0.00000   0.00000   0.00000   0.00000   3.14159
   D19        3.14159   0.00000   0.00000   0.00000   0.00000   3.14159
   D20        0.00000  -0.00000   0.00000   0.00000   0.00000   0.00000
         Item               Value     Threshold  Converged?
 Maximum Force            0.111455     0.000450     NO 
 RMS     Force            0.024469     0.000300     NO 
 Maximum Displacement     0.529624     0.001800     NO 
 RMS     Displacement     0.126831     0.001200     NO 
 Predicted change in Energy=-9.173545D-02
 GradGradGradGradGradGradGradGradGradGradGradGradGradGradGradGradGradGrad

                          Input orientation:                          
 ---------------------------------------------------------------------
 Center     Atomic      Atomic             Coordinates (Angstroms)
 Number     Number       Type             X           Y           Z
 ---------------------------------------------------------------------
      1          6           0       -3.152798    0.267414    0.000000
      2          6           0       -1.981602    0.925197    0.000000
      3          6           0       -0.842775    0.283966    0.000000
      4          6           0       -0.703949   -1.027459    0.000000
      5          6           0       -1.863039   -1.723870    0.000000
      6          6           0       -3.111740   -1.111688    0.000000
      7         17           0       -4.561512   -2.004843    0.000000
      8         17           0       -4.608231    1.134785    0.000000
      9         17           0       -1.778459   -3.415632    0.000000
     10          1           0       -2.010328    2.090254    0.000000
     11          1           0        0.123593    0.923556    0.000000
 ---------------------------------------------------------------------
                    Distance matrix (angstroms):
                    1          2          3          4          5
     1  C    0.000000
     2  C    1.343271   0.000000
     3  C    2.310082   1.306944   0.000000
     4  C    2.770119   2.333508   1.318753   0.000000
     5  C    2.372486   2.651719   2.252187   1.352213   0.000000
     6  C    1.379713   2.329402   2.663842   2.409264   1.390691
     7  Cl   2.673505   3.903981   4.366652   3.979456   2.713061
     8  Cl   1.694290   2.634978   3.860382   4.463039   3.963330
     9  Cl   3.931112   4.345580   3.816089   2.618768   1.693875
    10  H    2.151274   1.165411   2.150780   3.380349   3.816968
    11  H    3.341445   2.105195   1.158853   2.119265   3.309920
                    6          7          8          9         10
     6  C    0.000000
     7  Cl   1.702811   0.000000
     8  Cl   2.699283   3.139975   0.000000
     9  Cl   2.661916   3.120211   5.358536   0.000000
    10  H    3.386081   4.824765   2.768035   5.510767   0.000000
    11  H    3.822250   5.525009   4.736536   4.737758   2.432037
                   11
    11  H    0.000000
 Stoichiometry    C6H2Cl3(1-)
 Framework group  CS[SG(C6H2Cl3)]
 Deg. of freedom    19
 Full point group                 CS      NOp   2
 Largest Abelian subgroup         CS      NOp   2
 Largest concise Abelian subgroup C1      NOp   1
                         Standard orientation:                         
 ---------------------------------------------------------------------
 Center     Atomic      Atomic             Coordinates (Angstroms)
 Number     Number       Type             X           Y           Z
 ---------------------------------------------------------------------
      1          6           0        1.113848   -0.543729    0.000000
      2          6           0        0.914098   -1.872065    0.000000
      3          6           0       -0.291204   -2.377388    0.000000
      4          6           0       -1.411649   -1.681894    0.000000
      5          6           0       -1.249823   -0.339399    0.000000
      6          6           0        0.000000    0.270489    0.000000
      7         17           0        0.184969    1.963224    0.000000
      8         17           0        2.692026    0.072691    0.000000
      9         17           0       -2.637199    0.632403    0.000000
     10          1           0        1.851412   -2.564615    0.000000
     11          1           0       -0.379573   -3.532867    0.000000
 ---------------------------------------------------------------------
 Rotational constants (GHZ):           1.6079965           0.8818649           0.5695239
 Standard basis: VSTO-6G (5D, 7F)
 There are    29 symmetry adapted cartesian basis functions of A'  symmetry.
 There are     9 symmetry adapted cartesian basis functions of A"  symmetry.
 There are    29 symmetry adapted basis functions of A'  symmetry.
 There are     9 symmetry adapted basis functions of A"  symmetry.
    38 basis functions,   228 primitive gaussians,    38 cartesian basis functions
    24 alpha electrons       24 beta electrons
       nuclear repulsion energy       249.7097818832 Hartrees.
 Integral buffers will be    131072 words long.
 Regular integral format.
 Two-electron integral symmetry is turned off.
 Do NDO integrals.
 One-electron integrals computed using PRISM.
 NBasis=    38 RedAO= T EigKep=  1.00D+00  NBF=    29     9
 NBsUse=    38 1.00D-06 EigRej= -1.00D+00 NBFU=    29     9
 Initial guess from the checkpoint file:  "geometry_chks/12_4ClBzAnionIntermediate.chk"
 B after Tr=     0.000000    0.000000    0.000000
         Rot=    0.999993   -0.000000   -0.000000   -0.003722 Ang=  -0.43 deg.
 Initial guess orbital symmetries:
       Occupied  (A') (A') (A') (A') (A') (A') (A') (A') (A') (A')
                 (A') (A") (A') (A") (A') (A") (A') (A') (A") (A')
                 (A') (A") (A") (A')
       Virtual   (A") (A') (A") (A') (A') (A') (A') (A") (A') (A')
                 (A') (A') (A') (A')
 Keep J ints in memory in canonical form, NReq=863588.
 Overlap will be assumed to be unity.
 Requested convergence on RMS density matrix=1.00D-08 within**** cycles.
 Requested convergence on MAX density matrix=1.00D-06.
 Requested convergence on             energy=1.00D-06.
 No special actions if energy rises.
 Fock symm off for IB=2 I1=    1 I=   30 J=    1 Cut=1.00D-07 Err=6.11D-03
 Fock matrix is not symmetric: symmetry in diagonalization turned off.
 SCF Done:  E(RAM1) =  0.620908427167E-01 A.U. after   14 cycles
            NFock= 13  Conv=0.58D-08     -V/T= 1.0005
 Calling FoFJK, ICntrl=      2127 FMM=F ISym2X=1 I1Cent= 0 IOpClX= 0 NMat=1 NMatS=1 NMatT=0.
 ***** Axes restored to original set *****
 -------------------------------------------------------------------
 Center     Atomic                   Forces (Hartrees/Bohr)
 Number     Number              X              Y              Z
 -------------------------------------------------------------------
      1        6          -0.061438413   -0.010676188    0.000000000
      2        6          -0.042659330    0.146760729    0.000000000
      3        6           0.148180414    0.070167633   -0.000000000
      4        6           0.040684390   -0.071599042   -0.000000000
      5        6          -0.019174513   -0.041842264    0.000000000
      6        6          -0.023346505   -0.026154196    0.000000000
      7       17          -0.007315273   -0.005117077   -0.000000000
      8       17          -0.014735457    0.006649923    0.000000000
      9       17          -0.000866006   -0.022604984   -0.000000000
     10        1           0.001433112   -0.031585405   -0.000000000
     11        1          -0.020762420   -0.013999130   -0.000000000
 -------------------------------------------------------------------
 Cartesian Forces:  Max     0.148180414 RMS     0.044970305

 GradGradGradGradGradGradGradGradGradGradGradGradGradGradGradGradGradGrad
 Berny optimization.
 Using GEDIIS/GDIIS optimizer.
 FormGI is forming the generalized inverse of G from B-inverse, IUseBI=4.
 Internal  Forces:  Max     0.127217069 RMS     0.033004713
 Search for a local minimum.
 Step number   4 out of a maximum of   57
 All quantities printed in internal units (Hartrees-Bohrs-Radians)
 Mixed Optimization -- RFO/linear search
 Update second derivatives using D2CorX and points    3    4
 ITU=  0  0  1  0
 Use linear search instead of GDIIS.
     Eigenvalues ---    0.02011   0.02011   0.02011   0.02011   0.02011
     Eigenvalues ---    0.02011   0.02011   0.02011   0.06518   0.11246
     Eigenvalues ---    0.15996   0.16001   0.22395   0.24634   0.24946
     Eigenvalues ---    0.25000   0.25000   0.25022   0.28334   0.29033
     Eigenvalues ---    0.29058   0.41081   0.41514   0.44642   0.44656
     Eigenvalues ---    0.44657   0.61296
 RFO step:  Lambda=-9.80416020D-02 EMin= 2.01067751D-02
 Quartic linear search produced a step of -0.03346.
 Maximum step size (   0.505) exceeded in Quadratic search.
    -- Step size scaled by   0.962
 Iteration  1 RMS(Cart)=  0.06412755 RMS(Int)=  0.00763052
 Iteration  2 RMS(Cart)=  0.00681680 RMS(Int)=  0.00059010
 Iteration  3 RMS(Cart)=  0.00001807 RMS(Int)=  0.00058994
 Iteration  4 RMS(Cart)=  0.00000000 RMS(Int)=  0.00058994
 ClnCor:  largest displacement from symmetrization is 8.08D-09 for atom     9.
 Variable       Old X    -DE/DX   Delta X   Delta X   Delta X     New X
                                 (Linear)    (Quad)   (Total)
    R1        2.53841   0.09357   0.00182   0.14872   0.15094   2.68935
    R2        2.60728   0.05595   0.00077   0.08526   0.08545   2.69273
    R3        3.20174   0.01606   0.00207   0.03448   0.03655   3.23830
    R4        2.46977   0.12722   0.00287   0.20292   0.20676   2.67653
    R5        2.20231  -0.03161   0.01744  -0.26498  -0.24753   1.95477
    R6        2.49208   0.10948   0.00253   0.17510   0.17822   2.67030
    R7        2.18992  -0.02504   0.01763  -0.23275  -0.21512   1.97480
    R8        2.55531   0.06612   0.00156   0.10232   0.10347   2.65879
    R9        2.62802   0.04063   0.00045   0.05910   0.05859   2.68661
   R10        3.20096   0.02253   0.00208   0.04891   0.05099   3.25195
   R11        3.21785   0.00891   0.00182   0.01895   0.02077   3.23862
    A1        2.05276   0.01223   0.00064   0.02808   0.02852   2.08128
    A2        2.09242  -0.00318   0.00003  -0.00722  -0.00709   2.08533
    A3        2.13800  -0.00904  -0.00067  -0.02086  -0.02143   2.11657
    A4        2.11705  -0.01662  -0.00036  -0.02873  -0.02770   2.08935
    A5        2.05788   0.00903   0.00057   0.01600   0.01587   2.07375
    A6        2.10826   0.00759  -0.00021   0.01273   0.01182   2.12009
    A7        2.18908  -0.02953  -0.00147  -0.06050  -0.06042   2.12866
    A8        2.04412   0.01500   0.00078   0.03067   0.03067   2.07479
    A9        2.04999   0.01453   0.00069   0.02983   0.02974   2.07973
   A10        2.00636   0.01623   0.00135   0.04348   0.04509   2.05145
   A11        2.14474   0.00149  -0.00076  -0.00730  -0.00946   2.13529
   A12        2.06187   0.00245   0.00049   0.01147   0.01266   2.07452
   A13        2.07657  -0.00393   0.00027  -0.00416  -0.00320   2.07337
   A14        2.05638   0.01621   0.00060   0.02497   0.02396   2.08034
   A15        2.09318  -0.00727   0.00001  -0.01063  -0.00981   2.08337
   A16        2.13362  -0.00894  -0.00061  -0.01435  -0.01415   2.11947
    D1        0.00000  -0.00000   0.00000  -0.00000   0.00000   0.00000
    D2        3.14159  -0.00000   0.00000  -0.00000   0.00000   3.14159
    D3        3.14159   0.00000   0.00000   0.00000   0.00000   3.14159
    D4        0.00000  -0.00000   0.00000   0.00000   0.00000   0.00000
    D5        0.00000   0.00000   0.00000   0.00000   0.00000   0.00000
    D6        3.14159   0.00000   0.00000   0.00000   0.00000   3.14159
    D7        3.14159  -0.00000   0.00000  -0.00000   0.00000   3.14159
    D8        0.00000   0.00000   0.00000   0.00000   0.00000   0.00000
    D9        0.00000  -0.00000   0.00000  -0.00000   0.00000   0.00000
   D10        3.14159  -0.00000   0.00000  -0.00000   0.00000   3.14159
   D11        3.14159   0.00000   0.00000   0.00000   0.00000   3.14159
   D12        0.00000   0.00000   0.00000   0.00000   0.00000   0.00000
   D13        0.00000   0.00000   0.00000   0.00000   0.00000   0.00000
   D14        3.14159   0.00000   0.00000   0.00000   0.00000   3.14159
   D15        0.00000  -0.00000   0.00000  -0.00000   0.00000   0.00000
   D16        3.14159  -0.00000   0.00000  -0.00000   0.00000   3.14159
   D17        0.00000  -0.00000   0.00000  -0.00000   0.00000   0.00000
   D18        3.14159  -0.00000   0.00000  -0.00000   0.00000   3.14159
   D19        3.14159   0.00000   0.00000   0.00000   0.00000   3.14159
   D20        0.00000  -0.00000   0.00000  -0.00000   0.00000   0.00000
         Item               Value     Threshold  Converged?
 Maximum Force            0.127217     0.000450     NO 
 RMS     Force            0.033005     0.000300     NO 
 Maximum Displacement     0.216755     0.001800     NO 
 RMS     Displacement     0.064121     0.001200     NO 
 Predicted change in Energy=-6.074165D-02
 GradGradGradGradGradGradGradGradGradGradGradGradGradGradGradGradGradGrad

                          Input orientation:                          
 ---------------------------------------------------------------------
 Center     Atomic      Atomic             Coordinates (Angstroms)
 Number     Number       Type             X           Y           Z
 ---------------------------------------------------------------------
      1          6           0       -3.186417    0.296392    0.000000
      2          6           0       -1.972937    1.039899    0.000000
      3          6           0       -0.731691    0.357710    0.000000
      4          6           0       -0.653545   -1.053190    0.000000
      5          6           0       -1.863208   -1.771713    0.000000
      6          6           0       -3.130538   -1.127441    0.000000
      7         17           0       -4.589982   -2.025855    0.000000
      8         17           0       -4.684858    1.127782    0.000000
      9         17           0       -1.807707   -3.491677    0.000000
     10          1           0       -2.021286    2.073190    0.000000
     11          1           0        0.151329    0.916583    0.000000
 ---------------------------------------------------------------------
                    Distance matrix (angstroms):
                    1          2          3          4          5
     1  C    0.000000
     2  C    1.423143   0.000000
     3  C    2.455491   1.416359   0.000000
     4  C    2.869985   2.474230   1.413062   0.000000
     5  C    2.455186   2.813752   2.411384   1.406969   0.000000
     6  C    1.424930   2.457113   2.821372   2.478106   1.421693
     7  Cl   2.713453   4.030852   4.535172   4.054826   2.738592
     8  Cl   1.713632   2.713345   4.027473   4.583462   4.045835
     9  Cl   4.031168   4.534587   3.996948   2.697835   1.720860
    10  H    2.124745   1.034422   2.146141   3.412472   3.848151
    11  H    3.394876   2.127843   1.045019   2.127869   3.359360
                    6          7          8          9         10
     6  C    0.000000
     7  Cl   1.713804   0.000000
     8  Cl   2.738968   3.155063   0.000000
     9  Cl   2.709150   3.144788   5.442188   0.000000
    10  H    3.387400   4.837392   2.826379   5.568964   0.000000
    11  H    3.866353   5.580141   4.840797   4.823959   2.461299
                   11
    11  H    0.000000
 Stoichiometry    C6H2Cl3(1-)
 Framework group  CS[SG(C6H2Cl3)]
 Deg. of freedom    19
 Full point group                 CS      NOp   2
 Largest Abelian subgroup         CS      NOp   2
 Largest concise Abelian subgroup C1      NOp   1
                         Standard orientation:                         
 ---------------------------------------------------------------------
 Center     Atomic      Atomic             Coordinates (Angstroms)
 Number     Number       Type             X           Y           Z
 ---------------------------------------------------------------------
      1          6           0        1.150391   -0.566756    0.000000
      2          6           0        0.979039   -1.979545    0.000000
      3          6           0       -0.326694   -2.528301    0.000000
      4          6           0       -1.480785   -1.712937    0.000000
      5          6           0       -1.292229   -0.318660    0.000000
      6          6           0        0.000000    0.274093    0.000000
      7         17           0        0.202790    1.975857    0.000000
      8         17           0        2.732830    0.090831    0.000000
      9         17           0       -2.674424    0.706472    0.000000
     10          1           0        1.818734   -2.583649    0.000000
     11          1           0       -0.437402   -3.567439    0.000000
 ---------------------------------------------------------------------
 Rotational constants (GHZ):           1.5120065           0.8489457           0.5436838
 Standard basis: VSTO-6G (5D, 7F)
 There are    29 symmetry adapted cartesian basis functions of A'  symmetry.
 There are     9 symmetry adapted cartesian basis functions of A"  symmetry.
 There are    29 symmetry adapted basis functions of A'  symmetry.
 There are     9 symmetry adapted basis functions of A"  symmetry.
    38 basis functions,   228 primitive gaussians,    38 cartesian basis functions
    24 alpha electrons       24 beta electrons
       nuclear repulsion energy       245.7268694925 Hartrees.
 Integral buffers will be    131072 words long.
 Regular integral format.
 Two-electron integral symmetry is turned off.
 Do NDO integrals.
 One-electron integrals computed using PRISM.
 NBasis=    38 RedAO= T EigKep=  1.00D+00  NBF=    29     9
 NBsUse=    38 1.00D-06 EigRej= -1.00D+00 NBFU=    29     9
 Initial guess from the checkpoint file:  "geometry_chks/12_4ClBzAnionIntermediate.chk"
 B after Tr=    -0.000000   -0.000000    0.000000
         Rot=    0.999991    0.000000    0.000000    0.004185 Ang=   0.48 deg.
 Initial guess orbital symmetries:
       Occupied  (A') (A') (A') (A') (A') (A') (A') (A') (A') (A')
                 (A') (A") (A') (A') (A") (A") (A') (A') (A") (A')
                 (A') (A") (A") (A')
       Virtual   (A") (A') (A") (A') (A') (A') (A") (A') (A') (A')
                 (A') (A') (A') (A')
 Keep J ints in memory in canonical form, NReq=863588.
 Overlap will be assumed to be unity.
 Requested convergence on RMS density matrix=1.00D-08 within**** cycles.
 Requested convergence on MAX density matrix=1.00D-06.
 Requested convergence on             energy=1.00D-06.
 No special actions if energy rises.
 Fock symm off for IB=2 I1=    1 I=   30 J=   23 Cut=1.00D-07 Err=2.02D-03
 Fock matrix is not symmetric: symmetry in diagonalization turned off.
 SCF Done:  E(RAM1) =  0.375365042357E-01 A.U. after   14 cycles
            NFock= 13  Conv=0.84D-08     -V/T= 1.0003
 Calling FoFJK, ICntrl=      2127 FMM=F ISym2X=1 I1Cent= 0 IOpClX= 0 NMat=1 NMatS=1 NMatT=0.
 ***** Axes restored to original set *****
 -------------------------------------------------------------------
 Center     Atomic                   Forces (Hartrees/Bohr)
 Number     Number              X              Y              Z
 -------------------------------------------------------------------
      1        6           0.028620197   -0.018619971    0.000000000
      2        6          -0.000934000   -0.071809535   -0.000000000
      3        6          -0.057163331   -0.032661743    0.000000000
      4        6          -0.020179933    0.009638840    0.000000000
      5        6          -0.002889865    0.025117335    0.000000000
      6        6           0.016540371    0.015061700   -0.000000000
      7       17           0.000915748    0.001052795   -0.000000000
      8       17           0.002940557   -0.001121976   -0.000000000
      9       17           0.000145279    0.003115239   -0.000000000
     10        1          -0.001472894    0.049111947   -0.000000000
     11        1           0.033477871    0.021115370   -0.000000000
 -------------------------------------------------------------------
 Cartesian Forces:  Max     0.071809535 RMS     0.022224680

 GradGradGradGradGradGradGradGradGradGradGradGradGradGradGradGradGradGrad
 Berny optimization.
 Using GEDIIS/GDIIS optimizer.
 FormGI is forming the generalized inverse of G from B-inverse, IUseBI=4.
 Internal  Forces:  Max     0.049127115 RMS     0.013342553
 Search for a local minimum.
 Step number   5 out of a maximum of   57
 All quantities printed in internal units (Hartrees-Bohrs-Radians)
 Mixed Optimization -- RFO/linear search
 Update second derivatives using D2CorX and points    4    5
 DE= -2.46D-02 DEPred=-6.07D-02 R= 4.04D-01
 Trust test= 4.04D-01 RLast= 4.92D-01 DXMaxT set to 5.05D-01
 ITU=  0  0  0  1  0
 Use linear search instead of GDIIS.
     Eigenvalues ---    0.02011   0.02011   0.02011   0.02011   0.02011
     Eigenvalues ---    0.02011   0.02011   0.02011   0.06539   0.15993
     Eigenvalues ---    0.15999   0.19388   0.22446   0.24476   0.24975
     Eigenvalues ---    0.24999   0.25001   0.25043   0.28424   0.29032
     Eigenvalues ---    0.29058   0.40775   0.41554   0.44648   0.44657
     Eigenvalues ---    0.44671   0.73154
 RFO step:  Lambda=-8.87421800D-03 EMin= 2.01067598D-02
 Quartic linear search produced a step of -0.32351.
 Iteration  1 RMS(Cart)=  0.03325839 RMS(Int)=  0.00551075
 Iteration  2 RMS(Cart)=  0.00522736 RMS(Int)=  0.00018976
 Iteration  3 RMS(Cart)=  0.00000031 RMS(Int)=  0.00018976
 ClnCor:  largest displacement from symmetrization is 2.39D-10 for atom     7.
 Variable       Old X    -DE/DX   Delta X   Delta X   Delta X     New X
                                 (Linear)    (Quad)   (Total)
    R1        2.68935  -0.02819  -0.04883   0.02324  -0.02569   2.66366
    R2        2.69273  -0.03069  -0.02764  -0.00872  -0.03616   2.65657
    R3        3.23830  -0.00312  -0.01182   0.01149  -0.00033   3.23797
    R4        2.67653  -0.02682  -0.06689   0.04906  -0.01814   2.65839
    R5        1.95477   0.04913   0.08008   0.15767   0.23775   2.19252
    R6        2.67030  -0.02345  -0.05766   0.04380  -0.01406   2.65624
    R7        1.97480   0.03958   0.06959   0.08269   0.15228   2.12708
    R8        2.65879  -0.02410  -0.03347   0.01080  -0.02256   2.63622
    R9        2.68661  -0.02664  -0.01895  -0.01435  -0.03299   2.65361
   R10        3.25195  -0.00311  -0.01650   0.01790   0.00140   3.25336
   R11        3.23862  -0.00133  -0.00672   0.00862   0.00190   3.24052
    A1        2.08128   0.00505  -0.00923   0.02465   0.01553   2.09681
    A2        2.08533  -0.00325   0.00229  -0.01093  -0.00869   2.07665
    A3        2.11657  -0.00180   0.00693  -0.01372  -0.00684   2.10973
    A4        2.08935  -0.00224   0.00896  -0.01757  -0.00903   2.08031
    A5        2.07375   0.00193  -0.00514   0.01267   0.00775   2.08150
    A6        2.12009   0.00032  -0.00383   0.00490   0.00129   2.12138
    A7        2.12866   0.00036   0.01954  -0.02397  -0.00494   2.12373
    A8        2.07479  -0.00012  -0.00992   0.01199   0.00232   2.07711
    A9        2.07973  -0.00024  -0.00962   0.01198   0.00261   2.08234
   A10        2.05145  -0.00189  -0.01459   0.01640   0.00168   2.05313
   A11        2.13529   0.00161   0.00306  -0.00126   0.00223   2.13751
   A12        2.07452  -0.00121  -0.00409   0.00318  -0.00113   2.07340
   A13        2.07337  -0.00041   0.00103  -0.00192  -0.00110   2.07227
   A14        2.08034  -0.00288  -0.00775   0.00176  -0.00546   2.07488
   A15        2.08337   0.00077   0.00317  -0.00133   0.00158   2.08495
   A16        2.11947   0.00212   0.00458  -0.00043   0.00388   2.12336
    D1        0.00000  -0.00000   0.00000  -0.00000   0.00000   0.00000
    D2        3.14159  -0.00000   0.00000  -0.00000   0.00000   3.14159
    D3        3.14159  -0.00000   0.00000   0.00000   0.00000   3.14159
    D4        0.00000  -0.00000   0.00000  -0.00000   0.00000   0.00000
    D5        0.00000   0.00000   0.00000   0.00000   0.00000   0.00000
    D6        3.14159   0.00000   0.00000   0.00000   0.00000   3.14159
    D7        3.14159  -0.00000   0.00000  -0.00000   0.00000   3.14159
    D8        0.00000   0.00000   0.00000   0.00000   0.00000   0.00000
    D9        0.00000   0.00000   0.00000   0.00000   0.00000   0.00000
   D10        3.14159  -0.00000   0.00000  -0.00000   0.00000   3.14159
   D11        3.14159   0.00000   0.00000   0.00000   0.00000   3.14159
   D12        0.00000  -0.00000   0.00000  -0.00000   0.00000   0.00000
   D13        0.00000  -0.00000   0.00000  -0.00000   0.00000   0.00000
   D14        3.14159   0.00000   0.00000   0.00000   0.00000   3.14159
   D15        0.00000  -0.00000   0.00000  -0.00000   0.00000   0.00000
   D16        3.14159  -0.00000   0.00000  -0.00000   0.00000   3.14159
   D17        0.00000  -0.00000   0.00000  -0.00000   0.00000   0.00000
   D18        3.14159  -0.00000   0.00000  -0.00000   0.00000   3.14159
   D19        3.14159   0.00000   0.00000   0.00000   0.00000   3.14159
   D20        0.00000   0.00000   0.00000   0.00000   0.00000   0.00000
         Item               Value     Threshold  Converged?
 Maximum Force            0.049127     0.000450     NO 
 RMS     Force            0.013343     0.000300     NO 
 Maximum Displacement     0.193002     0.001800     NO 
 RMS     Displacement     0.037275     0.001200     NO 
 Predicted change in Energy=-1.066515D-02
 GradGradGradGradGradGradGradGradGradGradGradGradGradGradGradGradGradGrad

                          Input orientation:                          
 ---------------------------------------------------------------------
 Center     Atomic      Atomic             Coordinates (Angstroms)
 Number     Number       Type             X           Y           Z
 ---------------------------------------------------------------------
      1          6           0       -3.173569    0.268927    0.000000
      2          6           0       -1.978561    1.016442    0.000000
      3          6           0       -0.745566    0.339168    0.000000
      4          6           0       -0.674426   -1.064654    0.000000
      5          6           0       -1.875969   -1.773456    0.000000
      6          6           0       -3.127229   -1.136105    0.000000
      7         17           0       -4.591718   -2.028206    0.000000
      8         17           0       -4.672345    1.099354    0.000000
      9         17           0       -1.823701   -3.494264    0.000000
     10          1           0       -2.034557    2.175322    0.000000
     11          1           0        0.206801    0.939151    0.000000
 ---------------------------------------------------------------------
                    Distance matrix (angstroms):
                    1          2          3          4          5
     1  C    0.000000
     2  C    1.409547   0.000000
     3  C    2.429019   1.406761   0.000000
     4  C    2.832694   2.455957   1.405623   0.000000
     5  C    2.419730   2.791783   2.396036   1.395029   0.000000
     6  C    1.405796   2.439855   2.801562   2.453844   1.404233
     7  Cl   2.699624   4.012290   4.516342   4.034057   2.727672
     8  Cl   1.713458   2.695059   3.999684   4.546019   4.009084
     9  Cl   3.997968   4.513363   3.982157   2.687720   1.721601
    10  H    2.220741   1.160232   2.243426   3.513887   3.951961
    11  H    3.446172   2.186728   1.125603   2.189017   3.419966
                    6          7          8          9         10
     6  C    0.000000
     7  Cl   1.714810   0.000000
     8  Cl   2.717473   3.128599   0.000000
     9  Cl   2.694457   3.132291   5.405191   0.000000
    10  H    3.487044   4.920236   2.848795   5.673505   0.000000
    11  H    3.927142   5.641897   4.881775   4.876280   2.559649
                   11
    11  H    0.000000
 Stoichiometry    C6H2Cl3(1-)
 Framework group  CS[SG(C6H2Cl3)]
 Deg. of freedom    19
 Full point group                 CS      NOp   2
 Largest Abelian subgroup         CS      NOp   2
 Largest concise Abelian subgroup C1      NOp   1
                         Standard orientation:                         
 ---------------------------------------------------------------------
 Center     Atomic      Atomic             Coordinates (Angstroms)
 Number     Number       Type             X           Y           Z
 ---------------------------------------------------------------------
      1          6           0        1.123457   -0.577436    0.000000
      2          6           0        0.956275   -1.977033    0.000000
      3          6           0       -0.344515   -2.512686    0.000000
      4          6           0       -1.482582   -1.687714    0.000000
      5          6           0       -1.281148   -0.307305    0.000000
      6          6           0       -0.000000    0.267612    0.000000
      7         17           0        0.223563    1.967787    0.000000
      8         17           0        2.710219    0.069189    0.000000
      9         17           0       -2.654284    0.731160    0.000000
     10          1           0        1.894057   -2.660190    0.000000
     11          1           0       -0.474442   -3.630765    0.000000
 ---------------------------------------------------------------------
 Rotational constants (GHZ):           1.5208020           0.8606747           0.5496236
 Standard basis: VSTO-6G (5D, 7F)
 There are    29 symmetry adapted cartesian basis functions of A'  symmetry.
 There are     9 symmetry adapted cartesian basis functions of A"  symmetry.
 There are    29 symmetry adapted basis functions of A'  symmetry.
 There are     9 symmetry adapted basis functions of A"  symmetry.
    38 basis functions,   228 primitive gaussians,    38 cartesian basis functions
    24 alpha electrons       24 beta electrons
       nuclear repulsion energy       246.1458082737 Hartrees.
 Integral buffers will be    131072 words long.
 Regular integral format.
 Two-electron integral symmetry is turned off.
 Do NDO integrals.
 One-electron integrals computed using PRISM.
 NBasis=    38 RedAO= T EigKep=  1.00D+00  NBF=    29     9
 NBsUse=    38 1.00D-06 EigRej= -1.00D+00 NBFU=    29     9
 Initial guess from the checkpoint file:  "geometry_chks/12_4ClBzAnionIntermediate.chk"
 B after Tr=     0.000000    0.000000    0.000000
         Rot=    0.999990    0.000000    0.000000    0.004453 Ang=   0.51 deg.
 Initial guess orbital symmetries:
       Occupied  (A') (A') (A') (A') (A') (A') (A') (A') (A') (A')
[...]
 ***** Axes restored to original set *****
 -------------------------------------------------------------------
 Center     Atomic                   Forces (Hartrees/Bohr)
 Number     Number              X              Y              Z
 -------------------------------------------------------------------
      1        6          -0.000012262   -0.000065373    0.000000000
      2        6           0.000002515    0.000013033    0.000000000
      3        6           0.000075323   -0.000064100    0.000000000
      4        6          -0.000059607    0.000034194    0.000000000
      5        6           0.000113357   -0.000031099    0.000000000
      6        6          -0.000119976    0.000002041    0.000000000
      7       17           0.000047442    0.000029224   -0.000000000
      8       17          -0.000039214    0.000008217   -0.000000000
      9       17          -0.000023011    0.000013584   -0.000000000
     10        1          -0.000003930    0.000044590   -0.000000000
     11        1           0.000019362    0.000015690   -0.000000000
 -------------------------------------------------------------------
 Cartesian Forces:  Max     0.000119976 RMS     0.000040962

 GradGradGradGradGradGradGradGradGradGradGradGradGradGradGradGradGradGrad
 Berny optimization.
 Using GEDIIS/GDIIS optimizer.
 FormGI is forming the generalized inverse of G from B-inverse, IUseBI=4.
 Internal  Forces:  Max     0.000071645 RMS     0.000024351
 Search for a local minimum.
 Step number  11 out of a maximum of   57
 All quantities printed in internal units (Hartrees-Bohrs-Radians)
 Mixed Optimization -- En-DIIS/RFO-DIIS
 Swapping is turned off.
 Update second derivatives using D2CorX and points    4    5    6    8    7
                                                      9   10   11
 DE= -2.24D-06 DEPred=-2.27D-06 R= 9.87D-01
 TightC=F SS=  1.41D+00  RLast= 2.95D-03 DXNew= 4.2426D-01 8.8366D-03
 Trust test= 9.87D-01 RLast= 2.95D-03 DXMaxT set to 2.52D-01
 ITU=  1  1  1 -1  1  0  0  0  0  1  0
     Eigenvalues ---    0.02011   0.02011   0.02011   0.02011   0.02011
     Eigenvalues ---    0.02011   0.02011   0.02011   0.15763   0.15984
     Eigenvalues ---    0.19571   0.22106   0.24713   0.24960   0.25015
     Eigenvalues ---    0.25256   0.27827   0.28632   0.29122   0.32418
     Eigenvalues ---    0.34463   0.42168   0.43519   0.44655   0.45977
     Eigenvalues ---    0.59107   0.78473
 En-DIIS/RFO-DIIS/Sim-DIIS IScMMF=       -3 using points:    11   10    9
 RFO step:  Lambda=-6.79332717D-08.
 Use linear search instead of GDIIS.
 RFO step:  Lambda=-7.34347569D-08 EMin= 2.01067596D-02
 Quartic linear search produced a step of -0.01215.
 Iteration  1 RMS(Cart)=  0.00007992 RMS(Int)=  0.00000000
 Iteration  2 RMS(Cart)=  0.00000000 RMS(Int)=  0.00000000
 ClnCor:  largest displacement from symmetrization is 3.15D-13 for atom     7.
 Variable       Old X    -DE/DX   Delta X   Delta X   Delta X     New X
                                 (Linear)    (Quad)   (Total)
    R1        2.64569   0.00007   0.00000   0.00012   0.00012   2.64581
    R2        2.64962  -0.00002  -0.00002  -0.00004  -0.00006   2.64956
    R3        3.24481   0.00004  -0.00001   0.00015   0.00015   3.24495
    R4        2.63367   0.00007   0.00001   0.00010   0.00011   2.63378
    R5        2.07673   0.00004   0.00001   0.00008   0.00009   2.07682
    R6        2.63070  -0.00003   0.00001  -0.00011  -0.00010   2.63060
    R7        2.07698   0.00002  -0.00001   0.00008   0.00007   2.07705
    R8        2.61971  -0.00002   0.00000  -0.00008  -0.00008   2.61962
    R9        2.65343   0.00006  -0.00002   0.00015   0.00014   2.65356
   R10        3.25370  -0.00001  -0.00000  -0.00004  -0.00005   3.25366
   R11        3.23916  -0.00006  -0.00001  -0.00018  -0.00019   3.23897
    A1        2.10046  -0.00000   0.00000   0.00002   0.00003   2.10049
    A2        2.06962   0.00002   0.00000   0.00005   0.00005   2.06967
    A3        2.11310  -0.00002  -0.00001  -0.00007  -0.00008   2.11303
    A4        2.08226  -0.00000  -0.00000   0.00001   0.00001   2.08227
    A5        2.08410   0.00000   0.00000  -0.00002  -0.00001   2.08409
    A6        2.11683   0.00000   0.00000   0.00000   0.00000   2.11683
    A7        2.12541  -0.00003  -0.00000  -0.00010  -0.00010   2.12531
    A8        2.07743   0.00001   0.00000   0.00002   0.00003   2.07746
    A9        2.08034   0.00002   0.00000   0.00007   0.00007   2.08042
   A10        2.05731   0.00003  -0.00000   0.00013   0.00013   2.05744
   A11        2.13686   0.00000   0.00000  -0.00000  -0.00000   2.13686
   A12        2.07191   0.00003   0.00000   0.00015   0.00015   2.07205
   A13        2.07442  -0.00004  -0.00000  -0.00014  -0.00014   2.07427
   A14        2.06407  -0.00001   0.00001  -0.00007  -0.00006   2.06400
   A15        2.09055   0.00000  -0.00000   0.00004   0.00003   2.09058
   A16        2.12857   0.00000  -0.00000   0.00003   0.00003   2.12860
    D1        0.00000  -0.00000   0.00000  -0.00000   0.00000   0.00000
    D2        3.14159  -0.00000   0.00000  -0.00000   0.00000   3.14159
    D3        3.14159   0.00000   0.00000   0.00000   0.00000   3.14159
    D4        0.00000  -0.00000   0.00000  -0.00000   0.00000   0.00000
    D5        0.00000   0.00000   0.00000   0.00000   0.00000   0.00000
    D6        3.14159   0.00000   0.00000   0.00000   0.00000   3.14159
    D7        3.14159  -0.00000   0.00000  -0.00000   0.00000   3.14159
    D8        0.00000   0.00000   0.00000   0.00000   0.00000   0.00000
    D9        0.00000   0.00000   0.00000   0.00000   0.00000   0.00000
   D10        3.14159  -0.00000   0.00000  -0.00000   0.00000   3.14159
   D11        3.14159   0.00000   0.00000   0.00000   0.00000   3.14159
   D12        0.00000  -0.00000   0.00000  -0.00000   0.00000   0.00000
   D13        0.00000  -0.00000   0.00000  -0.00000   0.00000   0.00000
   D14        3.14159   0.00000   0.00000   0.00000   0.00000   3.14159
   D15        0.00000  -0.00000   0.00000  -0.00000   0.00000   0.00000
   D16        3.14159  -0.00000   0.00000  -0.00000   0.00000   3.14159
   D17        0.00000  -0.00000   0.00000  -0.00000   0.00000   0.00000
   D18        3.14159  -0.00000   0.00000  -0.00000   0.00000   3.14159
   D19        3.14159   0.00000   0.00000   0.00000   0.00000   3.14159
   D20        0.00000   0.00000   0.00000   0.00000   0.00000   0.00000
         Item               Value     Threshold  Converged?
 Maximum Force            0.000072     0.000450     YES
 RMS     Force            0.000024     0.000300     YES
 Maximum Displacement     0.000258     0.001800     YES
 RMS     Displacement     0.000080     0.001200     YES
 Predicted change in Energy=-3.705637D-08
 Optimization completed.
    -- Stationary point found.
                           ----------------------------
                           !   Optimized Parameters   !
                           ! (Angstroms and Degrees)  !
 --------------------------                            --------------------------
 ! Name  Definition              Value          Derivative Info.                !
 --------------------------------------------------------------------------------
 ! R1    R(1,2)                  1.4            -DE/DX =    0.0001              !
 ! R2    R(1,6)                  1.4021         -DE/DX =    0.0                 !
 ! R3    R(1,8)                  1.7171         -DE/DX =    0.0                 !
 ! R4    R(2,3)                  1.3937         -DE/DX =    0.0001              !
 ! R5    R(2,10)                 1.099          -DE/DX =    0.0                 !
 ! R6    R(3,4)                  1.3921         -DE/DX =    0.0                 !
 ! R7    R(3,11)                 1.0991         -DE/DX =    0.0                 !
 ! R8    R(4,5)                  1.3863         -DE/DX =    0.0                 !
 ! R9    R(5,6)                  1.4041         -DE/DX =    0.0001              !
 ! R10   R(5,9)                  1.7218         -DE/DX =    0.0                 !
 ! R11   R(6,7)                  1.7141         -DE/DX =   -0.0001              !
 ! A1    A(2,1,6)              120.3477         -DE/DX =    0.0                 !
 ! A2    A(2,1,8)              118.5804         -DE/DX =    0.0                 !
 ! A3    A(6,1,8)              121.072          -DE/DX =    0.0                 !
 ! A4    A(1,2,3)              119.3045         -DE/DX =    0.0                 !
 ! A5    A(1,2,10)             119.4102         -DE/DX =    0.0                 !
 ! A6    A(3,2,10)             121.2853         -DE/DX =    0.0                 !
 ! A7    A(2,3,4)              121.777          -DE/DX =    0.0                 !
 ! A8    A(2,3,11)             119.0281         -DE/DX =    0.0                 !
 ! A9    A(4,3,11)             119.1949         -DE/DX =    0.0                 !
 ! A10   A(3,4,5)              117.8754         -DE/DX =    0.0                 !
 ! A11   A(4,5,6)              122.4331         -DE/DX =    0.0                 !
 ! A12   A(4,5,9)              118.7116         -DE/DX =    0.0                 !
 ! A13   A(6,5,9)              118.8554         -DE/DX =    0.0                 !
 ! A14   A(1,6,5)              118.2623         -DE/DX =    0.0                 !
 ! A15   A(1,6,7)              119.7797         -DE/DX =    0.0                 !
 ! A16   A(5,6,7)              121.9579         -DE/DX =    0.0                 !
 ! D1    D(6,1,2,3)              0.0            -DE/DX =    0.0                 !
 ! D2    D(6,1,2,10)           180.0            -DE/DX =    0.0                 !
 ! D3    D(8,1,2,3)            180.0            -DE/DX =    0.0                 !
 ! D4    D(8,1,2,10)             0.0            -DE/DX =    0.0                 !
 ! D5    D(2,1,6,5)              0.0            -DE/DX =    0.0                 !
 ! D6    D(2,1,6,7)            180.0            -DE/DX =    0.0                 !
 ! D7    D(8,1,6,5)            180.0            -DE/DX =    0.0                 !
 ! D8    D(8,1,6,7)              0.0            -DE/DX =    0.0                 !
 ! D9    D(1,2,3,4)              0.0            -DE/DX =    0.0                 !
 ! D10   D(1,2,3,11)           180.0            -DE/DX =    0.0                 !
 ! D11   D(10,2,3,4)           180.0            -DE/DX =    0.0                 !
 ! D12   D(10,2,3,11)            0.0            -DE/DX =    0.0                 !
 ! D13   D(2,3,4,5)              0.0            -DE/DX =    0.0                 !
 ! D14   D(11,3,4,5)           180.0            -DE/DX =    0.0                 !
 ! D15   D(3,4,5,6)              0.0            -DE/DX =    0.0                 !
 ! D16   D(3,4,5,9)            180.0            -DE/DX =    0.0                 !
 ! D17   D(4,5,6,1)              0.0            -DE/DX =    0.0                 !
 ! D18   D(4,5,6,7)            180.0            -DE/DX =    0.0                 !
 ! D19   D(9,5,6,1)            180.0            -DE/DX =    0.0                 !
 ! D20   D(9,5,6,7)              0.0            -DE/DX =    0.0                 !
 --------------------------------------------------------------------------------
 GradGradGradGradGradGradGradGradGradGradGradGradGradGradGradGradGradGrad

                          Input orientation:                          
 ---------------------------------------------------------------------
 Center     Atomic      Atomic             Coordinates (Angstroms)
 Number     Number       Type             X           Y           Z
 ---------------------------------------------------------------------
      1          6           0       -3.165870    0.271826    0.000000
      2          6           0       -1.977842    1.012568    0.000000
      3          6           0       -0.755985    0.342185    0.000000
      4          6           0       -0.682515   -1.047980    0.000000
      5          6           0       -1.872032   -1.759912    0.000000
      6          6           0       -3.126816   -1.129748    0.000000
      7         17           0       -4.590253   -2.022187    0.000000
      8         17           0       -4.660694    1.116726    0.000000
      9         17           0       -1.806263   -3.480442    0.000000
     10          1           0       -2.026421    2.110452    0.000000
     11          1           0        0.173852    0.928192    0.000000
 ---------------------------------------------------------------------
                    Distance matrix (angstroms):
                    1          2          3          4          5
     1  C    0.000000
     2  C    1.400039   0.000000
     3  C    2.410912   1.393681   0.000000
     4  C    2.812284   2.433872   1.392106   0.000000
     5  C    2.408729   2.774498   2.379995   1.386290   0.000000
     6  C    1.402117   2.430979   2.790596   2.445669   1.404133
     7  Cl   2.700252   4.004301   4.504649   4.027344   2.730844
     8  Cl   1.717077   2.684873   3.980786   4.529002   4.006455
     9  Cl   3.990995   4.496284   3.964285   2.679492   1.721786
    10  H    2.163074   1.098958   2.177331   3.432459   3.873442
    11  H    3.403610   2.153347   1.099091   2.153746   3.378098
                    6          7          8          9         10
     6  C    0.000000
     7  Cl   1.714087   0.000000
     8  Cl   2.720188   3.139703   0.000000
     9  Cl   2.696224   3.142787   5.411259   0.000000
    10  H    3.421953   4.863325   2.815472   5.595226   0.000000
    11  H    3.889669   5.603698   4.838220   4.832898   2.497786
                   11
    11  H    0.000000
 Stoichiometry    C6H2Cl3(1-)
 Framework group  CS[SG(C6H2Cl3)]
 Deg. of freedom    19
 Full point group                 CS      NOp   2
 Largest Abelian subgroup         CS      NOp   2
 Largest concise Abelian subgroup C1      NOp   1
                         Standard orientation:                         
 ---------------------------------------------------------------------
 Center     Atomic      Atomic             Coordinates (Angstroms)
 Number     Number       Type             X           Y           Z
 ---------------------------------------------------------------------
      1          6           0        1.119402   -0.571428    0.000000
      2          6           0        0.956592   -1.961968    0.000000
      3          6           0       -0.329820   -2.498147    0.000000
      4          6           0       -1.461792   -1.687840    0.000000
      5          6           0       -1.275544   -0.314119    0.000000
      6          6           0       -0.000000    0.272889    0.000000
      7         17           0        0.216195    1.973288    0.000000
      8         17           0        2.712543    0.069086    0.000000
      9         17           0       -2.660817    0.708411    0.000000
     10          1           0        1.844673   -2.609287    0.000000
     11          1           0       -0.452366   -3.590385    0.000000
 ---------------------------------------------------------------------
 Rotational constants (GHZ):           1.5309059           0.8608493           0.5510093

 **********************************************************************

            Population analysis using the SCF Density.

 **********************************************************************

 Orbital symmetries:
       Occupied  (A') (A') (A') (A') (A') (A') (A') (A') (A') (A')
                 (A') (A") (A') (A') (A") (A') (A") (A') (A') (A")
                 (A') (A") (A") (A')
       Virtual   (A") (A") (A') (A') (A') (A") (A') (A') (A') (A')
                 (A') (A') (A') (A')
 The electronic state is 1-A'.
 Alpha  occ. eigenvalues --   -1.28703  -1.23411  -1.21945  -1.19506  -0.97753
 Alpha  occ. eigenvalues --   -0.94535  -0.69494  -0.67224  -0.51174  -0.44713
 Alpha  occ. eigenvalues --   -0.44297  -0.39688  -0.39119  -0.35985  -0.33761
 Alpha  occ. eigenvalues --   -0.31839  -0.31544  -0.29711  -0.28772  -0.27552
 Alpha  occ. eigenvalues --   -0.26319  -0.18694  -0.16633  -0.11834
 Alpha virt. eigenvalues --    0.17058   0.18434   0.18621   0.20280   0.22700
 Alpha virt. eigenvalues --    0.28527   0.29522   0.31365   0.32743   0.33319
 Alpha virt. eigenvalues --    0.34496   0.35601   0.39022   0.40703
          Condensed to atoms (all electrons):
               1          2          3          4          5          6
     1  C    4.128803   0.000000   0.000000   0.000000   0.000000   0.000000
     2  C    0.000000   4.150168   0.000000   0.000000   0.000000   0.000000
     3  C    0.000000   0.000000   4.147089   0.000000   0.000000   0.000000
     4  C    0.000000   0.000000   0.000000   4.361529   0.000000   0.000000
     5  C    0.000000   0.000000   0.000000   0.000000   4.055107   0.000000
     6  C    0.000000   0.000000   0.000000   0.000000   0.000000   4.062542
     7  Cl   0.000000   0.000000   0.000000   0.000000   0.000000   0.000000
     8  Cl   0.000000   0.000000   0.000000   0.000000   0.000000   0.000000
     9  Cl   0.000000   0.000000   0.000000   0.000000   0.000000   0.000000
    10  H    0.000000   0.000000   0.000000   0.000000   0.000000   0.000000
    11  H    0.000000   0.000000   0.000000   0.000000   0.000000   0.000000
               7          8          9         10         11
     1  C    0.000000   0.000000   0.000000   0.000000   0.000000
     2  C    0.000000   0.000000   0.000000   0.000000   0.000000
     3  C    0.000000   0.000000   0.000000   0.000000   0.000000
     4  C    0.000000   0.000000   0.000000   0.000000   0.000000
     5  C    0.000000   0.000000   0.000000   0.000000   0.000000
     6  C    0.000000   0.000000   0.000000   0.000000   0.000000
     7  Cl   7.082865   0.000000   0.000000   0.000000   0.000000
     8  Cl   0.000000   7.098756   0.000000   0.000000   0.000000
     9  Cl   0.000000   0.000000   7.108228   0.000000   0.000000
    10  H    0.000000   0.000000   0.000000   0.900696   0.000000
    11  H    0.000000   0.000000   0.000000   0.000000   0.904216
 Mulliken charges:
               1
     1  C   -0.128803
     2  C   -0.150168
     3  C   -0.147089
     4  C   -0.361529
     5  C   -0.055107
     6  C   -0.062542
     7  Cl  -0.082865
     8  Cl  -0.098756
     9  Cl  -0.108228
    10  H    0.099304
    11  H    0.095784
 Sum of Mulliken charges =  -1.00000
 Mulliken charges with hydrogens summed into heavy atoms:
               1
     1  C   -0.128803
     2  C   -0.050864
     3  C   -0.051305
     4  C   -0.361529
     5  C   -0.055107
     6  C   -0.062542
     7  Cl  -0.082865
     8  Cl  -0.098756
     9  Cl  -0.108228
 Charge=             -1.0000 electrons
 Dipole moment (field-independent basis, Debye):
    X=              4.3234    Y=              3.3383    Z=              0.0000  Tot=              5.4622
 N-N= 2.466834231279D+02 E-N=-3.526293572763D+02  KE=-1.139947056441D+02
 Symmetry A'   KE=-8.794170071826D+01
 Symmetry A"   KE=-2.605300492586D+01
 1\1\GINC-SH04-01N23\FOpt\RAM1\ZDO\C6H2Cl3(1-)\JLAPIER\08-Dec-2025\0\\#
  opt am1 SCF(maxcyc=10000)\\Anion Intermediate (removed 3) 12_4\\-1,1\
 C,-3.1658702318,0.2718256745,0.\C,-1.9778419197,1.0125677613,0.\C,-0.7
 559854839,0.3421854133,0.\C,-0.6825147893,-1.0479802905,0.\C,-1.872032
 3579,-1.7599119372,0.\C,-3.1268162536,-1.1297476021,0.\Cl,-4.590253008
 7,-2.0221866851,0.\Cl,-4.6606939557,1.1167257474,0.\Cl,-1.8062626382,-
 3.4804415456,0.\H,-2.0264209296,2.1104515212,0.\H,0.1738515684,0.92819
 19428,0.\\Version=ES64L-G16RevB.01\State=1-A'\HF=0.0293202\RMSD=2.152e
 -09\RMSF=4.096e-05\Dipole=-2.0878233,0.5091569,0.\PG=CS [SG(C6H2Cl3)]\
 \@


 ONE OF THE BENEFITS OF A COLLEGE EDUCATION
 IS TO SHOW THE BOY ITS LITTLE AVAIL 
                                    EMERSON IN 'CULTURE'
 Job cpu time:       0 days  0 hours  0 minutes  4.1 seconds.
 Elapsed time:       0 days  0 hours  0 minutes 23.2 seconds.
 File lengths (MBytes):  RWF=     10 Int=      0 D2E=      0 Chk=      2 Scr=      1
 Normal termination of Gaussian 16 at Mon Dec  8 17:08:55 2025.
