 Entering Gaussian System, Link 0=g16
 Initial command:
 /share/software/user/restricted/gaussian/g16.B01/l1.exe "/home/users/jlapier/Chloroaromatics/Gau-30728.inp" -scrdir="/home/users/jlapier/Chloroaromatics/"
 Entering Link 1 = /share/software/user/restricted/gaussian/g16.B01/l1.exe PID=     30729.
  
 Copyright (c) 1988-2017, Gaussian, Inc.  All Rights Reserved.
  
 This is part of the Gaussian(R) 16 program.  It is based on
 the Gaussian(R) 09 system (copyright 2009, Gaussian, Inc.),
 the Gaussian(R) 03 system (copyright 2003, Gaussian, Inc.),
 the Gaussian(R) 98 system (copyright 1998, Gaussian, Inc.),
 the Gaussian(R) 94 system (copyright 1995, Gaussian, Inc.),
 the Gaussian 92(TM) system (copyright 1992, Gaussian, Inc.),
 the Gaussian 90(TM) system (copyright 1990, Gaussian, Inc.),
 the Gaussian 88(TM) system (copyright 1988, Gaussian, Inc.),
 the Gaussian 86(TM) system (copyright 1986, Carnegie Mellon
 University), and the Gaussian 82(TM) system (copyright 1983,
 Carnegie Mellon University). Gaussian is a federally registered
 trademark of Gaussian, Inc.
  
 This software contains proprietary and confidential information,
 including trade secrets, belonging to Gaussian, Inc.
  
 This software is provided under written license and may be
 used, copied, transmitted, or stored only in accord with that
 written license.
  
 The following legend is applicable only to US Government
 contracts under FAR:
  
                    RESTRICTED RIGHTS LEGEND
  
 Use, reproduction and disclosure by the US Government is
 subject to restrictions as set forth in subparagraphs (a)
 and (c) of the Commercial Computer Software - Restricted
 Rights clause in FAR 52.227-19.
  
 Gaussian, Inc.
 340 Quinnipiac St., Bldg. 40, Wallingford CT 06492
  
  
 ---------------------------------------------------------------
 Warning -- This program may not be used in any manner that
 competes with the business of Gaussian, Inc. or will provide
 assistance to any competitor of Gaussian, Inc.  The licensee
 of this program is prohibited from giving any competitor of
 Gaussian, Inc. access to this program.  By using this program,
 the user acknowledges that Gaussian, Inc. is engaged in the
 business of creating and licensing software in the field of
 computational chemistry and represents and warrants to the
 licensee that it is not a competitor of Gaussian, Inc. and that
 it will not use this program in any manner prohibited above.
 ---------------------------------------------------------------
  

 Cite this work as:
 Gaussian 16, Revision B.01,
 M. J. Frisch, G. W. Trucks, H. B. Schlegel, G. E. Scuseria, 
 M. A. Robb, J. R. Cheeseman, G. Scalmani, V. Barone, 
 G. A. Petersson, H. Nakatsuji, X. Li, M. Caricato, A. V. Marenich, 
 J. Bloino, B. G. Janesko, R. Gomperts, B. Mennucci, H. P. Hratchian, 
 J. V. Ortiz, A. F. Izmaylov, J. L. Sonnenberg, D. Williams-Young, 
 F. Ding, F. Lipparini, F. Egidi, J. Goings, B. Peng, A. Petrone, 
 T. Henderson, D. Ranasinghe, V. G. Zakrzewski, J. Gao, N. Rega, 
 G. Zheng, W. Liang, M. Hada, M. Ehara, K. Toyota, R. Fukuda, 
 J. Hasegawa, M. Ishida, T. Nakajima, Y. Honda, O. Kitao, H. Nakai, 
 T. Vreven, K. Throssell, J. A. Montgomery, Jr., J. E. Peralta, 
 F. Ogliaro, M. J. Bearpark, J. J. Heyd, E. N. Brothers, K. N. Kudin, 
 V. N. Staroverov, T. A. Keith, R. Kobayashi, J. Normand, 
 K. Raghavachari, A. P. Rendell, J. C. Burant, S. S. Iyengar, 
 J. Tomasi, M. Cossi, J. M. Millam, M. Klene, C. Adamo, R. Cammi, 
 J. W. Ochterski, R. L. Martin, K. Morokuma, O. Farkas, 
 J. B. Foresman, and D. J. Fox, Gaussian, Inc., Wallingford CT, 2016.
 
 ******************************************
 Gaussian 16:  ES64L-G16RevB.01 20-Dec-2017
                 9-Dec-2025 
 ******************************************
 %mem=2GB
 %nprocshare=1
 Will use up to    1 processors via shared memory.
 %chk=geometry_chks/12_456ClBzNeutralRadical.chk
 -----------------
 # opt am1 SCF=XQC
 -----------------
 1/18=20,19=15,26=1,38=1/1,3;
 2/9=110,12=2,17=6,18=5,40=1/2;
 3/5=2,25=1,41=700000,71=1/1,2,3;
 4/35=1/1;
 5/5=2,8=3,13=1,35=1,38=5/2,8;
 6/7=2,8=2,9=2,10=2,28=1/1;
 7//1,2,3,16;
 1/18=20,19=15,26=1/3(2);
 2/9=110/2;
 99//99;
 2/9=110/2;
 3/5=2,25=1,41=700000,71=1,135=20/1,2,3;
 4/5=5,16=3,35=1/1;
 5/5=2,8=3,13=1,35=1,38=5/2,8;
 7//1,2,3,16;
 1/18=20,19=15,26=1/3(-5);
 2/9=110/2;
 6/7=2,8=2,9=2,10=2,19=2,28=1/1;
 99/9=1/99;
 ----------------------------------
 Neutral Radical (removed 3) 12_456
 ----------------------------------
 Symbolic Z-matrix:
 Charge =  0 Multiplicity = 2
 C                    -3.20928   0.19943   0. 
 C                    -2.0115    0.93555   0. 
 C                    -0.77511   0.2663    0. 
 C                    -0.7365   -1.13907   0. 
 C                    -1.93429  -1.87519   0. 
 C                    -3.17067  -1.20594   0. 
 Cl                   -4.67483  -2.13035   0. 
 Cl                   -4.76193   1.03987   0. 
 Cl                   -1.8858   -3.64003   0. 
 Cl                   -2.05998   2.7004    0. 
 Cl                    0.72905   1.19071   0. 
 

 GradGradGradGradGradGradGradGradGradGradGradGradGradGradGradGradGradGrad
 Berny optimization.
 Initialization pass.
                           ----------------------------
                           !    Initial Parameters    !
                           ! (Angstroms and Degrees)  !
 --------------------------                            --------------------------
 ! Name  Definition              Value          Derivative Info.                !
 --------------------------------------------------------------------------------
 ! R1    R(1,2)                  1.4059         estimate D2E/DX2                !
 ! R2    R(1,6)                  1.4059         estimate D2E/DX2                !
 ! R3    R(1,8)                  1.7655         estimate D2E/DX2                !
 ! R4    R(2,3)                  1.4059         estimate D2E/DX2                !
 ! R5    R(2,10)                 1.7655         estimate D2E/DX2                !
 ! R6    R(3,4)                  1.4059         estimate D2E/DX2                !
 ! R7    R(3,11)                 1.7655         estimate D2E/DX2                !
 ! R8    R(4,5)                  1.4059         estimate D2E/DX2                !
 ! R9    R(5,6)                  1.4059         estimate D2E/DX2                !
 ! R10   R(5,9)                  1.7655         estimate D2E/DX2                !
 ! R11   R(6,7)                  1.7655         estimate D2E/DX2                !
 ! A1    A(2,1,6)              119.9999         estimate D2E/DX2                !
 ! A2    A(2,1,8)              119.9999         estimate D2E/DX2                !
 ! A3    A(6,1,8)              120.0001         estimate D2E/DX2                !
 ! A4    A(1,2,3)              120.0            estimate D2E/DX2                !
 ! A5    A(1,2,10)             120.0001         estimate D2E/DX2                !
 ! A6    A(3,2,10)             119.9999         estimate D2E/DX2                !
 ! A7    A(2,3,4)              120.0001         estimate D2E/DX2                !
 ! A8    A(2,3,11)             120.0            estimate D2E/DX2                !
 ! A9    A(4,3,11)             119.9999         estimate D2E/DX2                !
 ! A10   A(3,4,5)              119.9997         estimate D2E/DX2                !
 ! A11   A(4,5,6)              120.0            estimate D2E/DX2                !
 ! A12   A(4,5,9)              119.9996         estimate D2E/DX2                !
 ! A13   A(6,5,9)              120.0004         estimate D2E/DX2                !
 ! A14   A(1,6,5)              120.0003         estimate D2E/DX2                !
 ! A15   A(1,6,7)              119.9999         estimate D2E/DX2                !
 ! A16   A(5,6,7)              119.9998         estimate D2E/DX2                !
 ! D1    D(6,1,2,3)              0.0            estimate D2E/DX2                !
 ! D2    D(6,1,2,10)           180.0            estimate D2E/DX2                !
 ! D3    D(8,1,2,3)            180.0            estimate D2E/DX2                !
 ! D4    D(8,1,2,10)             0.0            estimate D2E/DX2                !
 ! D5    D(2,1,6,5)              0.0            estimate D2E/DX2                !
 ! D6    D(2,1,6,7)            180.0            estimate D2E/DX2                !
 ! D7    D(8,1,6,5)            180.0            estimate D2E/DX2                !
 ! D8    D(8,1,6,7)              0.0            estimate D2E/DX2                !
 ! D9    D(1,2,3,4)              0.0            estimate D2E/DX2                !
 ! D10   D(1,2,3,11)           180.0            estimate D2E/DX2                !
 ! D11   D(10,2,3,4)           180.0            estimate D2E/DX2                !
 ! D12   D(10,2,3,11)            0.0            estimate D2E/DX2                !
 ! D13   D(2,3,4,5)              0.0            estimate D2E/DX2                !
 ! D14   D(11,3,4,5)           180.0            estimate D2E/DX2                !
 ! D15   D(3,4,5,6)              0.0            estimate D2E/DX2                !
 ! D16   D(3,4,5,9)            180.0            estimate D2E/DX2                !
 ! D17   D(4,5,6,1)              0.0            estimate D2E/DX2                !
 ! D18   D(4,5,6,7)            180.0            estimate D2E/DX2                !
 ! D19   D(9,5,6,1)            180.0            estimate D2E/DX2                !
 ! D20   D(9,5,6,7)              0.0            estimate D2E/DX2                !
 --------------------------------------------------------------------------------
 Trust Radius=3.00D-01 FncErr=1.00D-07 GrdErr=1.00D-07 EigMax=2.50D+02 EigMin=1.00D-04
 Number of steps in this run=     57 maximum allowed number of steps=    100.
 GradGradGradGradGradGradGradGradGradGradGradGradGradGradGradGradGradGrad

                          Input orientation:                          
 ---------------------------------------------------------------------
 Center     Atomic      Atomic             Coordinates (Angstroms)
 Number     Number       Type             X           Y           Z
 ---------------------------------------------------------------------
      1          6           0       -3.209280    0.199430    0.000000
      2          6           0       -2.011500    0.935550    0.000000
      3          6           0       -0.775110    0.266300    0.000000
      4          6           0       -0.736500   -1.139070    0.000000
      5          6           0       -1.934290   -1.875190    0.000000
      6          6           0       -3.170670   -1.205940    0.000000
      7         17           0       -4.674830   -2.130350    0.000000
      8         17           0       -4.761930    1.039870    0.000000
      9         17           0       -1.885800   -3.640030    0.000000
     10         17           0       -2.059980    2.700400    0.000000
     11         17           0        0.729050    1.190710    0.000000
 ---------------------------------------------------------------------
                    Distance matrix (angstroms):
                    1          2          3          4          5
     1  C    0.000000
     2  C    1.405898   0.000000
     3  C    2.435088   1.405900   0.000000
     4  C    2.811801   2.435092   1.405900   0.000000
     5  C    2.435087   2.811800   2.435093   1.405907   0.000000
     6  C    1.405900   2.435088   2.811796   2.435088   1.405892
     7  Cl   2.752401   4.061166   4.577308   4.061167   2.752393
     8  Cl   1.765520   2.752408   4.061175   4.577321   4.061173
     9  Cl   4.061164   4.577306   4.061163   2.752397   1.765506
    10  Cl   2.752406   1.765516   2.752405   4.061173   4.577316
    11  Cl   4.061167   2.752403   1.765512   2.752401   4.061173
                    6          7          8          9         10
     6  C    0.000000
     7  Cl   1.765512   0.000000
     8  Cl   2.752412   3.171416   0.000000
     9  Cl   2.752396   3.171407   5.493049   0.000000
    10  Cl   4.061173   5.493049   3.171418   6.342822   0.000000
    11  Cl   4.577308   6.342819   5.493051   5.493040   3.171412
                   11
    11  Cl   0.000000
 Stoichiometry    C6Cl5(2)
 Framework group  CS[SG(C6Cl5)]
 Deg. of freedom    19
 Full point group                 CS      NOp   2
 Largest Abelian subgroup         CS      NOp   2
 Largest concise Abelian subgroup C1      NOp   1
                         Standard orientation:                         
 ---------------------------------------------------------------------
 Center     Atomic      Atomic             Coordinates (Angstroms)
 Number     Number       Type             X           Y           Z
 ---------------------------------------------------------------------
      1          6           0       -0.000001    0.960328    0.000000
      2          6           0        1.217543    0.257380    0.000000
      3          6           0        1.217543   -1.148521    0.000000
      4          6           0       -0.000001   -1.851473    0.000000
      5          6           0       -1.217550   -1.148516    0.000000
      6          6           0       -1.217545    0.257375    0.000000
      7         17           0       -2.746523    1.140131    0.000000
      8         17           0       -0.000001    2.725848    0.000000
      9         17           0       -2.746519   -2.031275    0.000000
     10         17           0        2.746526    1.140135    0.000000
     11         17           0        2.746521   -2.031277    0.000000
 ---------------------------------------------------------------------
 Rotational constants (GHZ):           0.6973100           0.4487113           0.2730236
 Standard basis: VSTO-6G (5D, 7F)
 There are    33 symmetry adapted cartesian basis functions of A'  symmetry.
 There are    11 symmetry adapted cartesian basis functions of A"  symmetry.
 There are    33 symmetry adapted basis functions of A'  symmetry.
 There are    11 symmetry adapted basis functions of A"  symmetry.
    44 basis functions,   264 primitive gaussians,    44 cartesian basis functions
    30 alpha electrons       29 beta electrons
       nuclear repulsion energy       349.2652845420 Hartrees.
 Integral buffers will be    131072 words long.
 Regular integral format.
 Two-electron integral symmetry is turned off.
 Do NDO integrals.
 One-electron integrals computed using PRISM.
 NBasis=    44 RedAO= T EigKep=  1.00D+00  NBF=    33    11
 NBsUse=    44 1.00D-06 EigRej= -1.00D+00 NBFU=    33    11
 Simple Huckel Guess.
 Initial guess orbital symmetries:
 Alpha Orbitals:
       Occupied  (A') (A') (A') (A') (A') (A') (A') (A') (A') (A')
                 (A') (A") (A') (A') (A") (A') (A') (A") (A') (A")
                 (A") (A') (A') (A') (A") (A') (A') (A") (A") (A')
       Virtual   (A") (A") (A") (A') (A') (A') (A') (A') (A') (A')
                 (A') (A') (A') (A')
 Beta  Orbitals:
       Occupied  (A') (A') (A') (A') (A') (A') (A') (A') (A') (A')
                 (A') (A") (A') (A') (A") (A') (A') (A") (A') (A")
                 (A") (A') (A') (A') (A") (A') (A') (A") (A")
       Virtual   (A') (A") (A") (A") (A') (A') (A') (A') (A') (A')
                 (A') (A') (A') (A') (A')
 The electronic state of the initial guess is 2-A'.
 Initial guess <Sx>= 0.0000 <Sy>= 0.0000 <Sz>= 0.5000 <S**2>= 0.7500 S= 0.5000
 Keep J ints in memory in canonical form, NReq=865421.
 Overlap will be assumed to be unity.
 Requested convergence on RMS density matrix=1.00D-08 within  32 cycles.
 Requested convergence on MAX density matrix=1.00D-06.
 Requested convergence on             energy=1.00D-06.
 No special actions if energy rises.
 Fock symm off for IB=2 I1=    1 I=   34 J=   28 Cut=1.00D-07 Err=4.16D-03
 Fock matrix is not symmetric: symmetry in diagonalization turned off.
 Rare condition: small coef for last iteration:  0.000D+00
 Rare condition: small coef for last iteration:  0.000D+00
 Rare condition: small coef for last iteration:  0.000D+00
 Rare condition: small coef for last iteration:  0.000D+00
 Rare condition: small coef for last iteration:  0.000D+00
 Rare condition: small coef for last iteration:  0.000D+00
 Rare condition: small coef for last iteration:  0.000D+00
 Rare condition: small coef for last iteration:  0.000D+00
 Rare condition: small coef for last iteration:  0.000D+00
 Rare condition: small coef for last iteration:  0.000D+00
 Rare condition: small coef for last iteration:  0.000D+00
 Rare condition: small coef for last iteration:  0.000D+00
 Rare condition: small coef for last iteration:  0.000D+00
 Rare condition: small coef for last iteration:  0.000D+00
 Rare condition: small coef for last iteration:  0.000D+00
 >>>>>>>>>> Convergence criterion not met.
 SCF Done:  E(UAM1) =  0.111296387815     A.U. after   33 cycles
            NFock= 32  Conv=0.33D-03     -V/T= 1.0007
 <Sx>= 0.0000 <Sy>= 0.0000 <Sz>= 0.5000 <S**2>= 1.0984 S= 0.6612
 <L.S>=  0.00000000000    
 Annihilation of the first spin contaminant:
 S**2 before annihilation     1.0984,   after     0.8383
 Keep J ints in memory in canonical form, NReq=865821.
 LinEq1:  Iter=  0 NonCon=     1 RMS=5.96D-04 Max=9.48D-03 NDo=     1
 AX will form     1 AO Fock derivatives at one time.
 LinEq1:  Iter=  1 NonCon=     1 RMS=4.85D-05 Max=6.74D-04 NDo=     1
 LinEq1:  Iter=  2 NonCon=     1 RMS=1.36D-05 Max=2.42D-04 NDo=     1
 LinEq1:  Iter=  3 NonCon=     1 RMS=2.69D-06 Max=3.26D-05 NDo=     1
 LinEq1:  Iter=  4 NonCon=     1 RMS=4.27D-07 Max=4.54D-06 NDo=     1
 LinEq1:  Iter=  5 NonCon=     1 RMS=7.77D-08 Max=5.70D-07 NDo=     1
 LinEq1:  Iter=  6 NonCon=     1 RMS=1.74D-08 Max=1.49D-07 NDo=     1
 LinEq1:  Iter=  7 NonCon=     1 RMS=2.97D-09 Max=2.26D-08 NDo=     1
 LinEq1:  Iter=  8 NonCon=     0 RMS=6.10D-10 Max=6.52D-09 NDo=     1
 Linear equations converged to 2.924D-09 2.924D-08 after     8 iterations.
     Accept linear search using points  4 and  5.
     Minimum is close to point  5 DX= -2.50D-01 DF= -3.55D-04 DXR=  8.21D-02 DFR=  3.25D-02 which will be used.
 Gradient too large for Newton-Raphson -- use scaled steepest descent instead.
     Accept linear search using points  4 and  5.
 LinEq1:  Iter=  0 NonCon=     1 RMS=4.72D-04 Max=5.52D-03 NDo=     1
 LinEq1:  Iter=  1 NonCon=     1 RMS=1.73D-04 Max=2.13D-03 NDo=     1
 LinEq1:  Iter=  2 NonCon=     1 RMS=2.93D-05 Max=3.26D-04 NDo=     1
 LinEq1:  Iter=  3 NonCon=     1 RMS=6.74D-06 Max=9.72D-05 NDo=     1
 LinEq1:  Iter=  4 NonCon=     1 RMS=8.33D-07 Max=1.12D-05 NDo=     1
 LinEq1:  Iter=  5 NonCon=     1 RMS=1.13D-07 Max=1.32D-06 NDo=     1
 LinEq1:  Iter=  6 NonCon=     1 RMS=2.24D-08 Max=2.71D-07 NDo=     1
 LinEq1:  Iter=  7 NonCon=     1 RMS=3.43D-09 Max=2.30D-08 NDo=     1
 LinEq1:  Iter=  8 NonCon=     0 RMS=6.20D-10 Max=6.28D-09 NDo=     1
 Linear equations converged to 2.924D-09 2.924D-08 after     8 iterations.
     Minimum is close to point  2 DX=  6.60D-02 DF= -9.43D-07 DXR=  6.19D-02 DFR=  3.85D-03 which will be used.
 LinEq1:  Iter=  0 NonCon=     1 RMS=2.01D-05 Max=2.94D-04 NDo=     1
 LinEq1:  Iter=  1 NonCon=     1 RMS=2.91D-06 Max=3.06D-05 NDo=     1
 LinEq1:  Iter=  2 NonCon=     1 RMS=6.76D-07 Max=5.09D-06 NDo=     1
 LinEq1:  Iter=  3 NonCon=     1 RMS=1.58D-07 Max=1.67D-06 NDo=     1
 LinEq1:  Iter=  4 NonCon=     1 RMS=1.37D-08 Max=1.02D-07 NDo=     1
 LinEq1:  Iter=  5 NonCon=     1 RMS=2.52D-09 Max=1.90D-08 NDo=     1
 LinEq1:  Iter=  6 NonCon=     0 RMS=3.20D-10 Max=2.53D-09 NDo=     1
 Linear equations converged to 2.314D-09 2.314D-08 after     6 iterations.
     Minimum is close to point  2 DX=  1.03D-02 DF= -1.02D-10 DXR=  1.02D-02 DFR=  1.05D-04 which will be used.
 LinEq1:  Iter=  0 NonCon=     1 RMS=1.60D-07 Max=2.32D-06 NDo=     1
 LinEq1:  Iter=  1 NonCon=     1 RMS=2.65D-08 Max=2.65D-07 NDo=     1
 LinEq1:  Iter=  2 NonCon=     1 RMS=5.82D-09 Max=5.43D-08 NDo=     1
 LinEq1:  Iter=  3 NonCon=     1 RMS=1.22D-09 Max=9.53D-09 NDo=     1
 LinEq1:  Iter=  4 NonCon=     1 RMS=1.43D-10 Max=1.10D-09 NDo=     1
 LinEq1:  Iter=  5 NonCon=     1 RMS=3.06D-11 Max=3.67D-10 NDo=     1
 LinEq1:  Iter=  6 NonCon=     0 RMS=6.36D-12 Max=8.10D-11 NDo=     1
 Linear equations converged to 1.828D-11 1.828D-10 after     6 iterations.
 SCF Done:  E(UAM1) =  0.993064246195E-01 a.u. after    6 cycles
            Convg  =    0.9781D-08                    43 Fock formations.
              S**2 =  1.3757                  -V/T =  1.0006
 <Sx>= 0.0000 <Sy>= 0.0000 <Sz>= 0.5000 <S**2>= 1.3757 S= 0.7750
 <L.S>=  0.00000000000    
 Annihilation of the first spin contaminant:
 S**2 before annihilation     1.3757,   after     1.1028

 **********************************************************************

            Population analysis using the SCF Density.

 **********************************************************************

 Orbital symmetries:
 Alpha Orbitals:
       Occupied  (A') (A') (A') (A') (A') (A') (A') (A') (A') (A')
                 (A') (A') (A') (A') (A") (A') (A') (A") (A") (A')
                 (A") (A") (A') (A') (A') (A') (A") (A') (A") (A")
       Virtual   (A") (A") (A') (A') (A') (A') (A') (A") (A') (A')
                 (A') (A') (A') (A')
 Beta  Orbitals:
       Occupied  (A') (A') (A') (A') (A') (A') (A') (A') (A') (A')
                 (A') (A') (A') (A') (A") (A') (A') (A") (A") (A")
                 (A") (A') (A') (A') (A') (A') (A") (A") (A")
       Virtual   (A') (A") (A") (A') (A') (A') (A') (A') (A") (A')
                 (A') (A') (A') (A') (A')
 The electronic state is 2-A'.
 Alpha  occ. eigenvalues --   -1.48502  -1.40983  -1.40203  -1.39312  -1.38988
 Alpha  occ. eigenvalues --   -1.37221  -1.16915  -1.16543  -0.89875  -0.89501
 Alpha  occ. eigenvalues --   -0.70282  -0.67161  -0.64928  -0.60515  -0.59477
 Alpha  occ. eigenvalues --   -0.57377  -0.53303  -0.52482  -0.50659  -0.48962
 Alpha  occ. eigenvalues --   -0.48027  -0.47657  -0.46736  -0.46107  -0.45803
 Alpha  occ. eigenvalues --   -0.44593  -0.44371  -0.44208  -0.39770  -0.38431
 Alpha virt. eigenvalues --   -0.03408  -0.03178  -0.00985  -0.00047   0.00369
 Alpha virt. eigenvalues --    0.02344   0.02764   0.04242   0.10166   0.10310
 Alpha virt. eigenvalues --    0.11907   0.12133   0.13483   0.13849
  Beta  occ. eigenvalues --   -1.48010  -1.40903  -1.40207  -1.39260  -1.38923
  Beta  occ. eigenvalues --   -1.36903  -1.16693  -1.14923  -0.89703  -0.87229
  Beta  occ. eigenvalues --   -0.70151  -0.66668  -0.63686  -0.60373  -0.59320
  Beta  occ. eigenvalues --   -0.56574  -0.52952  -0.52494  -0.51332  -0.48057
  Beta  occ. eigenvalues --   -0.47569  -0.47442  -0.46687  -0.45904  -0.45729
  Beta  occ. eigenvalues --   -0.44561  -0.43901  -0.38604  -0.38593
  Beta virt. eigenvalues --   -0.04959  -0.03477  -0.01600  -0.01337   0.00355
  Beta virt. eigenvalues --    0.00573   0.02305   0.02846   0.05369   0.10590
  Beta virt. eigenvalues --    0.10656   0.12669   0.12771   0.13851   0.15660
          Condensed to atoms (all electrons):
               1          2          3          4          5          6
     1  C    4.038166   0.000000   0.000000   0.000000   0.000000   0.000000
     2  C    0.000000   4.031239   0.000000   0.000000   0.000000   0.000000
     3  C    0.000000   0.000000   4.043041   0.000000   0.000000   0.000000
     4  C    0.000000   0.000000   0.000000   3.965426   0.000000   0.000000
     5  C    0.000000   0.000000   0.000000   0.000000   4.043041   0.000000
     6  C    0.000000   0.000000   0.000000   0.000000   0.000000   4.031240
     7  Cl   0.000000   0.000000   0.000000   0.000000   0.000000   0.000000
     8  Cl   0.000000   0.000000   0.000000   0.000000   0.000000   0.000000
     9  Cl   0.000000   0.000000   0.000000   0.000000   0.000000   0.000000
    10  Cl   0.000000   0.000000   0.000000   0.000000   0.000000   0.000000
    11  Cl   0.000000   0.000000   0.000000   0.000000   0.000000   0.000000
               7          8          9         10         11
     1  C    0.000000   0.000000   0.000000   0.000000   0.000000
     2  C    0.000000   0.000000   0.000000   0.000000   0.000000
     3  C    0.000000   0.000000   0.000000   0.000000   0.000000
     4  C    0.000000   0.000000   0.000000   0.000000   0.000000
     5  C    0.000000   0.000000   0.000000   0.000000   0.000000
     6  C    0.000000   0.000000   0.000000   0.000000   0.000000
     7  Cl   6.967387   0.000000   0.000000   0.000000   0.000000
     8  Cl   0.000000   6.968166   0.000000   0.000000   0.000000
     9  Cl   0.000000   0.000000   6.972452   0.000000   0.000000
    10  Cl   0.000000   0.000000   0.000000   6.967387   0.000000
    11  Cl   0.000000   0.000000   0.000000   0.000000   6.972454
          Atomic-Atomic Spin Densities.
               1          2          3          4          5          6
     1  C   -0.496308   0.000000   0.000000   0.000000   0.000000   0.000000
     2  C    0.000000   0.515192   0.000000   0.000000   0.000000   0.000000
     3  C    0.000000   0.000000  -0.516474   0.000000   0.000000   0.000000
     4  C    0.000000   0.000000   0.000000   1.462286   0.000000   0.000000
     5  C    0.000000   0.000000   0.000000   0.000000  -0.516469   0.000000
     6  C    0.000000   0.000000   0.000000   0.000000   0.000000   0.515185
     7  Cl   0.000000   0.000000   0.000000   0.000000   0.000000   0.000000
     8  Cl   0.000000   0.000000   0.000000   0.000000   0.000000   0.000000
     9  Cl   0.000000   0.000000   0.000000   0.000000   0.000000   0.000000
    10  Cl   0.000000   0.000000   0.000000   0.000000   0.000000   0.000000
    11  Cl   0.000000   0.000000   0.000000   0.000000   0.000000   0.000000
               7          8          9         10         11
     1  C    0.000000   0.000000   0.000000   0.000000   0.000000
     2  C    0.000000   0.000000   0.000000   0.000000   0.000000
     3  C    0.000000   0.000000   0.000000   0.000000   0.000000
     4  C    0.000000   0.000000   0.000000   0.000000   0.000000
     5  C    0.000000   0.000000   0.000000   0.000000   0.000000
     6  C    0.000000   0.000000   0.000000   0.000000   0.000000
     7  Cl   0.005627   0.000000   0.000000   0.000000   0.000000
     8  Cl   0.000000   0.006755   0.000000   0.000000   0.000000
     9  Cl   0.000000   0.000000   0.009289   0.000000   0.000000
    10  Cl   0.000000   0.000000   0.000000   0.005627   0.000000
    11  Cl   0.000000   0.000000   0.000000   0.000000   0.009290
 Mulliken charges and spin densities:
               1          2
     1  C   -0.038166  -0.496308
     2  C   -0.031239   0.515192
     3  C   -0.043041  -0.516474
     4  C    0.034574   1.462286
     5  C   -0.043041  -0.516469
     6  C   -0.031240   0.515185
     7  Cl   0.032613   0.005627
     8  Cl   0.031834   0.006755
     9  Cl   0.027548   0.009289
    10  Cl   0.032613   0.005627
    11  Cl   0.027546   0.009290
 Sum of Mulliken charges =  -0.00000   1.00000
 Mulliken charges and spin densities with hydrogens summed into heavy atoms:
               1          2
     1  C   -0.038166  -0.496308
     2  C   -0.031239   0.515192
     3  C   -0.043041  -0.516474
     4  C    0.034574   1.462286
     5  C   -0.043041  -0.516469
     6  C   -0.031240   0.515185
     7  Cl   0.032613   0.005627
     8  Cl   0.031834   0.006755
     9  Cl   0.027548   0.009289
    10  Cl   0.032613   0.005627
    11  Cl   0.027546   0.009290
 Charge=             -0.0000 electrons
 Dipole moment (field-independent basis, Debye):
    X=             -0.0000    Y=              0.1619    Z=              0.0000  Tot=              0.1619
 N-N= 3.492652845420D+02 E-N=-4.977810424793D+02  KE=-1.553284980705D+02
 Symmetry A'   KE=-1.181614564046D+02
 Symmetry A"   KE=-3.716704166588D+01
 Symmetry A'   SP= 1.000000000000D+00
 Symmetry A"   SP=-5.551115123126D-17
 Calling FoFJK, ICntrl=      2127 FMM=F ISym2X=1 I1Cent= 0 IOpClX= 1 NMat=1 NMatS=1 NMatT=0.
 ***** Axes restored to original set *****
 -------------------------------------------------------------------
 Center     Atomic                   Forces (Hartrees/Bohr)
 Number     Number              X              Y              Z
 -------------------------------------------------------------------
      1        6          -0.031628433    0.017121082    0.000000000
      2        6          -0.001632254    0.034821536    0.000000000
      3        6           0.049783624    0.000445564    0.000000000
      4        6          -0.053725519    0.029078511   -0.000000000
      5        6           0.026857755   -0.041924673    0.000000000
      6        6          -0.030052880   -0.017669670    0.000000000
      7       17           0.035756374    0.021717021   -0.000000000
      8       17           0.036695334   -0.019863209    0.000000000
      9       17           0.001255334    0.042235460    0.000000000
     10       17           0.001368571   -0.041815098    0.000000000
     11       17          -0.034677906   -0.024146524   -0.000000000
 -------------------------------------------------------------------
 Cartesian Forces:  Max     0.053725519 RMS     0.025361831

 GradGradGradGradGradGradGradGradGradGradGradGradGradGradGradGradGradGrad
 Berny optimization.
 FormGI is forming the generalized inverse of G from B-inverse, IUseBI=4.
 Internal  Forces:  Max     0.042187436 RMS     0.016258191
 Search for a local minimum.
 Step number   1 out of a maximum of   57
 All quantities printed in internal units (Hartrees-Bohrs-Radians)
 Mixed Optimization -- RFO/linear search
 Second derivative matrix not updated -- first step.
 ITU=  0
     Eigenvalues ---    0.02011   0.02011   0.02011   0.02011   0.02011
     Eigenvalues ---    0.02011   0.02011   0.02011   0.25000   0.25000
     Eigenvalues ---    0.25000   0.25000   0.25000   0.25000   0.25000
     Eigenvalues ---    0.25000   0.29033   0.29033   0.29033   0.29033
     Eigenvalues ---    0.29034   0.41212   0.41599   0.44656   0.44657
     Eigenvalues ---    0.44657   0.44657
 RFO step:  Lambda=-3.63558569D-02 EMin= 2.01067519D-02
 Linear search not attempted -- first point.
 Maximum step size (   0.300) exceeded in Quadratic search.
    -- Step size scaled by   0.911
 Iteration  1 RMS(Cart)=  0.04878255 RMS(Int)=  0.00080776
 Iteration  2 RMS(Cart)=  0.00111035 RMS(Int)=  0.00022983
 Iteration  3 RMS(Cart)=  0.00000041 RMS(Int)=  0.00022983
 ClnCor:  largest displacement from symmetrization is 4.01D-10 for atom     9.
 Variable       Old X    -DE/DX   Delta X   Delta X   Delta X     New X
                                 (Linear)    (Quad)   (Total)
    R1        2.65676  -0.00131   0.00000  -0.00046  -0.00078   2.65598
    R2        2.65677  -0.00131   0.00000  -0.00046  -0.00078   2.65599
    R3        3.33635  -0.04173   0.00000  -0.11636  -0.11636   3.21999
    R4        2.65677  -0.00598   0.00000  -0.01128  -0.01128   2.64549
    R5        3.33634  -0.04184   0.00000  -0.11667  -0.11667   3.21967
    R6        2.65677  -0.03267   0.00000  -0.06362  -0.06330   2.59347
    R7        3.33633  -0.04219   0.00000  -0.11765  -0.11765   3.21869
    R8        2.65678  -0.03267   0.00000  -0.06363  -0.06330   2.59347
    R9        2.65675  -0.00597   0.00000  -0.01126  -0.01126   2.64549
   R10        3.33632  -0.04219   0.00000  -0.11764  -0.11764   3.21869
   R11        3.33633  -0.04183   0.00000  -0.11666  -0.11666   3.21967
    A1        2.09439   0.00088   0.00000   0.01022   0.00953   2.10393
    A2        2.09439  -0.00044   0.00000  -0.00511  -0.00476   2.08963
    A3        2.09440  -0.00044   0.00000  -0.00511  -0.00477   2.08963
    A4        2.09439  -0.00343   0.00000  -0.00695  -0.00731   2.08708
    A5        2.09440   0.00208   0.00000   0.00464   0.00482   2.09922
    A6        2.09439   0.00135   0.00000   0.00231   0.00249   2.09688
    A7        2.09440  -0.01190   0.00000  -0.04076  -0.04048   2.05391
    A8        2.09440   0.00998   0.00000   0.03320   0.03306   2.12745
    A9        2.09439   0.00192   0.00000   0.00756   0.00742   2.10182
   A10        2.09439   0.02978   0.00000   0.08521   0.08606   2.18045
   A11        2.09439  -0.01190   0.00000  -0.04076  -0.04048   2.05391
   A12        2.09439   0.00192   0.00000   0.00756   0.00743   2.10181
   A13        2.09440   0.00998   0.00000   0.03320   0.03306   2.12746
   A14        2.09440  -0.00344   0.00000  -0.00695  -0.00732   2.08708
   A15        2.09439   0.00208   0.00000   0.00464   0.00482   2.09922
   A16        2.09439   0.00135   0.00000   0.00231   0.00249   2.09689
    D1        0.00000   0.00000   0.00000   0.00000   0.00000   0.00000
    D2        3.14159   0.00000   0.00000   0.00000   0.00000   3.14159
    D3        3.14159   0.00000   0.00000   0.00000   0.00000   3.14159
    D4        0.00000  -0.00000   0.00000   0.00000   0.00000   0.00000
    D5        0.00000   0.00000   0.00000   0.00000   0.00000   0.00000
    D6        3.14159   0.00000   0.00000   0.00000   0.00000   3.14159
    D7        3.14159   0.00000   0.00000   0.00000   0.00000   3.14159
    D8        0.00000   0.00000   0.00000   0.00000   0.00000   0.00000
    D9        0.00000  -0.00000   0.00000  -0.00000   0.00000   0.00000
   D10        3.14159  -0.00000   0.00000  -0.00000   0.00000   3.14159
   D11        3.14159  -0.00000   0.00000  -0.00000   0.00000   3.14159
   D12        0.00000  -0.00000   0.00000  -0.00000   0.00000   0.00000
   D13        0.00000   0.00000   0.00000   0.00000   0.00000   0.00000
   D14        3.14159   0.00000   0.00000   0.00000   0.00000   3.14159
   D15        0.00000   0.00000   0.00000   0.00000   0.00000   0.00000
   D16        3.14159   0.00000   0.00000   0.00000   0.00000   3.14159
   D17        0.00000  -0.00000   0.00000  -0.00000   0.00000   0.00000
   D18        3.14159  -0.00000   0.00000  -0.00000   0.00000   3.14159
   D19        3.14159  -0.00000   0.00000  -0.00000   0.00000   3.14159
   D20        0.00000  -0.00000   0.00000  -0.00000   0.00000   0.00000
         Item               Value     Threshold  Converged?
 Maximum Force            0.042187     0.000450     NO 
 RMS     Force            0.016258     0.000300     NO 
 Maximum Displacement     0.149447     0.001800     NO 
 RMS     Displacement     0.049179     0.001200     NO 
 Predicted change in Energy=-1.967703D-02
 GradGradGradGradGradGradGradGradGradGradGradGradGradGradGradGradGradGrad

                          Input orientation:                          
 ---------------------------------------------------------------------
 Center     Atomic      Atomic             Coordinates (Angstroms)
 Number     Number       Type             X           Y           Z
 ---------------------------------------------------------------------
      1          6           0       -3.210294    0.199980    0.000000
      2          6           0       -2.016385    0.941580    0.000000
      3          6           0       -0.786945    0.272035    0.000000
      4          6           0       -0.808304   -1.100203    0.000000
      5          6           0       -1.945559   -1.868417    0.000000
      6          6           0       -3.178393   -1.205146    0.000000
      7         17           0       -4.629907   -2.097314    0.000000
      8         17           0       -4.708791    1.011108    0.000000
      9         17           0       -1.838196   -3.568285    0.000000
     10         17           0       -2.063070    2.644717    0.000000
     11         17           0        0.695003    1.111626    0.000000
 ---------------------------------------------------------------------
                    Distance matrix (angstroms):
                    1          2          3          4          5
     1  C    0.000000
     2  C    1.405485   0.000000
     3  C    2.424420   1.399934   0.000000
     4  C    2.731305   2.372412   1.372404   0.000000
     5  C    2.424422   2.810890   2.433911   1.372407   0.000000
     6  C    1.405487   2.441043   2.810888   2.372411   1.399932
     7  Cl   2.700530   4.008163   4.514662   3.949542   2.694090
     8  Cl   1.703944   2.693304   3.990878   4.435249   3.990880
     9  Cl   4.010296   4.513384   3.981607   2.674343   1.703255
    10  Cl   2.700530   1.703777   2.694089   3.949540   4.514664
    11  Cl   4.010292   2.716715   1.703256   2.674345   3.981611
                    6          7          8          9         10
     6  C    0.000000
     7  Cl   1.703777   0.000000
     8  Cl   2.693306   3.109423   0.000000
     9  Cl   2.716718   3.155536   5.404735   0.000000
    10  Cl   4.008165   5.392172   3.109424   6.217071   0.000000
    11  Cl   4.513383   6.217070   5.404729   5.321529   3.155524
                   11
    11  Cl   0.000000
 Stoichiometry    C6Cl5(2)
 Framework group  CS[SG(C6Cl5)]
 Deg. of freedom    19
 Full point group                 CS      NOp   2
 Largest Abelian subgroup         CS      NOp   2
 Largest concise Abelian subgroup C1      NOp   1
                         Standard orientation:                         
 ---------------------------------------------------------------------
 Center     Atomic      Atomic             Coordinates (Angstroms)
 Number     Number       Type             X           Y           Z
 ---------------------------------------------------------------------
      1          6           0       -0.000000    0.972700    0.000000
      2          6           0        1.220521    0.275766    0.000000
      3          6           0        1.216954   -1.124163    0.000000
      4          6           0       -0.000000   -1.758605    0.000000
      5          6           0       -1.216958   -1.124164    0.000000
      6          6           0       -1.220523    0.275764    0.000000
      7         17           0       -2.696086    1.127569    0.000000
      8         17           0        0.000000    2.676644    0.000000
      9         17           0       -2.660763   -2.027769    0.000000
     10         17           0        2.696086    1.127566    0.000000
     11         17           0        2.660766   -2.027761    0.000000
 ---------------------------------------------------------------------
 Rotational constants (GHZ):           0.7141742           0.4702075           0.2835319
 Standard basis: VSTO-6G (5D, 7F)
 There are    33 symmetry adapted cartesian basis functions of A'  symmetry.
 There are    11 symmetry adapted cartesian basis functions of A"  symmetry.
 There are    33 symmetry adapted basis functions of A'  symmetry.
 There are    11 symmetry adapted basis functions of A"  symmetry.
    44 basis functions,   264 primitive gaussians,    44 cartesian basis functions
    30 alpha electrons       29 beta electrons
       nuclear repulsion energy       353.4827404601 Hartrees.
 Integral buffers will be    131072 words long.
 Regular integral format.
 Two-electron integral symmetry is turned off.
 Do NDO integrals.
 One-electron integrals computed using PRISM.
 NBasis=    44 RedAO= T EigKep=  1.00D+00  NBF=    33    11
 NBsUse=    44 1.00D-06 EigRej= -1.00D+00 NBFU=    33    11
 Initial guess from the checkpoint file:  "geometry_chks/12_456ClBzNeutralRadical.chk"
 B after Tr=    -0.000000    0.000000    0.000000
         Rot=    1.000000   -0.000000   -0.000000   -0.000000 Ang=  -0.00 deg.
 Initial guess orbital symmetries:
 Alpha Orbitals:
       Occupied  (A') (A') (A') (A') (A') (A') (A') (A') (A') (A')
                 (A') (A') (A') (A') (A") (A') (A') (A") (A") (A')
                 (A") (A") (A') (A') (A') (A') (A") (A') (A") (A")
       Virtual   (A") (A") (A') (A') (A') (A') (A') (A") (A') (A')
                 (A') (A') (A') (A')
 Beta  Orbitals:
       Occupied  (A') (A') (A') (A') (A') (A') (A') (A') (A') (A')
                 (A') (A') (A') (A') (A") (A') (A') (A") (A") (A")
                 (A") (A') (A') (A') (A') (A') (A") (A") (A")
       Virtual   (A') (A") (A") (A') (A') (A') (A') (A') (A") (A')
                 (A') (A') (A') (A') (A')
 Initial guess <Sx>= 0.0000 <Sy>= 0.0000 <Sz>= 0.5000 <S**2>= 1.3757 S= 0.7750
 Keep J ints in memory in canonical form, NReq=865421.
 Overlap will be assumed to be unity.
 Requested convergence on RMS density matrix=1.00D-08 within  32 cycles.
 Requested convergence on MAX density matrix=1.00D-06.
 Requested convergence on             energy=1.00D-06.
 No special actions if energy rises.
 Fock symm off for IB=2 I1=    1 I=   34 J=   20 Cut=1.00D-07 Err=3.50D-03
 Fock matrix is not symmetric: symmetry in diagonalization turned off.
 SCF Done:  E(UAM1) =  0.787722517400E-01 A.U. after   16 cycles
            NFock= 15  Conv=0.57D-08     -V/T= 1.0005
 <Sx>= 0.0000 <Sy>= 0.0000 <Sz>= 0.5000 <S**2>= 1.3294 S= 0.7568
 <L.S>=  0.00000000000    
 Annihilation of the first spin contaminant:
 S**2 before annihilation     1.3294,   after     1.0493
 QCSCF skips out because SCF is already converged.
 Calling FoFJK, ICntrl=      2127 FMM=F ISym2X=1 I1Cent= 0 IOpClX= 1 NMat=1 NMatS=1 NMatT=0.
 ***** Axes restored to original set *****
 -------------------------------------------------------------------
 Center     Atomic                   Forces (Hartrees/Bohr)
 Number     Number              X              Y              Z
 -------------------------------------------------------------------
      1        6          -0.015154662    0.008201980    0.000000000
      2        6          -0.007723267    0.022105599    0.000000000
      3        6           0.035421455    0.007529382    0.000000000
      4        6          -0.010328095    0.005588615    0.000000000
      5        6           0.013066398   -0.033772378    0.000000000
      6        6          -0.022732358   -0.005619583   -0.000000000
      7       17           0.008344847    0.004622738   -0.000000000
      8       17           0.007347646   -0.003977359   -0.000000000
      9       17          -0.000079400    0.010523840   -0.000000000
     10       17           0.000691997   -0.009514241   -0.000000000
     11       17          -0.008854562   -0.005688592   -0.000000000
 -------------------------------------------------------------------
 Cartesian Forces:  Max     0.035421455 RMS     0.011841752

 GradGradGradGradGradGradGradGradGradGradGradGradGradGradGradGradGradGrad
 Berny optimization.
 Using GEDIIS/GDIIS optimizer.
 FormGI is forming the generalized inverse of G from B-inverse, IUseBI=4.
 Internal  Forces:  Max     0.016604769 RMS     0.006243188
 Search for a local minimum.
 Step number   2 out of a maximum of   57
 All quantities printed in internal units (Hartrees-Bohrs-Radians)
 Mixed Optimization -- RFO/linear search
 Update second derivatives using D2CorX and points    1    2
 DE= -2.05D-02 DEPred=-1.97D-02 R= 1.04D+00
 TightC=F SS=  1.41D+00  RLast= 3.00D-01 DXNew= 5.0454D-01 8.9996D-01
 Trust test= 1.04D+00 RLast= 3.00D-01 DXMaxT set to 5.05D-01
 ITU=  1  0
 Use linear search instead of GDIIS.
     Eigenvalues ---    0.02011   0.02011   0.02011   0.02011   0.02011
     Eigenvalues ---    0.02011   0.02011   0.02011   0.19637   0.25000
     Eigenvalues ---    0.25000   0.25000   0.25000   0.25000   0.25000
     Eigenvalues ---    0.25015   0.27651   0.29033   0.29033   0.29034
     Eigenvalues ---    0.29073   0.40792   0.41294   0.44491   0.44656
     Eigenvalues ---    0.44657   0.59406
 RFO step:  Lambda=-5.22388023D-03 EMin= 2.01067339D-02
 Quartic linear search produced a step of  0.22306.
 Iteration  1 RMS(Cart)=  0.02149572 RMS(Int)=  0.00042098
 Iteration  2 RMS(Cart)=  0.00047551 RMS(Int)=  0.00016015
 Iteration  3 RMS(Cart)=  0.00000014 RMS(Int)=  0.00016015
 ClnCor:  largest displacement from symmetrization is 1.17D-10 for atom    11.
 Variable       Old X    -DE/DX   Delta X   Delta X   Delta X     New X
                                 (Linear)    (Quad)   (Total)
    R1        2.65598   0.01281  -0.00017   0.03525   0.03485   2.69083
    R2        2.65599   0.01281  -0.00017   0.03524   0.03485   2.69083
    R3        3.21999  -0.00836  -0.02596  -0.01705  -0.04301   3.17698
    R4        2.64549   0.01660  -0.00252   0.04626   0.04375   2.68924
    R5        3.21967  -0.00953  -0.02602  -0.02185  -0.04788   3.17179
    R6        2.59347   0.00596  -0.01412   0.02358   0.00969   2.60316
    R7        3.21869  -0.01051  -0.02624  -0.02575  -0.05199   3.16670
    R8        2.59347   0.00595  -0.01412   0.02358   0.00968   2.60316
    R9        2.64549   0.01660  -0.00251   0.04626   0.04375   2.68923
   R10        3.21869  -0.01051  -0.02624  -0.02575  -0.05199   3.16670
   R11        3.21967  -0.00953  -0.02602  -0.02186  -0.04788   3.17179
    A1        2.10393   0.00260   0.00213   0.01324   0.01489   2.11882
    A2        2.08963  -0.00130  -0.00106  -0.00662  -0.00745   2.08218
    A3        2.08963  -0.00130  -0.00106  -0.00662  -0.00745   2.08218
    A4        2.08708  -0.00084  -0.00163  -0.00158  -0.00346   2.08362
    A5        2.09922   0.00111   0.00108   0.00392   0.00512   2.10434
    A6        2.09688  -0.00027   0.00056  -0.00234  -0.00166   2.09523
    A7        2.05391  -0.00774  -0.00903  -0.03144  -0.04027   2.01365
    A8        2.12745   0.00481   0.00737   0.01817   0.02544   2.15289
    A9        2.10182   0.00293   0.00166   0.01327   0.01483   2.11664
   A10        2.18045   0.01456   0.01920   0.05279   0.07257   2.25302
   A11        2.05391  -0.00774  -0.00903  -0.03144  -0.04027   2.01365
   A12        2.10181   0.00293   0.00166   0.01327   0.01483   2.11664
   A13        2.12746   0.00481   0.00737   0.01816   0.02543   2.15289
   A14        2.08708  -0.00084  -0.00163  -0.00158  -0.00347   2.08362
   A15        2.09922   0.00111   0.00108   0.00392   0.00512   2.10434
   A16        2.09689  -0.00028   0.00056  -0.00234  -0.00166   2.09523
    D1        0.00000  -0.00000   0.00000  -0.00000   0.00000   0.00000
    D2        3.14159  -0.00000   0.00000  -0.00000   0.00000   3.14159
    D3        3.14159   0.00000   0.00000   0.00000   0.00000   3.14159
    D4        0.00000  -0.00000   0.00000  -0.00000   0.00000   0.00000
    D5        0.00000   0.00000   0.00000   0.00000   0.00000   0.00000
    D6        3.14159   0.00000   0.00000   0.00000   0.00000   3.14159
    D7        3.14159  -0.00000   0.00000  -0.00000   0.00000   3.14159
    D8        0.00000  -0.00000   0.00000  -0.00000   0.00000   0.00000
    D9        0.00000   0.00000   0.00000   0.00000   0.00000   0.00000
   D10        3.14159  -0.00000   0.00000  -0.00000   0.00000   3.14159
   D11        3.14159   0.00000   0.00000   0.00000   0.00000   3.14159
   D12        0.00000  -0.00000   0.00000  -0.00000   0.00000   0.00000
   D13        0.00000   0.00000   0.00000   0.00000   0.00000   0.00000
   D14        3.14159   0.00000   0.00000   0.00000   0.00000   3.14159
   D15        0.00000  -0.00000   0.00000  -0.00000   0.00000   0.00000
   D16        3.14159  -0.00000   0.00000  -0.00000   0.00000   3.14159
   D17        0.00000  -0.00000   0.00000  -0.00000   0.00000   0.00000
   D18        3.14159  -0.00000   0.00000  -0.00000   0.00000   3.14159
   D19        3.14159   0.00000   0.00000   0.00000   0.00000   3.14159
   D20        0.00000   0.00000   0.00000   0.00000   0.00000   0.00000
         Item               Value     Threshold  Converged?
 Maximum Force            0.016605     0.000450     NO 
 RMS     Force            0.006243     0.000300     NO 
 Maximum Displacement     0.056708     0.001800     NO 
 RMS     Displacement     0.021472     0.001200     NO 
 Predicted change in Energy=-3.710575D-03
 GradGradGradGradGradGradGradGradGradGradGradGradGradGradGradGradGradGrad

                          Input orientation:                          
 ---------------------------------------------------------------------
 Center     Atomic      Atomic             Coordinates (Angstroms)
 Number     Number       Type             X           Y           Z
 ---------------------------------------------------------------------
      1          6           0       -3.221915    0.206270    0.000000
      2          6           0       -2.017969    0.966587    0.000000
      3          6           0       -0.765498    0.290952    0.000000
      4          6           0       -0.836892   -1.084728    0.000000
      5          6           0       -1.949669   -1.896714    0.000000
      6          6           0       -3.200196   -1.217491    0.000000
      7         17           0       -4.632160   -2.093072    0.000000
      8         17           0       -4.700397    1.006562    0.000000
      9         17           0       -1.808187   -3.566476    0.000000
     10         17           0       -2.067860    2.644285    0.000000
     11         17           0        0.709902    1.085506    0.000000
 ---------------------------------------------------------------------
                    Distance matrix (angstroms):
                    1          2          3          4          5
     1  C    0.000000
     2  C    1.423927   0.000000
     3  C    2.457876   1.423083   0.000000
     4  C    2.712012   2.367031   1.377532   0.000000
     5  C    2.457875   2.864115   2.487598   1.377532   0.000000
     6  C    1.423927   2.483517   2.864115   2.367030   1.423081
     7  Cl   2.697362   4.024364   4.542537   3.926935   2.689668
     8  Cl   1.681183   2.682726   3.999441   4.393196   3.999439
     9  Cl   4.028925   4.537914   3.995867   2.665049   1.675745
    10  Cl   2.697362   1.678440   2.689669   3.926936   4.542537
    11  Cl   4.028925   2.730462   1.675745   2.665050   3.995867
                    6          7          8          9         10
     6  C    0.000000
     7  Cl   1.678441   0.000000
     8  Cl   2.682725   3.100384   0.000000
     9  Cl   2.730461   3.185238   5.410873   0.000000
    10  Cl   4.024364   5.386853   3.100386   6.216187   0.000000
    11  Cl   4.537914   6.216187   5.410875   5.289774   3.185240
                   11
    11  Cl   0.000000
 Stoichiometry    C6Cl5(2)
 Framework group  CS[SG(C6Cl5)]
 Deg. of freedom    19
 Full point group                 CS      NOp   2
 Largest Abelian subgroup         CS      NOp   2
 Largest concise Abelian subgroup C1      NOp   1
                         Standard orientation:                         
 ---------------------------------------------------------------------
 Center     Atomic      Atomic             Coordinates (Angstroms)
 Number     Number       Type             X           Y           Z
 ---------------------------------------------------------------------
      1          6           0        0.000000    0.990696   -0.000000
      2          6           0        1.241759    0.293845   -0.000000
      3          6           0        1.243799   -1.129237    0.000000
      4          6           0        0.000000   -1.721316    0.000000
      5          6           0       -1.243799   -1.129236    0.000000
      6          6           0       -1.241758    0.293843    0.000000
      7         17           0       -2.693427    1.136352    0.000000
      8         17           0       -0.000002    2.671880   -0.000000
      9         17           0       -2.644886   -2.048516    0.000000
     10         17           0        2.693426    1.136354   -0.000000
     11         17           0        2.644888   -2.048516    0.000000
 ---------------------------------------------------------------------
 Rotational constants (GHZ):           0.7083639           0.4719875           0.2832537
 Standard basis: VSTO-6G (5D, 7F)
 There are    33 symmetry adapted cartesian basis functions of A'  symmetry.
 There are    11 symmetry adapted cartesian basis functions of A"  symmetry.
 There are    33 symmetry adapted basis functions of A'  symmetry.
 There are    11 symmetry adapted basis functions of A"  symmetry.
    44 basis functions,   264 primitive gaussians,    44 cartesian basis functions
    30 alpha electrons       29 beta electrons
       nuclear repulsion energy       353.3624490758 Hartrees.
 Integral buffers will be    131072 words long.
 Regular integral format.
 Two-electron integral symmetry is turned off.
 Do NDO integrals.
 One-electron integrals computed using PRISM.
 NBasis=    44 RedAO= T EigKep=  1.00D+00  NBF=    33    11
 NBsUse=    44 1.00D-06 EigRej= -1.00D+00 NBFU=    33    11
 Initial guess from the checkpoint file:  "geometry_chks/12_456ClBzNeutralRadical.chk"
 B after Tr=     0.000000   -0.000000    0.000000
         Rot=    1.000000   -0.000000    0.000000    0.000000 Ang=   0.00 deg.
 Initial guess orbital symmetries:
 Alpha Orbitals:
       Occupied  (A') (A') (A') (A') (A') (A') (A') (A') (A') (A')
                 (A') (A') (A') (A') (A") (A') (A') (A") (A") (A')
                 (A") (A") (A') (A') (A') (A') (A") (A') (A") (A")
       Virtual   (A") (A") (A') (A') (A') (A') (A') (A") (A') (A')
                 (A') (A') (A') (A')
 Beta  Orbitals:
       Occupied  (A') (A') (A') (A') (A') (A') (A') (A') (A') (A')
                 (A') (A') (A') (A') (A") (A') (A') (A") (A") (A")
                 (A") (A') (A') (A') (A') (A') (A") (A") (A")
       Virtual   (A') (A") (A") (A') (A') (A') (A') (A') (A") (A')
                 (A') (A') (A') (A') (A')
 Initial guess <Sx>= 0.0000 <Sy>= 0.0000 <Sz>= 0.5000 <S**2>= 1.3294 S= 0.7568
 Keep J ints in memory in canonical form, NReq=865421.
 Overlap will be assumed to be unity.
 Requested convergence on RMS density matrix=1.00D-08 within  32 cycles.
 Requested convergence on MAX density matrix=1.00D-06.
 Requested convergence on             energy=1.00D-06.
 No special actions if energy rises.
 Fock symm off for IB=2 I1=    1 I=   34 J=   24 Cut=1.00D-07 Err=1.60D-03
 Fock matrix is not symmetric: symmetry in diagonalization turned off.
 SCF Done:  E(UAM1) =  0.759775162308E-01 A.U. after   16 cycles
            NFock= 15  Conv=0.64D-08     -V/T= 1.0005
 <Sx>= 0.0000 <Sy>= 0.0000 <Sz>= 0.5000 <S**2>= 1.4545 S= 0.8056
 <L.S>=  0.00000000000    
 Annihilation of the first spin contaminant:
 S**2 before annihilation     1.4545,   after     1.2160
 QCSCF skips out because SCF is already converged.
 Calling FoFJK, ICntrl=      2127 FMM=F ISym2X=1 I1Cent= 0 IOpClX= 1 NMat=1 NMatS=1 NMatT=0.
 ***** Axes restored to original set *****
 -------------------------------------------------------------------
 Center     Atomic                   Forces (Hartrees/Bohr)
 Number     Number              X              Y              Z
 -------------------------------------------------------------------
      1        6           0.011003292   -0.005955938    0.000000000
      2        6          -0.003162478   -0.008357831    0.000000000
      3        6          -0.002415760   -0.004178571    0.000000000
      4        6          -0.007013129    0.003796562    0.000000000
      5        6           0.002178671    0.004306716   -0.000000000
      6        6           0.005267263    0.007218143   -0.000000000
      7       17          -0.002019771   -0.001823057   -0.000000000
      8       17          -0.003667273    0.001985166   -0.000000000
      9       17          -0.000862559   -0.000885532   -0.000000000
     10       17           0.000422046    0.002688006   -0.000000000
     11       17           0.000269697    0.001206336   -0.000000000
 -------------------------------------------------------------------
 Cartesian Forces:  Max     0.011003292 RMS     0.003740389

 GradGradGradGradGradGradGradGradGradGradGradGradGradGradGradGradGradGrad
 Berny optimization.
 Using GEDIIS/GDIIS optimizer.
 FormGI is forming the generalized inverse of G from B-inverse, IUseBI=4.
 Internal  Forces:  Max     0.007111895 RMS     0.002316375
 Search for a local minimum.
 Step number   3 out of a maximum of   57
 All quantities printed in internal units (Hartrees-Bohrs-Radians)
 Mixed Optimization -- RFO/linear search
 Update second derivatives using D2CorX and points    1    2    3
 DE= -2.79D-03 DEPred=-3.71D-03 R= 7.53D-01
 TightC=F SS=  1.41D+00  RLast= 1.70D-01 DXNew= 8.4853D-01 5.1037D-01
 Trust test= 7.53D-01 RLast= 1.70D-01 DXMaxT set to 5.10D-01
 ITU=  1  1  0
 Use linear search instead of GDIIS.
     Eigenvalues ---    0.02011   0.02011   0.02011   0.02011   0.02011
     Eigenvalues ---    0.02011   0.02011   0.02011   0.19110   0.25000
     Eigenvalues ---    0.25000   0.25000   0.25000   0.25000   0.25000
     Eigenvalues ---    0.25167   0.28710   0.29033   0.29033   0.29034
     Eigenvalues ---    0.32603   0.41295   0.41468   0.44623   0.44656
     Eigenvalues ---    0.44657   0.62612
 RFO step:  Lambda=-3.10558771D-04 EMin= 2.01067185D-02
 Quartic linear search produced a step of -0.15704.
 Iteration  1 RMS(Cart)=  0.00467907 RMS(Int)=  0.00001934
 Iteration  2 RMS(Cart)=  0.00001296 RMS(Int)=  0.00001720
 Iteration  3 RMS(Cart)=  0.00000000 RMS(Int)=  0.00001720
 ClnCor:  largest displacement from symmetrization is 4.04D-12 for atom    10.
 Variable       Old X    -DE/DX   Delta X   Delta X   Delta X     New X
                                 (Linear)    (Quad)   (Total)
    R1        2.69083  -0.00711  -0.00547  -0.00714  -0.01259   2.67824
    R2        2.69083  -0.00711  -0.00547  -0.00714  -0.01259   2.67824
    R3        3.17698   0.00417   0.00675   0.00611   0.01287   3.18984
    R4        2.68924  -0.00446  -0.00687  -0.00005  -0.00692   2.68232
    R5        3.17179   0.00267   0.00752   0.00077   0.00829   3.18008
    R6        2.60316  -0.00543  -0.00152  -0.00732  -0.00887   2.59429
    R7        3.16670   0.00081   0.00816  -0.00551   0.00265   3.16935
    R8        2.60316  -0.00543  -0.00152  -0.00732  -0.00887   2.59429
    R9        2.68923  -0.00446  -0.00687  -0.00005  -0.00691   2.68232
   R10        3.16670   0.00081   0.00816  -0.00551   0.00265   3.16935
   R11        3.17179   0.00267   0.00752   0.00077   0.00829   3.18008
    A1        2.11882   0.00096  -0.00234   0.00552   0.00323   2.12205
    A2        2.08218  -0.00048   0.00117  -0.00276  -0.00161   2.08057
    A3        2.08218  -0.00048   0.00117  -0.00276  -0.00161   2.08057
    A4        2.08362   0.00007   0.00054  -0.00055   0.00003   2.08364
    A5        2.10434   0.00076  -0.00080   0.00363   0.00281   2.10715
    A6        2.09523  -0.00083   0.00026  -0.00308  -0.00284   2.09239
    A7        2.01365  -0.00125   0.00632  -0.01111  -0.00481   2.00883
    A8        2.15289  -0.00085  -0.00400   0.00128  -0.00270   2.15019
    A9        2.11664   0.00211  -0.00233   0.00983   0.00752   2.12416
   A10        2.25302   0.00141  -0.01140   0.01781   0.00635   2.25937
   A11        2.01365  -0.00125   0.00632  -0.01111  -0.00481   2.00883
   A12        2.11664   0.00211  -0.00233   0.00983   0.00752   2.12416
   A13        2.15289  -0.00085  -0.00399   0.00128  -0.00270   2.15019
   A14        2.08362   0.00007   0.00054  -0.00055   0.00002   2.08364
   A15        2.10434   0.00076  -0.00080   0.00363   0.00281   2.10715
   A16        2.09523  -0.00083   0.00026  -0.00308  -0.00284   2.09239
    D1       -0.00000  -0.00000   0.00000  -0.00000   0.00000   0.00000
    D2        3.14159  -0.00000   0.00000  -0.00000   0.00000   3.14159
    D3        3.14159   0.00000   0.00000   0.00000   0.00000   3.14159
    D4       -0.00000  -0.00000   0.00000  -0.00000   0.00000   0.00000
    D5        0.00000   0.00000   0.00000   0.00000   0.00000   0.00000
    D6        3.14159   0.00000   0.00000   0.00000   0.00000   3.14159
    D7        3.14159  -0.00000   0.00000  -0.00000   0.00000   3.14159
    D8       -0.00000  -0.00000   0.00000  -0.00000   0.00000   0.00000
    D9       -0.00000   0.00000   0.00000   0.00000   0.00000   0.00000
   D10        3.14159  -0.00000   0.00000  -0.00000   0.00000   3.14159
   D11        3.14159   0.00000   0.00000   0.00000   0.00000   3.14159
   D12        0.00000  -0.00000   0.00000  -0.00000   0.00000   0.00000
   D13        0.00000   0.00000   0.00000   0.00000  -0.00000   0.00000
   D14        3.14159   0.00000   0.00000   0.00000   0.00000   3.14159
   D15        0.00000  -0.00000   0.00000  -0.00000   0.00000   0.00000
   D16        3.14159  -0.00000   0.00000  -0.00000   0.00000   3.14159
   D17       -0.00000  -0.00000   0.00000  -0.00000   0.00000   0.00000
   D18        3.14159  -0.00000   0.00000  -0.00000   0.00000   3.14159
   D19        3.14159   0.00000   0.00000   0.00000   0.00000   3.14159
   D20        0.00000   0.00000   0.00000   0.00000   0.00000   0.00000
         Item               Value     Threshold  Converged?
 Maximum Force            0.007112     0.000450     NO 
 RMS     Force            0.002316     0.000300     NO 
 Maximum Displacement     0.013591     0.001800     NO 
 RMS     Displacement     0.004681     0.001200     NO 
 Predicted change in Energy=-2.541766D-04
 GradGradGradGradGradGradGradGradGradGradGradGradGradGradGradGradGradGrad

                          Input orientation:                          
 ---------------------------------------------------------------------
 Center     Atomic      Atomic             Coordinates (Angstroms)
 Number     Number       Type             X           Y           Z
 ---------------------------------------------------------------------
      1          6           0       -3.214723    0.202377    0.000000
      2          6           0       -2.017632    0.961070    0.000000
      3          6           0       -0.767280    0.289222   -0.000000
      4          6           0       -0.842781   -1.081540   -0.000000
      5          6           0       -1.949194   -1.894277   -0.000000
      6          6           0       -3.195393   -1.214758    0.000000
      7         17           0       -4.630046   -2.094345    0.000000
      8         17           0       -4.699192    1.005910    0.000000
      9         17           0       -1.814852   -3.566036   -0.000000
     10         17           0       -2.065637    2.643210    0.000000
     11         17           0        0.705889    1.090847   -0.000000
 ---------------------------------------------------------------------
                    Distance matrix (angstroms):
                    1          2          3          4          5
     1  C    0.000000
     2  C    1.417266   0.000000
     3  C    2.448983   1.419422   0.000000
     4  C    2.697138   2.356381   1.372840   0.000000
     5  C    2.448983   2.856167   2.482859   1.372840   0.000000
     6  C    1.417266   2.474136   2.856167   2.356381   1.419422
     7  Cl   2.697790   4.019984   4.538981   3.920350   2.688307
     8  Cl   1.687992   2.681935   3.996696   4.385129   3.996696
     9  Cl   4.020022   4.531646   3.995050   2.667891   1.677149
    10  Cl   2.697790   1.682825   2.688307   3.920350   4.538981
    11  Cl   4.020022   2.726611   1.677149   2.667891   3.995050
                    6          7          8          9         10
     6  C    0.000000
     7  Cl   1.682825   0.000000
     8  Cl   2.681935   3.101027   0.000000
     9  Cl   2.726611   3.176664   5.405749   0.000000
    10  Cl   4.019983   5.387080   3.101027   6.214309   0.000000
    11  Cl   4.531646   6.214309   5.405748   5.295346   3.176663
                   11
    11  Cl   0.000000
 Stoichiometry    C6Cl5(2)
 Framework group  CS[SG(C6Cl5)]
 Deg. of freedom    19
 Full point group                 CS      NOp   2
 Largest Abelian subgroup         CS      NOp   2
 Largest concise Abelian subgroup C1      NOp   1
                         Standard orientation:                         
 ---------------------------------------------------------------------
 Center     Atomic      Atomic             Coordinates (Angstroms)
 Number     Number       Type             X           Y           Z
 ---------------------------------------------------------------------
      1          6           0        0.000000    0.981988   -0.000000
      2          6           0        1.237068    0.290391   -0.000000
      3          6           0        1.241429   -1.129025   -0.000000
      4          6           0        0.000000   -1.715150    0.000000
      5          6           0       -1.241429   -1.129025    0.000000
      6          6           0       -1.237068    0.290391    0.000000
      7         17           0       -2.693540    1.133356    0.000000
      8         17           0       -0.000000    2.669979   -0.000000
      9         17           0       -2.647673   -2.042976    0.000000
     10         17           0        2.693540    1.133356   -0.000000
     11         17           0        2.647673   -2.042975   -0.000000
 ---------------------------------------------------------------------
 Rotational constants (GHZ):           0.7112914           0.4716996           0.2836166
 Standard basis: VSTO-6G (5D, 7F)
 There are    33 symmetry adapted cartesian basis functions of A'  symmetry.
 There are    11 symmetry adapted cartesian basis functions of A"  symmetry.
 There are    33 symmetry adapted basis functions of A'  symmetry.
 There are    11 symmetry adapted basis functions of A"  symmetry.
    44 basis functions,   264 primitive gaussians,    44 cartesian basis functions
    30 alpha electrons       29 beta electrons
       nuclear repulsion energy       353.5643373679 Hartrees.
 Integral buffers will be    131072 words long.
 Regular integral format.
 Two-electron integral symmetry is turned off.
 Do NDO integrals.
 One-electron integrals computed using PRISM.
 NBasis=    44 RedAO= T EigKep=  1.00D+00  NBF=    33    11
 NBsUse=    44 1.00D-06 EigRej= -1.00D+00 NBFU=    33    11
 Initial guess from the checkpoint file:  "geometry_chks/12_456ClBzNeutralRadical.chk"
 B after Tr=    -0.000000    0.000000   -0.000000
         Rot=    1.000000   -0.000000    0.000000    0.000000 Ang=   0.00 deg.
 Initial guess orbital symmetries:
 Alpha Orbitals:
       Occupied  (A') (A') (A') (A') (A') (A') (A') (A') (A') (A')
                 (A') (A') (A') (A') (A") (A') (A') (A") (A") (A")
                 (A') (A") (A') (A') (A') (A') (A") (A') (A") (A")
       Virtual   (A") (A") (A') (A') (A') (A') (A') (A") (A') (A')
                 (A') (A') (A') (A')
 Beta  Orbitals:
       Occupied  (A') (A') (A') (A') (A') (A') (A') (A') (A') (A')
                 (A') (A') (A') (A') (A") (A') (A') (A") (A") (A")
                 (A") (A') (A') (A') (A') (A') (A") (A") (A")
       Virtual   (A') (A") (A") (A') (A') (A') (A') (A') (A") (A')
                 (A') (A') (A') (A') (A')
 Initial guess <Sx>= 0.0000 <Sy>= 0.0000 <Sz>= 0.5000 <S**2>= 1.4545 S= 0.8056
 Keep J ints in memory in canonical form, NReq=865421.
 Overlap will be assumed to be unity.
 Requested convergence on RMS density matrix=1.00D-08 within  32 cycles.
 Requested convergence on MAX density matrix=1.00D-06.
 Requested convergence on             energy=1.00D-06.
 No special actions if energy rises.
 Fock symm off for IB=2 I1=    1 I=   34 J=   16 Cut=1.00D-07 Err=4.11D-04
 Fock matrix is not symmetric: symmetry in diagonalization turned off.
 SCF Done:  E(UAM1) =  0.757058545623E-01 A.U. after   14 cycles
            NFock= 13  Conv=0.73D-08     -V/T= 1.0005
 <Sx>= 0.0000 <Sy>= 0.0000 <Sz>= 0.5000 <S**2>= 1.4182 S= 0.7916
 <L.S>=  0.00000000000    
 Annihilation of the first spin contaminant:
 S**2 before annihilation     1.4182,   after     1.1636
 QCSCF skips out because SCF is already converged.
 Calling FoFJK, ICntrl=      2127 FMM=F ISym2X=1 I1Cent= 0 IOpClX= 1 NMat=1 NMatS=1 NMatT=0.
 ***** Axes restored to original set *****
 -------------------------------------------------------------------
 Center     Atomic                   Forces (Hartrees/Bohr)
 Number     Number              X              Y              Z
 -------------------------------------------------------------------
      1        6           0.001885359   -0.001020624    0.000000000
      2        6          -0.001861997   -0.000216494    0.000000000
      3        6           0.001599557   -0.000356645    0.000000000
      4        6          -0.000227040    0.000122803   -0.000000000
      5        6           0.001173480   -0.001144367    0.000000000
      6        6          -0.000837025    0.001677438    0.000000000
      7       17          -0.000548362   -0.000515597   -0.000000000
      8       17          -0.001068291    0.000578257   -0.000000000
      9       17          -0.000265282   -0.000194295   -0.000000000
     10       17           0.000131842    0.000741162   -0.000000000
     11       17           0.000017759    0.000328362   -0.000000000
 -------------------------------------------------------------------
 Cartesian Forces:  Max     0.001885359 RMS     0.000776330

 GradGradGradGradGradGradGradGradGradGradGradGradGradGradGradGradGradGrad
 Berny optimization.
 Using GEDIIS/GDIIS optimizer.
 FormGI is forming the generalized inverse of G from B-inverse, IUseBI=4.
 Internal  Forces:  Max     0.001307193 RMS     0.000424829
 Search for a local minimum.
 Step number   4 out of a maximum of   57
 All quantities printed in internal units (Hartrees-Bohrs-Radians)
 Mixed Optimization -- En-DIIS/RFO-DIIS
 Update second derivatives using D2CorX and points    1    2    3    4
 DE= -2.72D-04 DEPred=-2.54D-04 R= 1.07D+00
 TightC=F SS=  1.41D+00  RLast= 3.39D-02 DXNew= 8.5834D-01 1.0167D-01
 Trust test= 1.07D+00 RLast= 3.39D-02 DXMaxT set to 5.10D-01
 ITU=  1  1  1  0
 Use linear search instead of GDIIS.
     Eigenvalues ---    0.02011   0.02011   0.02011   0.02011   0.02011
     Eigenvalues ---    0.02011   0.02011   0.02011   0.18492   0.24551
     Eigenvalues ---    0.25000   0.25000   0.25000   0.25000   0.25000
     Eigenvalues ---    0.25004   0.28516   0.29032   0.29033   0.29034
     Eigenvalues ---    0.29718   0.40759   0.41460   0.42857   0.44656
     Eigenvalues ---    0.44657   0.72905
 RFO step:  Lambda=-2.19727540D-05 EMin= 2.01067169D-02
 Quartic linear search produced a step of  0.06469.
 Iteration  1 RMS(Cart)=  0.00138617 RMS(Int)=  0.00000135
 Iteration  2 RMS(Cart)=  0.00000146 RMS(Int)=  0.00000007
 Iteration  3 RMS(Cart)=  0.00000000 RMS(Int)=  0.00000007
 ClnCor:  largest displacement from symmetrization is 1.28D-11 for atom    11.
 Variable       Old X    -DE/DX   Delta X   Delta X   Delta X     New X
                                 (Linear)    (Quad)   (Total)
    R1        2.67824  -0.00044  -0.00081  -0.00104  -0.00185   2.67639
    R2        2.67824  -0.00044  -0.00081  -0.00104  -0.00185   2.67639
    R3        3.18984   0.00121   0.00083   0.00335   0.00418   3.19402
    R4        2.68232   0.00131  -0.00045   0.00297   0.00253   2.68485
    R5        3.18008   0.00074   0.00054   0.00171   0.00225   3.18233
    R6        2.59429   0.00051  -0.00057   0.00092   0.00035   2.59464
    R7        3.16935   0.00017   0.00017  -0.00023  -0.00006   3.16930
    R8        2.59429   0.00051  -0.00057   0.00092   0.00035   2.59464
    R9        2.68232   0.00131  -0.00045   0.00297   0.00253   2.68485
   R10        3.16935   0.00017   0.00017  -0.00023  -0.00006   3.16930
   R11        3.18008   0.00074   0.00054   0.00171   0.00225   3.18233
    A1        2.12205   0.00039   0.00021   0.00127   0.00148   2.12353
    A2        2.08057  -0.00020  -0.00010  -0.00064  -0.00074   2.07983
    A3        2.08057  -0.00020  -0.00010  -0.00064  -0.00074   2.07983
    A4        2.08364   0.00004   0.00000  -0.00005  -0.00005   2.08359
    A5        2.10715   0.00022   0.00018   0.00100   0.00118   2.10833
    A6        2.09239  -0.00027  -0.00018  -0.00094  -0.00113   2.09126
    A7        2.00883  -0.00030  -0.00031  -0.00119  -0.00150   2.00734
    A8        2.15019  -0.00030  -0.00017  -0.00110  -0.00127   2.14892
    A9        2.12416   0.00059   0.00049   0.00228   0.00277   2.12693
   A10        2.25937   0.00011   0.00041   0.00121   0.00162   2.26099
   A11        2.00883  -0.00030  -0.00031  -0.00119  -0.00150   2.00734
   A12        2.12416   0.00059   0.00049   0.00228   0.00277   2.12693
   A13        2.15019  -0.00030  -0.00017  -0.00110  -0.00127   2.14892
   A14        2.08364   0.00004   0.00000  -0.00005  -0.00005   2.08359
   A15        2.10715   0.00022   0.00018   0.00100   0.00118   2.10833
   A16        2.09239  -0.00027  -0.00018  -0.00094  -0.00113   2.09126
    D1       -0.00000  -0.00000   0.00000  -0.00000   0.00000   0.00000
    D2        3.14159  -0.00000   0.00000  -0.00000   0.00000   3.14159
    D3        3.14159   0.00000   0.00000   0.00000   0.00000   3.14159
    D4        0.00000   0.00000   0.00000   0.00000  -0.00000   0.00000
    D5        0.00000  -0.00000   0.00000  -0.00000  -0.00000   0.00000
    D6        3.14159   0.00000   0.00000   0.00000   0.00000   3.14159
    D7        3.14159  -0.00000   0.00000  -0.00000   0.00000   3.14159
    D8        0.00000  -0.00000   0.00000  -0.00000   0.00000   0.00000
    D9        0.00000   0.00000   0.00000   0.00000  -0.00000   0.00000
   D10        3.14159  -0.00000   0.00000  -0.00000   0.00000   3.14159
   D11        3.14159   0.00000   0.00000   0.00000   0.00000   3.14159
   D12       -0.00000   0.00000   0.00000   0.00000   0.00000   0.00000
   D13       -0.00000  -0.00000   0.00000  -0.00000   0.00000   0.00000
   D14        3.14159   0.00000   0.00000   0.00000   0.00000   3.14159
   D15        0.00000   0.00000   0.00000   0.00000   0.00000   0.00000
   D16        3.14159  -0.00000   0.00000  -0.00000   0.00000   3.14159
   D17        0.00000   0.00000   0.00000   0.00000  -0.00000   0.00000
   D18        3.14159  -0.00000   0.00000  -0.00000   0.00000   3.14159
   D19        3.14159   0.00000   0.00000   0.00000   0.00000   3.14159
   D20       -0.00000   0.00000   0.00000   0.00000   0.00000   0.00000
         Item               Value     Threshold  Converged?
 Maximum Force            0.001307     0.000450     NO 
 RMS     Force            0.000425     0.000300     NO 
 Maximum Displacement     0.005360     0.001800     NO 
 RMS     Displacement     0.001386     0.001200     NO 
 Predicted change in Energy=-1.205139D-05
 GradGradGradGradGradGradGradGradGradGradGradGradGradGradGradGradGradGrad

                          Input orientation:                          
 ---------------------------------------------------------------------
 Center     Atomic      Atomic             Coordinates (Angstroms)
 Number     Number       Type             X           Y           Z
 ---------------------------------------------------------------------
      1          6           0       -3.213566    0.201751   -0.000000
      2          6           0       -2.017864    0.960805    0.000000
      3          6           0       -0.765870    0.289187    0.000000
      4          6           0       -0.842489   -1.081698   -0.000000
      5          6           0       -1.948394   -1.895438   -0.000000
      6          6           0       -3.195298   -1.214419   -0.000000
      7         17           0       -4.630579   -2.095257   -0.000000
      8         17           0       -4.699981    1.006337   -0.000000
      9         17           0       -1.817331   -3.567428   -0.000000
     10         17           0       -2.065165    2.644156    0.000000
     11         17           0        0.705698    1.093683    0.000000
 ---------------------------------------------------------------------
                    Distance matrix (angstroms):
                    1          2          3          4          5
     1  C    0.000000
     2  C    1.416287   0.000000
     3  C    2.449257   1.420760   0.000000
     4  C    2.696154   2.356549   1.373025   0.000000
     5  C    2.449257   2.857088   2.484139   1.373025   0.000000
     6  C    1.416287   2.473449   2.857088   2.356549   1.420760
     7  Cl   2.698920   4.020671   4.541096   3.921342   2.689618
     8  Cl   1.690204   2.682504   3.998941   4.386357   3.998941
     9  Cl   4.019475   4.532671   3.997380   2.670050   1.677119
    10  Cl   2.698920   1.684015   2.689618   3.921342   4.541095
    11  Cl   4.019475   2.726801   1.677119   2.670050   3.997380
                    6          7          8          9         10
     6  C    0.000000
     7  Cl   1.684015   0.000000
     8  Cl   2.682504   3.102370   0.000000
     9  Cl   2.726801   3.175162   5.406385   0.000000
    10  Cl   4.020672   5.389191   3.102370   6.216526   0.000000
    11  Cl   4.532671   6.216526   5.406385   5.300154   3.175162
                   11
    11  Cl   0.000000
 Stoichiometry    C6Cl5(2)
 Framework group  CS[SG(C6Cl5)]
 Deg. of freedom    19
 Full point group                 CS      NOp   2
 Largest Abelian subgroup         CS      NOp   2
 Largest concise Abelian subgroup C1      NOp   1
                         Standard orientation:                         
 ---------------------------------------------------------------------
 Center     Atomic      Atomic             Coordinates (Angstroms)
 Number     Number       Type             X           Y           Z
 ---------------------------------------------------------------------
      1          6           0       -0.000000    0.980308   -0.000000
      2          6           0        1.236725    0.290105   -0.000000
      3          6           0        1.242070   -1.130645   -0.000000
      4          6           0       -0.000000   -1.715846    0.000000
      5          6           0       -1.242070   -1.130645    0.000000
      6          6           0       -1.236725    0.290105    0.000000
      7         17           0       -2.694596    1.133028    0.000000
      8         17           0       -0.000000    2.670512   -0.000000
      9         17           0       -2.650077   -2.041822    0.000000
     10         17           0        2.694596    1.133028   -0.000000
     11         17           0        2.650077   -2.041822   -0.000000
 ---------------------------------------------------------------------
 Rotational constants (GHZ):           0.7115010           0.4711252           0.2834421
 Standard basis: VSTO-6G (5D, 7F)
 There are    33 symmetry adapted cartesian basis functions of A'  symmetry.
 There are    11 symmetry adapted cartesian basis functions of A"  symmetry.
 There are    33 symmetry adapted basis functions of A'  symmetry.
 There are    11 symmetry adapted basis functions of A"  symmetry.
    44 basis functions,   264 primitive gaussians,    44 cartesian basis functions
    30 alpha electrons       29 beta electrons
       nuclear repulsion energy       353.5004670014 Hartrees.
 Integral buffers will be    131072 words long.
 Regular integral format.
 Two-electron integral symmetry is turned off.
 Do NDO integrals.
 One-electron integrals computed using PRISM.
 NBasis=    44 RedAO= T EigKep=  1.00D+00  NBF=    33    11
 NBsUse=    44 1.00D-06 EigRej= -1.00D+00 NBFU=    33    11
 Initial guess from the checkpoint file:  "geometry_chks/12_456ClBzNeutralRadical.chk"
 B after Tr=     0.000000   -0.000000    0.000000
         Rot=    1.000000   -0.000000    0.000000    0.000000 Ang=   0.00 deg.
 Initial guess orbital symmetries:
 Alpha Orbitals:
       Occupied  (A') (A') (A') (A') (A') (A') (A') (A') (A') (A')
                 (A') (A') (A') (A') (A") (A') (A') (A") (A") (A")
                 (A') (A") (A') (A') (A') (A') (A") (A') (A") (A")
       Virtual   (A") (A") (A') (A') (A') (A') (A') (A") (A') (A')
                 (A') (A') (A') (A')
 Beta  Orbitals:
       Occupied  (A') (A') (A') (A') (A') (A') (A') (A') (A') (A')
                 (A') (A') (A') (A') (A") (A') (A') (A") (A") (A")
                 (A") (A') (A') (A') (A') (A') (A") (A") (A")
       Virtual   (A') (A") (A") (A') (A') (A') (A') (A') (A") (A')
                 (A') (A') (A') (A') (A')
 Initial guess <Sx>= 0.0000 <Sy>= 0.0000 <Sz>= 0.5000 <S**2>= 1.4182 S= 0.7916
 Keep J ints in memory in canonical form, NReq=865421.
 Overlap will be assumed to be unity.
 Requested convergence on RMS density matrix=1.00D-08 within  32 cycles.
 Requested convergence on MAX density matrix=1.00D-06.
 Requested convergence on             energy=1.00D-06.
 No special actions if energy rises.
 Fock symm off for IB=2 I1=    1 I=   34 J=   24 Cut=1.00D-07 Err=1.58D-04
 Fock matrix is not symmetric: symmetry in diagonalization turned off.
 SCF Done:  E(UAM1) =  0.756921531515E-01 A.U. after   14 cycles
            NFock= 13  Conv=0.41D-08     -V/T= 1.0005
[...]
    R5        3.18233  -0.00006   0.00048  -0.00074  -0.00026   3.18207
    R6        2.59464   0.00006   0.00007  -0.00010  -0.00002   2.59462
    R7        3.16930  -0.00006  -0.00001  -0.00043  -0.00044   3.16886
    R8        2.59464   0.00006   0.00007  -0.00010  -0.00002   2.59462
    R9        2.68485   0.00025   0.00054   0.00017   0.00071   2.68556
   R10        3.16930  -0.00006  -0.00001  -0.00043  -0.00044   3.16886
   R11        3.18233  -0.00006   0.00048  -0.00074  -0.00026   3.18207
    A1        2.12353   0.00009   0.00032   0.00018   0.00050   2.12403
    A2        2.07983  -0.00004  -0.00016  -0.00009  -0.00025   2.07958
    A3        2.07983  -0.00004  -0.00016  -0.00009  -0.00025   2.07958
    A4        2.08359  -0.00003  -0.00001  -0.00018  -0.00019   2.08341
    A5        2.10833   0.00011   0.00025   0.00036   0.00061   2.10894
    A6        2.09126  -0.00008  -0.00024  -0.00018  -0.00042   2.09084
    A7        2.00734  -0.00003  -0.00032  -0.00004  -0.00036   2.00697
    A8        2.14892  -0.00011  -0.00027  -0.00026  -0.00054   2.14838
    A9        2.12693   0.00014   0.00059   0.00031   0.00090   2.12783
   A10        2.26099   0.00004   0.00035   0.00025   0.00060   2.26158
   A11        2.00734  -0.00003  -0.00032  -0.00004  -0.00036   2.00697
   A12        2.12693   0.00014   0.00059   0.00031   0.00090   2.12783
   A13        2.14892  -0.00011  -0.00027  -0.00026  -0.00054   2.14838
   A14        2.08359  -0.00003  -0.00001  -0.00018  -0.00019   2.08341
   A15        2.10833   0.00011   0.00025   0.00036   0.00061   2.10894
   A16        2.09126  -0.00008  -0.00024  -0.00018  -0.00042   2.09084
    D1       -0.00000  -0.00000   0.00000  -0.00000   0.00000   0.00000
    D2        3.14159  -0.00000  -0.00000  -0.00000   0.00000   3.14159
    D3        3.14159   0.00000  -0.00000   0.00000   0.00000   3.14159
    D4        0.00000   0.00000   0.00000   0.00000  -0.00000   0.00000
    D5        0.00000   0.00000   0.00000   0.00000  -0.00000   0.00000
    D6        3.14159   0.00000  -0.00000   0.00000   0.00000   3.14159
    D7        3.14159  -0.00000  -0.00000  -0.00000   0.00000   3.14159
    D8        0.00000  -0.00000   0.00000  -0.00000   0.00000   0.00000
    D9        0.00000  -0.00000   0.00000  -0.00000   0.00000   0.00000
   D10        3.14159  -0.00000  -0.00000  -0.00000   0.00000   3.14159
   D11        3.14159   0.00000  -0.00000   0.00000   0.00000   3.14159
   D12        0.00000   0.00000   0.00000   0.00000   0.00000   0.00000
   D13        0.00000   0.00000   0.00000   0.00000  -0.00000   0.00000
   D14        3.14159   0.00000  -0.00000   0.00000   0.00000   3.14159
   D15       -0.00000   0.00000   0.00000   0.00000   0.00000   0.00000
   D16        3.14159  -0.00000  -0.00000  -0.00000   0.00000   3.14159
   D17       -0.00000  -0.00000   0.00000  -0.00000   0.00000   0.00000
   D18        3.14159  -0.00000  -0.00000  -0.00000   0.00000   3.14159
   D19        3.14159   0.00000  -0.00000   0.00000   0.00000   3.14159
   D20        0.00000   0.00000   0.00000   0.00000   0.00000   0.00000
         Item               Value     Threshold  Converged?
 Maximum Force            0.000254     0.000450     YES
 RMS     Force            0.000077     0.000300     YES
 Maximum Displacement     0.001634     0.001800     YES
 RMS     Displacement     0.000429     0.001200     YES
 Predicted change in Energy=-6.035570D-07
 Optimization completed.
    -- Stationary point found.
                           ----------------------------
                           !   Optimized Parameters   !
                           ! (Angstroms and Degrees)  !
 --------------------------                            --------------------------
 ! Name  Definition              Value          Derivative Info.                !
 --------------------------------------------------------------------------------
 ! R1    R(1,2)                  1.4163         -DE/DX =    0.0                 !
 ! R2    R(1,6)                  1.4163         -DE/DX =    0.0                 !
 ! R3    R(1,8)                  1.6902         -DE/DX =    0.0001              !
 ! R4    R(2,3)                  1.4208         -DE/DX =    0.0003              !
 ! R5    R(2,10)                 1.684          -DE/DX =   -0.0001              !
 ! R6    R(3,4)                  1.373          -DE/DX =    0.0001              !
 ! R7    R(3,11)                 1.6771         -DE/DX =   -0.0001              !
 ! R8    R(4,5)                  1.373          -DE/DX =    0.0001              !
 ! R9    R(5,6)                  1.4208         -DE/DX =    0.0003              !
 ! R10   R(5,9)                  1.6771         -DE/DX =   -0.0001              !
 ! R11   R(6,7)                  1.684          -DE/DX =   -0.0001              !
 ! A1    A(2,1,6)              121.6691         -DE/DX =    0.0001              !
 ! A2    A(2,1,8)              119.1654         -DE/DX =    0.0                 !
 ! A3    A(6,1,8)              119.1654         -DE/DX =    0.0                 !
 ! A4    A(1,2,3)              119.381          -DE/DX =    0.0                 !
 ! A5    A(1,2,10)             120.7986         -DE/DX =    0.0001              !
 ! A6    A(3,2,10)             119.8204         -DE/DX =   -0.0001              !
 ! A7    A(2,3,4)              115.0119         -DE/DX =    0.0                 !
 ! A8    A(2,3,11)             123.124          -DE/DX =   -0.0001              !
 ! A9    A(4,3,11)             121.8641         -DE/DX =    0.0001              !
 ! A10   A(3,4,5)              129.5451         -DE/DX =    0.0                 !
 ! A11   A(4,5,6)              115.0119         -DE/DX =    0.0                 !
 ! A12   A(4,5,9)              121.864          -DE/DX =    0.0001              !
 ! A13   A(6,5,9)              123.124          -DE/DX =   -0.0001              !
 ! A14   A(1,6,5)              119.381          -DE/DX =    0.0                 !
 ! A15   A(1,6,7)              120.7986         -DE/DX =    0.0001              !
 ! A16   A(5,6,7)              119.8204         -DE/DX =   -0.0001              !
 ! D1    D(6,1,2,3)              0.0            -DE/DX =    0.0                 !
 ! D2    D(6,1,2,10)           180.0            -DE/DX =    0.0                 !
 ! D3    D(8,1,2,3)            180.0            -DE/DX =    0.0                 !
 ! D4    D(8,1,2,10)             0.0            -DE/DX =    0.0                 !
 ! D5    D(2,1,6,5)              0.0            -DE/DX =    0.0                 !
 ! D6    D(2,1,6,7)            180.0            -DE/DX =    0.0                 !
 ! D7    D(8,1,6,5)            180.0            -DE/DX =    0.0                 !
 ! D8    D(8,1,6,7)              0.0            -DE/DX =    0.0                 !
 ! D9    D(1,2,3,4)              0.0            -DE/DX =    0.0                 !
 ! D10   D(1,2,3,11)           180.0            -DE/DX =    0.0                 !
 ! D11   D(10,2,3,4)           180.0            -DE/DX =    0.0                 !
 ! D12   D(10,2,3,11)            0.0            -DE/DX =    0.0                 !
 ! D13   D(2,3,4,5)              0.0            -DE/DX =    0.0                 !
 ! D14   D(11,3,4,5)           180.0            -DE/DX =    0.0                 !
 ! D15   D(3,4,5,6)              0.0            -DE/DX =    0.0                 !
 ! D16   D(3,4,5,9)            180.0            -DE/DX =    0.0                 !
 ! D17   D(4,5,6,1)              0.0            -DE/DX =    0.0                 !
 ! D18   D(4,5,6,7)            180.0            -DE/DX =    0.0                 !
 ! D19   D(9,5,6,1)            180.0            -DE/DX =    0.0                 !
 ! D20   D(9,5,6,7)              0.0            -DE/DX =    0.0                 !
 --------------------------------------------------------------------------------
 GradGradGradGradGradGradGradGradGradGradGradGradGradGradGradGradGradGrad

                          Input orientation:                          
 ---------------------------------------------------------------------
 Center     Atomic      Atomic             Coordinates (Angstroms)
 Number     Number       Type             X           Y           Z
 ---------------------------------------------------------------------
      1          6           0       -3.213566    0.201751    0.000000
      2          6           0       -2.017864    0.960805   -0.000000
      3          6           0       -0.765870    0.289187   -0.000000
      4          6           0       -0.842489   -1.081698    0.000000
      5          6           0       -1.948394   -1.895438    0.000000
      6          6           0       -3.195298   -1.214419    0.000000
      7         17           0       -4.630579   -2.095257    0.000000
      8         17           0       -4.699981    1.006337    0.000000
      9         17           0       -1.817331   -3.567428    0.000000
     10         17           0       -2.065165    2.644156   -0.000000
     11         17           0        0.705698    1.093683   -0.000000
 ---------------------------------------------------------------------
                    Distance matrix (angstroms):
                    1          2          3          4          5
     1  C    0.000000
     2  C    1.416287   0.000000
     3  C    2.449257   1.420760   0.000000
     4  C    2.696154   2.356549   1.373025   0.000000
     5  C    2.449257   2.857088   2.484139   1.373025   0.000000
     6  C    1.416287   2.473449   2.857088   2.356549   1.420760
     7  Cl   2.698920   4.020671   4.541096   3.921342   2.689618
     8  Cl   1.690204   2.682504   3.998941   4.386357   3.998941
     9  Cl   4.019475   4.532671   3.997380   2.670050   1.677119
    10  Cl   2.698920   1.684015   2.689618   3.921342   4.541095
    11  Cl   4.019475   2.726801   1.677119   2.670050   3.997380
                    6          7          8          9         10
     6  C    0.000000
     7  Cl   1.684015   0.000000
     8  Cl   2.682504   3.102370   0.000000
     9  Cl   2.726801   3.175162   5.406385   0.000000
    10  Cl   4.020672   5.389191   3.102370   6.216526   0.000000
    11  Cl   4.532671   6.216526   5.406385   5.300154   3.175162
                   11
    11  Cl   0.000000
 Stoichiometry    C6Cl5(2)
 Framework group  CS[SG(C6Cl5)]
 Deg. of freedom    19
 Full point group                 CS      NOp   2
 Largest Abelian subgroup         CS      NOp   2
 Largest concise Abelian subgroup C1      NOp   1
                         Standard orientation:                         
 ---------------------------------------------------------------------
 Center     Atomic      Atomic             Coordinates (Angstroms)
 Number     Number       Type             X           Y           Z
 ---------------------------------------------------------------------
      1          6           0       -0.000000    0.980308   -0.000000
      2          6           0        1.236725    0.290105    0.000000
      3          6           0        1.242070   -1.130645    0.000000
      4          6           0       -0.000000   -1.715846    0.000000
      5          6           0       -1.242070   -1.130645    0.000000
      6          6           0       -1.236725    0.290105   -0.000000
      7         17           0       -2.694596    1.133028   -0.000000
      8         17           0       -0.000000    2.670512   -0.000000
      9         17           0       -2.650077   -2.041822    0.000000
     10         17           0        2.694596    1.133028    0.000000
     11         17           0        2.650077   -2.041822    0.000000
 ---------------------------------------------------------------------
 Rotational constants (GHZ):           0.7115010           0.4711252           0.2834421

 **********************************************************************

            Population analysis using the SCF Density.

 **********************************************************************

 Orbital symmetries:
 Alpha Orbitals:
       Occupied  (A') (A') (A') (A') (A') (A') (A') (A') (A') (A')
                 (A') (A') (A') (A') (A") (A') (A') (A") (A") (A")
                 (A') (A") (A') (A') (A') (A') (A") (A') (A") (A")
       Virtual   (A") (A") (A') (A') (A') (A') (A') (A") (A') (A')
                 (A') (A') (A') (A')
 Beta  Orbitals:
       Occupied  (A') (A') (A') (A') (A') (A') (A') (A') (A') (A')
                 (A') (A') (A') (A') (A") (A') (A') (A") (A") (A")
                 (A") (A') (A') (A') (A') (A') (A") (A") (A")
       Virtual   (A') (A") (A") (A') (A') (A') (A') (A') (A") (A')
                 (A') (A') (A') (A') (A')
 The electronic state is 2-A'.
 Alpha  occ. eigenvalues --   -1.49814  -1.43075  -1.41957  -1.40948  -1.40212
 Alpha  occ. eigenvalues --   -1.37637  -1.17284  -1.15835  -0.91592  -0.89486
 Alpha  occ. eigenvalues --   -0.71839  -0.67907  -0.66755  -0.61764  -0.60270
 Alpha  occ. eigenvalues --   -0.57958  -0.54871  -0.53617  -0.51701  -0.48780
 Alpha  occ. eigenvalues --   -0.48332  -0.48084  -0.46546  -0.46267  -0.45469
 Alpha  occ. eigenvalues --   -0.44661  -0.43637  -0.42022  -0.38584  -0.37169
 Alpha virt. eigenvalues --   -0.02748  -0.02183   0.00944   0.01774   0.02220
 Alpha virt. eigenvalues --    0.04050   0.04163   0.05054   0.10953   0.11104
 Alpha virt. eigenvalues --    0.12105   0.13174   0.14494   0.14855
  Beta  occ. eigenvalues --   -1.49265  -1.43020  -1.42055  -1.40857  -1.40145
  Beta  occ. eigenvalues --   -1.37157  -1.17081  -1.14404  -0.91274  -0.87331
  Beta  occ. eigenvalues --   -0.71886  -0.67504  -0.65254  -0.61595  -0.60094
  Beta  occ. eigenvalues --   -0.57429  -0.54543  -0.53606  -0.52521  -0.48750
  Beta  occ. eigenvalues --   -0.48003  -0.46934  -0.46432  -0.46156  -0.45291
  Beta  occ. eigenvalues --   -0.44619  -0.43116  -0.37693  -0.37137
  Beta virt. eigenvalues --   -0.03126  -0.02757  -0.00700   0.00616   0.02162
  Beta virt. eigenvalues --    0.02322   0.04077   0.04398   0.06077   0.11531
  Beta virt. eigenvalues --    0.11546   0.13051   0.13330   0.14895   0.16902
          Condensed to atoms (all electrons):
               1          2          3          4          5          6
     1  C    4.064275   0.000000   0.000000   0.000000   0.000000   0.000000
     2  C    0.000000   4.060456   0.000000   0.000000   0.000000   0.000000
     3  C    0.000000   0.000000   4.048050   0.000000   0.000000   0.000000
     4  C    0.000000   0.000000   0.000000   4.028436   0.000000   0.000000
     5  C    0.000000   0.000000   0.000000   0.000000   4.048050   0.000000
     6  C    0.000000   0.000000   0.000000   0.000000   0.000000   4.060456
     7  Cl   0.000000   0.000000   0.000000   0.000000   0.000000   0.000000
     8  Cl   0.000000   0.000000   0.000000   0.000000   0.000000   0.000000
     9  Cl   0.000000   0.000000   0.000000   0.000000   0.000000   0.000000
    10  Cl   0.000000   0.000000   0.000000   0.000000   0.000000   0.000000
    11  Cl   0.000000   0.000000   0.000000   0.000000   0.000000   0.000000
               7          8          9         10         11
     1  C    0.000000   0.000000   0.000000   0.000000   0.000000
     2  C    0.000000   0.000000   0.000000   0.000000   0.000000
     3  C    0.000000   0.000000   0.000000   0.000000   0.000000
     4  C    0.000000   0.000000   0.000000   0.000000   0.000000
     5  C    0.000000   0.000000   0.000000   0.000000   0.000000
     6  C    0.000000   0.000000   0.000000   0.000000   0.000000
     7  Cl   6.941403   0.000000   0.000000   0.000000   0.000000
     8  Cl   0.000000   6.948401   0.000000   0.000000   0.000000
     9  Cl   0.000000   0.000000   6.929535   0.000000   0.000000
    10  Cl   0.000000   0.000000   0.000000   6.941403   0.000000
    11  Cl   0.000000   0.000000   0.000000   0.000000   6.929535
          Atomic-Atomic Spin Densities.
               1          2          3          4          5          6
     1  C   -0.510599   0.000000   0.000000   0.000000   0.000000   0.000000
     2  C    0.000000   0.549960   0.000000   0.000000   0.000000   0.000000
     3  C    0.000000   0.000000  -0.530383   0.000000   0.000000   0.000000
     4  C    0.000000   0.000000   0.000000   1.444965   0.000000   0.000000
     5  C    0.000000   0.000000   0.000000   0.000000  -0.530383   0.000000
     6  C    0.000000   0.000000   0.000000   0.000000   0.000000   0.549960
     7  Cl   0.000000   0.000000   0.000000   0.000000   0.000000   0.000000
     8  Cl   0.000000   0.000000   0.000000   0.000000   0.000000   0.000000
     9  Cl   0.000000   0.000000   0.000000   0.000000   0.000000   0.000000
    10  Cl   0.000000   0.000000   0.000000   0.000000   0.000000   0.000000
    11  Cl   0.000000   0.000000   0.000000   0.000000   0.000000   0.000000
               7          8          9         10         11
     1  C    0.000000   0.000000   0.000000   0.000000   0.000000
     2  C    0.000000   0.000000   0.000000   0.000000   0.000000
     3  C    0.000000   0.000000   0.000000   0.000000   0.000000
     4  C    0.000000   0.000000   0.000000   0.000000   0.000000
     5  C    0.000000   0.000000   0.000000   0.000000   0.000000
     6  C    0.000000   0.000000   0.000000   0.000000   0.000000
     7  Cl   0.019275   0.000000   0.000000   0.000000   0.000000
     8  Cl   0.000000  -0.006531   0.000000   0.000000   0.000000
     9  Cl   0.000000   0.000000  -0.002770   0.000000   0.000000
    10  Cl   0.000000   0.000000   0.000000   0.019275   0.000000
    11  Cl   0.000000   0.000000   0.000000   0.000000  -0.002770
 Mulliken charges and spin densities:
               1          2
     1  C   -0.064275  -0.510599
     2  C   -0.060456   0.549960
     3  C   -0.048050  -0.530383
     4  C   -0.028436   1.444965
     5  C   -0.048050  -0.530383
     6  C   -0.060456   0.549960
     7  Cl   0.058597   0.019275
     8  Cl   0.051599  -0.006531
     9  Cl   0.070465  -0.002770
    10  Cl   0.058597   0.019275
    11  Cl   0.070465  -0.002770
 Sum of Mulliken charges =   0.00000   1.00000
 Mulliken charges and spin densities with hydrogens summed into heavy atoms:
               1          2
     1  C   -0.064275  -0.510599
     2  C   -0.060456   0.549960
     3  C   -0.048050  -0.530383
     4  C   -0.028436   1.444965
     5  C   -0.048050  -0.530383
     6  C   -0.060456   0.549960
     7  Cl   0.058597   0.019275
     8  Cl   0.051599  -0.006531
     9  Cl   0.070465  -0.002770
    10  Cl   0.058597   0.019275
    11  Cl   0.070465  -0.002770
 Charge=              0.0000 electrons
 Dipole moment (field-independent basis, Debye):
    X=             -0.0000    Y=              0.2453    Z=              0.0000  Tot=              0.2453
 N-N= 3.535004670014D+02 E-N=-5.059792493409D+02  KE=-1.553180841321D+02
 Symmetry A'   KE=-1.182142961693D+02
 Symmetry A"   KE=-3.710378796285D+01
 Symmetry A'   SP= 1.000000000000D+00
 Symmetry A"   SP= 6.772360450213D-15
 1\1\GINC-SH02-01N15\FOpt\UAM1\ZDO\C6Cl5(2)\JLAPIER\09-Dec-2025\0\\# op
 t am1 SCF=XQC\\Neutral Radical (removed 3) 12_456\\0,2\C,-3.2135661389
 ,0.2017505179,0.\C,-2.0178635249,0.960805212,0.\C,-0.7658702565,0.2891
 870232,0.\C,-0.8424894252,-1.0816981679,0.\C,-1.9483938368,-1.89543783
 5,0.\C,-3.1952983282,-1.2144186886,0.\Cl,-4.6305793638,-2.0952567515,0
 .\Cl,-4.6999807732,1.0063372178,0.\Cl,-1.8173310844,-3.567427659,0.\Cl
 ,-2.0651653781,2.6441560365,0.\Cl,0.7056981101,1.0936830946,0.\\Versio
 n=ES64L-G16RevB.01\State=2-A'\HF=0.0756922\S2=1.418717\S2-1=0.\S2A=1.1
 64363\RMSD=4.131e-09\RMSF=1.624e-04\Dipole=-0.0848664,0.0459376,0.\PG=
 CS [SG(C6Cl5)]\\@


 A leading authority is anyone who has guessed right more than once.
 -- Frank A. Clark
 Job cpu time:       0 days  0 hours  0 minutes  4.6 seconds.
 Elapsed time:       0 days  0 hours  0 minutes 14.2 seconds.
 File lengths (MBytes):  RWF=     15 Int=      0 D2E=      0 Chk=      2 Scr=      1
 Normal termination of Gaussian 16 at Tue Dec  9 08:34:54 2025.
