 Entering Gaussian System, Link 0=g16
 Initial command:
 /share/software/user/restricted/gaussian/g16.B01/l1.exe "/home/users/jlapier/Chloroaromatics/Gau-26801.inp" -scrdir="/home/users/jlapier/Chloroaromatics/"
 Entering Link 1 = /share/software/user/restricted/gaussian/g16.B01/l1.exe PID=     26802.
  
 Copyright (c) 1988-2017, Gaussian, Inc.  All Rights Reserved.
  
 This is part of the Gaussian(R) 16 program.  It is based on
 the Gaussian(R) 09 system (copyright 2009, Gaussian, Inc.),
 the Gaussian(R) 03 system (copyright 2003, Gaussian, Inc.),
 the Gaussian(R) 98 system (copyright 1998, Gaussian, Inc.),
 the Gaussian(R) 94 system (copyright 1995, Gaussian, Inc.),
 the Gaussian 92(TM) system (copyright 1992, Gaussian, Inc.),
 the Gaussian 90(TM) system (copyright 1990, Gaussian, Inc.),
 the Gaussian 88(TM) system (copyright 1988, Gaussian, Inc.),
 the Gaussian 86(TM) system (copyright 1986, Carnegie Mellon
 University), and the Gaussian 82(TM) system (copyright 1983,
 Carnegie Mellon University). Gaussian is a federally registered
 trademark of Gaussian, Inc.
  
 This software contains proprietary and confidential information,
 including trade secrets, belonging to Gaussian, Inc.
  
 This software is provided under written license and may be
 used, copied, transmitted, or stored only in accord with that
 written license.
  
 The following legend is applicable only to US Government
 contracts under FAR:
  
                    RESTRICTED RIGHTS LEGEND
  
 Use, reproduction and disclosure by the US Government is
 subject to restrictions as set forth in subparagraphs (a)
 and (c) of the Commercial Computer Software - Restricted
 Rights clause in FAR 52.227-19.
  
 Gaussian, Inc.
 340 Quinnipiac St., Bldg. 40, Wallingford CT 06492
  
  
 ---------------------------------------------------------------
 Warning -- This program may not be used in any manner that
 competes with the business of Gaussian, Inc. or will provide
 assistance to any competitor of Gaussian, Inc.  The licensee
 of this program is prohibited from giving any competitor of
 Gaussian, Inc. access to this program.  By using this program,
 the user acknowledges that Gaussian, Inc. is engaged in the
 business of creating and licensing software in the field of
 computational chemistry and represents and warrants to the
 licensee that it is not a competitor of Gaussian, Inc. and that
 it will not use this program in any manner prohibited above.
 ---------------------------------------------------------------
  

 Cite this work as:
 Gaussian 16, Revision B.01,
 M. J. Frisch, G. W. Trucks, H. B. Schlegel, G. E. Scuseria, 
 M. A. Robb, J. R. Cheeseman, G. Scalmani, V. Barone, 
 G. A. Petersson, H. Nakatsuji, X. Li, M. Caricato, A. V. Marenich, 
 J. Bloino, B. G. Janesko, R. Gomperts, B. Mennucci, H. P. Hratchian, 
 J. V. Ortiz, A. F. Izmaylov, J. L. Sonnenberg, D. Williams-Young, 
 F. Ding, F. Lipparini, F. Egidi, J. Goings, B. Peng, A. Petrone, 
 T. Henderson, D. Ranasinghe, V. G. Zakrzewski, J. Gao, N. Rega, 
 G. Zheng, W. Liang, M. Hada, M. Ehara, K. Toyota, R. Fukuda, 
 J. Hasegawa, M. Ishida, T. Nakajima, Y. Honda, O. Kitao, H. Nakai, 
 T. Vreven, K. Throssell, J. A. Montgomery, Jr., J. E. Peralta, 
 F. Ogliaro, M. J. Bearpark, J. J. Heyd, E. N. Brothers, K. N. Kudin, 
 V. N. Staroverov, T. A. Keith, R. Kobayashi, J. Normand, 
 K. Raghavachari, A. P. Rendell, J. C. Burant, S. S. Iyengar, 
 J. Tomasi, M. Cossi, J. M. Millam, M. Klene, C. Adamo, R. Cammi, 
 J. W. Ochterski, R. L. Martin, K. Morokuma, O. Farkas, 
 J. B. Foresman, and D. J. Fox, Gaussian, Inc., Wallingford CT, 2016.
 
 ******************************************
 Gaussian 16:  ES64L-G16RevB.01 20-Dec-2017
                 8-Dec-2025 
 ******************************************
 %mem=2GB
 %nprocshare=1
 Will use up to    1 processors via shared memory.
 %chk=geometry_chks/12_45ClBzAnionIntermediate.chk
 ---------------------------
 # opt am1 SCF(maxcyc=10000)
 ---------------------------
 1/18=20,19=15,26=1,38=1/1,3;
 2/9=110,12=2,17=6,18=5,40=1/2;
 3/5=2,25=1,41=700000,71=1/1,2,3;
 4/35=1/1;
 5/5=2,7=10000,35=1,38=5/2;
 6/7=2,8=2,9=2,10=2,28=1/1;
 7//1,2,3,16;
 1/18=20,19=15,26=1/3(2);
 2/9=110/2;
 99//99;
 2/9=110/2;
 3/5=2,25=1,41=700000,71=1,135=20/1,2,3;
 4/5=5,16=3,35=1/1;
 5/5=2,7=10000,35=1,38=5/2;
 7//1,2,3,16;
 1/18=20,19=15,26=1/3(-5);
 2/9=110/2;
 6/7=2,8=2,9=2,10=2,19=2,28=1/1;
 99/9=1/99;
 ------------------------------------
 Anion Intermediate (removed 3) 12_45
 ------------------------------------
 Symbolic Z-matrix:
 Charge = -1 Multiplicity = 1
 C                    -3.20928   0.19943   0. 
 C                    -2.0115    0.93555   0. 
 C                    -0.77511   0.2663    0. 
 C                    -0.7365   -1.13907   0. 
 C                    -1.93429  -1.87519   0. 
 C                    -3.17067  -1.20594   0. 
 Cl                   -4.67483  -2.13035   0. 
 Cl                   -4.76193   1.03987   0. 
 Cl                   -1.8858   -3.64003   0. 
 Cl                   -2.05998   2.7004    0. 
 H                     0.72905   1.19071   0. 
 
 Add virtual bond connecting atoms H11        and C3         Dist= 3.34D+00.

 GradGradGradGradGradGradGradGradGradGradGradGradGradGradGradGradGradGrad
 Berny optimization.
 Initialization pass.
                           ----------------------------
                           !    Initial Parameters    !
                           ! (Angstroms and Degrees)  !
 --------------------------                            --------------------------
 ! Name  Definition              Value          Derivative Info.                !
 --------------------------------------------------------------------------------
 ! R1    R(1,2)                  1.4059         estimate D2E/DX2                !
 ! R2    R(1,6)                  1.4059         estimate D2E/DX2                !
 ! R3    R(1,8)                  1.7655         estimate D2E/DX2                !
 ! R4    R(2,3)                  1.4059         estimate D2E/DX2                !
 ! R5    R(2,10)                 1.7655         estimate D2E/DX2                !
 ! R6    R(3,4)                  1.4059         estimate D2E/DX2                !
 ! R7    R(3,11)                 1.7655         estimate D2E/DX2                !
 ! R8    R(4,5)                  1.4059         estimate D2E/DX2                !
 ! R9    R(5,6)                  1.4059         estimate D2E/DX2                !
 ! R10   R(5,9)                  1.7655         estimate D2E/DX2                !
 ! R11   R(6,7)                  1.7655         estimate D2E/DX2                !
 ! A1    A(2,1,6)              119.9999         estimate D2E/DX2                !
 ! A2    A(2,1,8)              119.9999         estimate D2E/DX2                !
 ! A3    A(6,1,8)              120.0001         estimate D2E/DX2                !
 ! A4    A(1,2,3)              120.0            estimate D2E/DX2                !
 ! A5    A(1,2,10)             120.0001         estimate D2E/DX2                !
 ! A6    A(3,2,10)             119.9999         estimate D2E/DX2                !
 ! A7    A(2,3,4)              120.0001         estimate D2E/DX2                !
 ! A8    A(2,3,11)             120.0            estimate D2E/DX2                !
 ! A9    A(4,3,11)             119.9999         estimate D2E/DX2                !
 ! A10   A(3,4,5)              119.9997         estimate D2E/DX2                !
 ! A11   A(4,5,6)              120.0            estimate D2E/DX2                !
 ! A12   A(4,5,9)              119.9996         estimate D2E/DX2                !
 ! A13   A(6,5,9)              120.0004         estimate D2E/DX2                !
 ! A14   A(1,6,5)              120.0003         estimate D2E/DX2                !
 ! A15   A(1,6,7)              119.9999         estimate D2E/DX2                !
 ! A16   A(5,6,7)              119.9998         estimate D2E/DX2                !
 ! D1    D(6,1,2,3)              0.0            estimate D2E/DX2                !
 ! D2    D(6,1,2,10)           180.0            estimate D2E/DX2                !
 ! D3    D(8,1,2,3)            180.0            estimate D2E/DX2                !
 ! D4    D(8,1,2,10)             0.0            estimate D2E/DX2                !
 ! D5    D(2,1,6,5)              0.0            estimate D2E/DX2                !
 ! D6    D(2,1,6,7)            180.0            estimate D2E/DX2                !
 ! D7    D(8,1,6,5)            180.0            estimate D2E/DX2                !
 ! D8    D(8,1,6,7)              0.0            estimate D2E/DX2                !
 ! D9    D(1,2,3,4)              0.0            estimate D2E/DX2                !
 ! D10   D(1,2,3,11)           180.0            estimate D2E/DX2                !
 ! D11   D(10,2,3,4)           180.0            estimate D2E/DX2                !
 ! D12   D(10,2,3,11)            0.0            estimate D2E/DX2                !
 ! D13   D(2,3,4,5)              0.0            estimate D2E/DX2                !
 ! D14   D(11,3,4,5)           180.0            estimate D2E/DX2                !
 ! D15   D(3,4,5,6)              0.0            estimate D2E/DX2                !
 ! D16   D(3,4,5,9)            180.0            estimate D2E/DX2                !
 ! D17   D(4,5,6,1)              0.0            estimate D2E/DX2                !
 ! D18   D(4,5,6,7)            180.0            estimate D2E/DX2                !
 ! D19   D(9,5,6,1)            180.0            estimate D2E/DX2                !
 ! D20   D(9,5,6,7)              0.0            estimate D2E/DX2                !
 --------------------------------------------------------------------------------
 Trust Radius=3.00D-01 FncErr=1.00D-07 GrdErr=1.00D-07 EigMax=2.50D+02 EigMin=1.00D-04
 Number of steps in this run=     57 maximum allowed number of steps=    100.
 GradGradGradGradGradGradGradGradGradGradGradGradGradGradGradGradGradGrad

                          Input orientation:                          
 ---------------------------------------------------------------------
 Center     Atomic      Atomic             Coordinates (Angstroms)
 Number     Number       Type             X           Y           Z
 ---------------------------------------------------------------------
      1          6           0       -3.209280    0.199430    0.000000
      2          6           0       -2.011500    0.935550    0.000000
      3          6           0       -0.775110    0.266300    0.000000
      4          6           0       -0.736500   -1.139070    0.000000
      5          6           0       -1.934290   -1.875190    0.000000
      6          6           0       -3.170670   -1.205940    0.000000
      7         17           0       -4.674830   -2.130350    0.000000
      8         17           0       -4.761930    1.039870    0.000000
      9         17           0       -1.885800   -3.640030    0.000000
     10         17           0       -2.059980    2.700400    0.000000
     11          1           0        0.729050    1.190710    0.000000
 ---------------------------------------------------------------------
                    Distance matrix (angstroms):
                    1          2          3          4          5
     1  C    0.000000
     2  C    1.405898   0.000000
     3  C    2.435088   1.405900   0.000000
     4  C    2.811801   2.435092   1.405900   0.000000
     5  C    2.435087   2.811800   2.435093   1.405907   0.000000
     6  C    1.405900   2.435088   2.811796   2.435088   1.405892
     7  Cl   2.752401   4.061166   4.577308   4.061167   2.752393
     8  Cl   1.765520   2.752408   4.061175   4.577321   4.061173
     9  Cl   4.061164   4.577306   4.061163   2.752397   1.765506
    10  Cl   2.752406   1.765516   2.752405   4.061173   4.577316
    11  H    4.061167   2.752403   1.765512   2.752401   4.061173
                    6          7          8          9         10
     6  C    0.000000
     7  Cl   1.765512   0.000000
     8  Cl   2.752412   3.171416   0.000000
     9  Cl   2.752396   3.171407   5.493049   0.000000
    10  Cl   4.061173   5.493049   3.171418   6.342822   0.000000
    11  H    4.577308   6.342819   5.493051   5.493040   3.171412
                   11
    11  H    0.000000
 Stoichiometry    C6HCl4(1-)
 Framework group  CS[SG(C6HCl4)]
 Deg. of freedom    19
 Full point group                 CS      NOp   2
 Largest Abelian subgroup         CS      NOp   2
 Largest concise Abelian subgroup C1      NOp   1
                         Standard orientation:                         
 ---------------------------------------------------------------------
 Center     Atomic      Atomic             Coordinates (Angstroms)
 Number     Number       Type             X           Y           Z
 ---------------------------------------------------------------------
      1          6           0        0.418516   -0.650800    0.000000
      2          6           0        1.636060    0.052148    0.000000
      3          6           0        1.636060    1.458048    0.000000
      4          6           0        0.418516    2.161001   -0.000000
      5          6           0       -0.799032    1.458044   -0.000000
      6          6           0       -0.799028    0.052152   -0.000000
      7         17           0       -2.328005   -0.830604   -0.000000
      8         17           0        0.418517   -2.416320    0.000000
      9         17           0       -2.328002    2.340803   -0.000000
     10         17           0        3.165043   -0.830607    0.000000
     11          1           0        3.165038    2.340805    0.000000
 ---------------------------------------------------------------------
 Rotational constants (GHZ):           1.1540966           0.5302906           0.3633408
 Standard basis: VSTO-6G (5D, 7F)
 There are    31 symmetry adapted cartesian basis functions of A'  symmetry.
 There are    10 symmetry adapted cartesian basis functions of A"  symmetry.
 There are    31 symmetry adapted basis functions of A'  symmetry.
 There are    10 symmetry adapted basis functions of A"  symmetry.
    41 basis functions,   246 primitive gaussians,    41 cartesian basis functions
    27 alpha electrons       27 beta electrons
       nuclear repulsion energy       294.1729831098 Hartrees.
 Integral buffers will be    131072 words long.
 Regular integral format.
 Two-electron integral symmetry is turned off.
 Do NDO integrals.
 One-electron integrals computed using PRISM.
 NBasis=    41 RedAO= T EigKep=  1.00D+00  NBF=    31    10
 NBsUse=    41 1.00D-06 EigRej= -1.00D+00 NBFU=    31    10
 Simple Huckel Guess.
 Initial guess orbital symmetries:
       Occupied  (A') (A') (A') (A') (A') (A') (A') (A') (A') (A')
                 (A") (A') (A') (A') (A") (A') (A") (A') (A") (A")
                 (A') (A') (A') (A') (A") (A") (A')
       Virtual   (A") (A") (A') (A") (A') (A') (A') (A') (A') (A')
                 (A') (A') (A') (A')
 The electronic state of the initial guess is 1-A'.
 Keep J ints in memory in canonical form, NReq=864464.
 Overlap will be assumed to be unity.
 Requested convergence on RMS density matrix=1.00D-08 within**** cycles.
 Requested convergence on MAX density matrix=1.00D-06.
 Requested convergence on             energy=1.00D-06.
 No special actions if energy rises.
 Fock symm off for IB=2 I1=    1 I=   32 J=   27 Cut=1.00D-07 Err=3.58D-03
 Fock matrix is not symmetric: symmetry in diagonalization turned off.
 SCF Done:  E(RAM1) =  0.142298256106     A.U. after   17 cycles
            NFock= 16  Conv=0.71D-08     -V/T= 1.0010

 **********************************************************************

            Population analysis using the SCF Density.

 **********************************************************************

 Orbital symmetries:
       Occupied  (A') (A') (A') (A') (A') (A') (A') (A') (A') (A')
                 (A') (A') (A") (A') (A') (A") (A") (A") (A') (A')
                 (A') (A') (A") (A') (A") (A") (A')
       Virtual   (A') (A") (A") (A') (A') (A') (A') (A") (A') (A')
                 (A') (A') (A') (A')
 The electronic state is 1-A'.
 Alpha  occ. eigenvalues --   -1.28512  -1.23861  -1.23205  -1.21866  -1.19373
 Alpha  occ. eigenvalues --   -0.96763  -0.94357  -0.68901  -0.67576  -0.50688
 Alpha  occ. eigenvalues --   -0.46150  -0.45037  -0.40864  -0.40670  -0.36163
 Alpha  occ. eigenvalues --   -0.35288  -0.33458  -0.32092  -0.31940  -0.31502
 Alpha  occ. eigenvalues --   -0.30032  -0.28728  -0.27659  -0.25019  -0.19907
 Alpha  occ. eigenvalues --   -0.18190  -0.13326
 Alpha virt. eigenvalues --    0.15275   0.15346   0.16303   0.16452   0.17743
 Alpha virt. eigenvalues --    0.19110   0.20785   0.26529   0.30169   0.30291
 Alpha virt. eigenvalues --    0.31802   0.33057   0.36020   0.38811
          Condensed to atoms (all electrons):
               1          2          3          4          5          6
     1  C    4.110045   0.000000   0.000000   0.000000   0.000000   0.000000
     2  C    0.000000   4.041396   0.000000   0.000000   0.000000   0.000000
     3  C    0.000000   0.000000   4.108536   0.000000   0.000000   0.000000
     4  C    0.000000   0.000000   0.000000   4.344025   0.000000   0.000000
     5  C    0.000000   0.000000   0.000000   0.000000   4.039574   0.000000
     6  C    0.000000   0.000000   0.000000   0.000000   0.000000   4.040952
     7  Cl   0.000000   0.000000   0.000000   0.000000   0.000000   0.000000
     8  Cl   0.000000   0.000000   0.000000   0.000000   0.000000   0.000000
     9  Cl   0.000000   0.000000   0.000000   0.000000   0.000000   0.000000
    10  Cl   0.000000   0.000000   0.000000   0.000000   0.000000   0.000000
    11  H    0.000000   0.000000   0.000000   0.000000   0.000000   0.000000
               7          8          9         10         11
     1  C    0.000000   0.000000   0.000000   0.000000   0.000000
     2  C    0.000000   0.000000   0.000000   0.000000   0.000000
     3  C    0.000000   0.000000   0.000000   0.000000   0.000000
     4  C    0.000000   0.000000   0.000000   0.000000   0.000000
     5  C    0.000000   0.000000   0.000000   0.000000   0.000000
     6  C    0.000000   0.000000   0.000000   0.000000   0.000000
     7  Cl   7.096384   0.000000   0.000000   0.000000   0.000000
     8  Cl   0.000000   7.082285   0.000000   0.000000   0.000000
     9  Cl   0.000000   0.000000   7.103245   0.000000   0.000000
    10  Cl   0.000000   0.000000   0.000000   7.114306   0.000000
    11  H    0.000000   0.000000   0.000000   0.000000   0.919252
 Mulliken charges:
               1
     1  C   -0.110045
     2  C   -0.041396
     3  C   -0.108536
     4  C   -0.344025
     5  C   -0.039574
     6  C   -0.040952
     7  Cl  -0.096384
     8  Cl  -0.082285
     9  Cl  -0.103245
    10  Cl  -0.114306
    11  H    0.080748
 Sum of Mulliken charges =  -1.00000
 Mulliken charges with hydrogens summed into heavy atoms:
               1
     1  C   -0.110045
     2  C   -0.041396
     3  C   -0.027788
     4  C   -0.344025
     5  C   -0.039574
     6  C   -0.040952
     7  Cl  -0.096384
     8  Cl  -0.082285
     9  Cl  -0.103245
    10  Cl  -0.114306
 Charge=             -1.0000 electrons
 Dipole moment (field-independent basis, Debye):
    X=             -0.4135    Y=             -4.8876    Z=              0.0000  Tot=              4.9051
 N-N= 2.941729831098D+02 E-N=-4.218423513429D+02  KE=-1.355964498825D+02
 Symmetry A'   KE=-1.039330907504D+02
 Symmetry A"   KE=-3.166335913210D+01
 Calling FoFJK, ICntrl=      2127 FMM=F ISym2X=1 I1Cent= 0 IOpClX= 0 NMat=1 NMatS=1 NMatT=0.
 ***** Axes restored to original set *****
 -------------------------------------------------------------------
 Center     Atomic                   Forces (Hartrees/Bohr)
 Number     Number              X              Y              Z
 -------------------------------------------------------------------
      1        6          -0.017197837    0.005658388   -0.000000000
      2        6           0.026360625    0.015793273    0.000000000
      3        6           0.046249424    0.016253524    0.000000000
      4        6          -0.004798164    0.020997262   -0.000000000
      5        6           0.017103197    0.008909034   -0.000000000
      6        6          -0.015357694   -0.012532060   -0.000000000
      7       17           0.020868550    0.015777152    0.000000000
      8       17           0.025685737   -0.014162563    0.000000000
      9       17           0.000018295    0.029189496    0.000000000
     10       17           0.000885744   -0.025330356    0.000000000
     11        1          -0.099817877   -0.060553150    0.000000000
 -------------------------------------------------------------------
 Cartesian Forces:  Max     0.099817877 RMS     0.025568369

 GradGradGradGradGradGradGradGradGradGradGradGradGradGradGradGradGradGrad
 Berny optimization.
 FormGI is forming the generalized inverse of G from B-inverse, IUseBI=4.
 Internal  Forces:  Max     0.116746895 RMS     0.021957687
 Search for a local minimum.
 Step number   1 out of a maximum of   57
 All quantities printed in internal units (Hartrees-Bohrs-Radians)
 Mixed Optimization -- RFO/linear search
 Second derivative matrix not updated -- first step.
 ITU=  0
     Eigenvalues ---    0.02011   0.02011   0.02011   0.02011   0.02011
     Eigenvalues ---    0.02011   0.02011   0.02011   0.06524   0.16000
     Eigenvalues ---    0.23352   0.25000   0.25000   0.25000   0.25000
     Eigenvalues ---    0.25000   0.25000   0.29033   0.29033   0.29033
     Eigenvalues ---    0.29034   0.41087   0.41583   0.44656   0.44657
     Eigenvalues ---    0.44657   0.44657
 RFO step:  Lambda=-1.01722386D-01 EMin= 2.01067519D-02
 Linear search not attempted -- first point.
 Maximum step size (   0.300) exceeded in Quadratic search.
    -- Step size scaled by   0.410
 Iteration  1 RMS(Cart)=  0.03916342 RMS(Int)=  0.01265382
 Iteration  2 RMS(Cart)=  0.01203625 RMS(Int)=  0.00002281
 Iteration  3 RMS(Cart)=  0.00000015 RMS(Int)=  0.00002281
 ClnCor:  largest displacement from symmetrization is 1.15D-08 for atom     7.
 Variable       Old X    -DE/DX   Delta X   Delta X   Delta X     New X
                                 (Linear)    (Quad)   (Total)
    R1        2.65676  -0.01278   0.00000  -0.00931  -0.00931   2.64746
    R2        2.65677  -0.01598   0.00000  -0.01099  -0.01102   2.64575
    R3        3.33635  -0.02933   0.00000  -0.03068  -0.03068   3.30567
    R4        2.65677  -0.03404   0.00000  -0.02617  -0.02614   2.63063
    R5        3.33634  -0.02535   0.00000  -0.02651  -0.02651   3.30983
    R6        2.65677  -0.04585   0.00000  -0.03525  -0.03522   2.62155
    R7        3.33633  -0.11675   0.00000  -0.28673  -0.28673   3.04961
    R8        2.65678  -0.03093   0.00000  -0.02338  -0.02338   2.63340
    R9        2.65675  -0.00927   0.00000  -0.00622  -0.00626   2.65049
   R10        3.33632  -0.02918   0.00000  -0.03052  -0.03052   3.30581
   R11        3.33633  -0.02604   0.00000  -0.02724  -0.02724   3.30910
    A1        2.09439  -0.00729   0.00000  -0.00675  -0.00678   2.08761
    A2        2.09439   0.00402   0.00000   0.00382   0.00384   2.09823
    A3        2.09440   0.00326   0.00000   0.00293   0.00295   2.09735
    A4        2.09439  -0.00559   0.00000  -0.00744  -0.00740   2.08699
    A5        2.09440   0.00311   0.00000   0.00409   0.00407   2.09847
    A6        2.09439   0.00248   0.00000   0.00335   0.00333   2.09773
    A7        2.09440   0.02247   0.00000   0.02552   0.02558   2.11998
    A8        2.09440  -0.01236   0.00000  -0.01452  -0.01455   2.07984
    A9        2.09439  -0.01011   0.00000  -0.01099  -0.01103   2.08337
   A10        2.09439  -0.01315   0.00000  -0.01851  -0.01847   2.07592
   A11        2.09439   0.00927   0.00000   0.01136   0.01132   2.10572
   A12        2.09439  -0.00600   0.00000  -0.00728  -0.00726   2.08713
   A13        2.09440  -0.00327   0.00000  -0.00409  -0.00407   2.09034
   A14        2.09440  -0.00571   0.00000  -0.00417  -0.00424   2.09016
   A15        2.09439  -0.00134   0.00000  -0.00280  -0.00277   2.09162
   A16        2.09439   0.00705   0.00000   0.00698   0.00701   2.10140
    D1        0.00000   0.00000   0.00000   0.00000   0.00000   0.00000
    D2        3.14159   0.00000   0.00000   0.00000   0.00000   3.14159
    D3        3.14159  -0.00000   0.00000  -0.00000   0.00000   3.14159
    D4       -0.00000  -0.00000   0.00000  -0.00000   0.00000   0.00000
    D5       -0.00000  -0.00000   0.00000  -0.00000   0.00000   0.00000
    D6        3.14159  -0.00000   0.00000  -0.00000   0.00000   3.14159
    D7        3.14159   0.00000   0.00000   0.00000   0.00000   3.14159
    D8        0.00000  -0.00000   0.00000  -0.00000  -0.00000   0.00000
    D9       -0.00000  -0.00000   0.00000   0.00000   0.00000   0.00000
   D10        3.14159   0.00000   0.00000   0.00000   0.00000   3.14159
   D11        3.14159  -0.00000   0.00000  -0.00000   0.00000   3.14159
   D12        0.00000  -0.00000   0.00000  -0.00000  -0.00000   0.00000
   D13        0.00000  -0.00000   0.00000  -0.00000   0.00000   0.00000
   D14        3.14159  -0.00000   0.00000  -0.00000   0.00000   3.14159
   D15       -0.00000   0.00000   0.00000   0.00000   0.00000   0.00000
   D16        3.14159   0.00000   0.00000   0.00000   0.00000   3.14159
   D17        0.00000   0.00000   0.00000   0.00000   0.00000   0.00000
   D18        3.14159   0.00000   0.00000   0.00000   0.00000   3.14159
   D19        3.14159  -0.00000   0.00000  -0.00000   0.00000   3.14159
   D20        0.00000   0.00000   0.00000   0.00000   0.00000   0.00000
         Item               Value     Threshold  Converged?
 Maximum Force            0.116747     0.000450     NO 
 RMS     Force            0.021958     0.000300     NO 
 Maximum Displacement     0.270821     0.001800     NO 
 RMS     Displacement     0.050396     0.001200     NO 
 Predicted change in Energy=-3.773740D-02
 GradGradGradGradGradGradGradGradGradGradGradGradGradGradGradGradGradGrad

                          Input orientation:                          
 ---------------------------------------------------------------------
 Center     Atomic      Atomic             Coordinates (Angstroms)
 Number     Number       Type             X           Y           Z
 ---------------------------------------------------------------------
      1          6           0       -3.199157    0.205121    0.000000
      2          6           0       -2.002994    0.934449    0.000000
      3          6           0       -0.786084    0.258441    0.000000
      4          6           0       -0.727678   -1.127591   -0.000000
      5          6           0       -1.917707   -1.852690   -0.000000
      6          6           0       -3.156148   -1.194288   -0.000000
      7         17           0       -4.647581   -2.111880   -0.000000
      8         17           0       -4.737788    1.037358    0.000000
      9         17           0       -1.863654   -3.601212   -0.000000
     10         17           0       -2.037786    2.685591    0.000000
     11          1           0        0.585738    1.108380    0.000000
 ---------------------------------------------------------------------
                    Distance matrix (angstroms):
                    1          2          3          4          5
     1  C    0.000000
     2  C    1.400973   0.000000
     3  C    2.413662   1.392069   0.000000
     4  C    2.807905   2.424549   1.387262   0.000000
     5  C    2.424191   2.788444   2.395297   1.393534   0.000000
     6  C    1.400070   2.421009   2.779860   2.429385   1.402580
     7  Cl   2.732476   4.034100   4.530958   4.041591   2.742151
     8  Cl   1.749286   2.736729   4.027738   4.557190   4.037974
     9  Cl   4.033825   4.537801   4.007254   2.721993   1.749357
    10  Cl   2.738890   1.751488   2.730900   4.031965   4.539870
    11  H    3.891184   2.594569   1.613782   2.593189   3.877522
                    6          7          8          9         10
     6  C    0.000000
     7  Cl   1.751099   0.000000
     8  Cl   2.735293   3.150529   0.000000
     9  Cl   2.732000   3.157271   5.456828   0.000000
    10  Cl   4.037846   5.461388   3.163335   6.289215   0.000000
    11  H    4.393631   6.144730   5.324000   5.308463   3.061123
                   11
    11  H    0.000000
 Stoichiometry    C6HCl4(1-)
 Framework group  CS[SG(C6HCl4)]
 Deg. of freedom    19
 Full point group                 CS      NOp   2
 Largest Abelian subgroup         CS      NOp   2
 Largest concise Abelian subgroup C1      NOp   1
                         Standard orientation:                         
 ---------------------------------------------------------------------
 Center     Atomic      Atomic             Coordinates (Angstroms)
 Number     Number       Type             X           Y           Z
 ---------------------------------------------------------------------
      1          6           0        0.000000   -0.774916    0.000000
      2          6           0        1.400102   -0.824301    0.000000
      3          6           0        2.129441    0.361415    0.000000
      4          6           0        1.500964    1.598149    0.000000
      5          6           0        0.108281    1.646856   -0.000000
      6          6           0       -0.648454    0.465932   -0.000000
      7         17           0       -2.398203    0.534683   -0.000000
      8         17           0       -0.933182   -2.254501    0.000000
      9         17           0       -0.701670    3.197414   -0.000000
     10         17           0        2.228127   -2.367702    0.000000
     11          1           0        3.741772    0.293003    0.000000
 ---------------------------------------------------------------------
 Rotational constants (GHZ):           1.1665695           0.5391373           0.3687276
 Standard basis: VSTO-6G (5D, 7F)
 There are    31 symmetry adapted cartesian basis functions of A'  symmetry.
 There are    10 symmetry adapted cartesian basis functions of A"  symmetry.
 There are    31 symmetry adapted basis functions of A'  symmetry.
 There are    10 symmetry adapted basis functions of A"  symmetry.
    41 basis functions,   246 primitive gaussians,    41 cartesian basis functions
    27 alpha electrons       27 beta electrons
       nuclear repulsion energy       295.7199023499 Hartrees.
 Integral buffers will be    131072 words long.
 Regular integral format.
 Two-electron integral symmetry is turned off.
 Do NDO integrals.
 One-electron integrals computed using PRISM.
 NBasis=    41 RedAO= T EigKep=  1.00D+00  NBF=    31    10
 NBsUse=    41 1.00D-06 EigRej= -1.00D+00 NBFU=    31    10
 Initial guess from the checkpoint file:  "geometry_chks/12_45ClBzAnionIntermediate.chk"
 B after Tr=     0.000000    0.000000    0.000000
         Rot=    0.960661   -0.000000    0.000000    0.277723 Ang=  32.25 deg.
 Initial guess orbital symmetries:
       Occupied  (A') (A') (A') (A') (A') (A') (A') (A') (A') (A')
                 (A') (A') (A") (A') (A') (A") (A") (A") (A') (A')
                 (A') (A') (A") (A') (A") (A") (A')
       Virtual   (A') (A") (A") (A') (A') (A') (A') (A") (A') (A')
                 (A') (A') (A') (A')
 Keep J ints in memory in canonical form, NReq=864464.
 Overlap will be assumed to be unity.
 Requested convergence on RMS density matrix=1.00D-08 within**** cycles.
 Requested convergence on MAX density matrix=1.00D-06.
 Requested convergence on             energy=1.00D-06.
 No special actions if energy rises.
 Fock symm off for IB=2 I1=    1 I=   32 J=    6 Cut=1.00D-07 Err=8.72D-04
 Fock matrix is not symmetric: symmetry in diagonalization turned off.
 SCF Done:  E(RAM1) =  0.101464754315     A.U. after   13 cycles
            NFock= 12  Conv=0.93D-08     -V/T= 1.0007
 Calling FoFJK, ICntrl=      2127 FMM=F ISym2X=1 I1Cent= 0 IOpClX= 0 NMat=1 NMatS=1 NMatT=0.
 ***** Axes restored to original set *****
 -------------------------------------------------------------------
 Center     Atomic                   Forces (Hartrees/Bohr)
 Number     Number              X              Y              Z
 -------------------------------------------------------------------
      1        6          -0.019267948    0.007744183   -0.000000000
      2        6           0.015962112    0.019743580   -0.000000000
      3        6           0.076905945    0.040697811   -0.000000000
      4        6           0.002397949    0.008227129    0.000000000
      5        6           0.009899703   -0.001104010   -0.000000000
      6        6          -0.015982357   -0.014221254    0.000000000
      7       17           0.015116425    0.011420750    0.000000000
      8       17           0.018467905   -0.010034889    0.000000000
      9       17          -0.000252285    0.019352121    0.000000000
     10       17           0.000487448   -0.018365820    0.000000000
     11        1          -0.103734897   -0.063459600    0.000000000
 -------------------------------------------------------------------
 Cartesian Forces:  Max     0.103734897 RMS     0.027840378

 GradGradGradGradGradGradGradGradGradGradGradGradGradGradGradGradGradGrad
 Berny optimization.
 Using GEDIIS/GDIIS optimizer.
 FormGI is forming the generalized inverse of G from B-inverse, IUseBI=4.
 Internal  Forces:  Max     0.121604169 RMS     0.019328300
 Search for a local minimum.
 Step number   2 out of a maximum of   57
 All quantities printed in internal units (Hartrees-Bohrs-Radians)
 Mixed Optimization -- RFO/linear search
 Update second derivatives using D2CorX and points    1    2
 DE= -4.08D-02 DEPred=-3.77D-02 R= 1.08D+00
 TightC=F SS=  1.41D+00  RLast= 3.00D-01 DXNew= 5.0454D-01 9.0000D-01
 Trust test= 1.08D+00 RLast= 3.00D-01 DXMaxT set to 5.05D-01
 ITU=  1  0
 Use linear search instead of GDIIS.
 Linear search step of   0.600 exceeds DXMaxT=   0.505 but not scaled.
 Quartic linear search produced a step of  2.00000.
 Iteration  1 RMS(Cart)=  0.05413676 RMS(Int)=  0.05448521
 Iteration  2 RMS(Cart)=  0.02770875 RMS(Int)=  0.02531139
 Iteration  3 RMS(Cart)=  0.02411619 RMS(Int)=  0.00013803
 Iteration  4 RMS(Cart)=  0.00000950 RMS(Int)=  0.00013789
 Iteration  5 RMS(Cart)=  0.00000000 RMS(Int)=  0.00013789
 ClnCor:  largest displacement from symmetrization is 1.80D-08 for atom    10.
 Variable       Old X    -DE/DX   Delta X   Delta X   Delta X     New X
                                 (Linear)    (Quad)   (Total)
    R1        2.64746  -0.00101  -0.01861   0.00000  -0.01858   2.62887
    R2        2.64575  -0.00301  -0.02204   0.00000  -0.02222   2.62352
    R3        3.30567  -0.02102  -0.06136   0.00000  -0.06136   3.24432
    R4        2.63063  -0.01396  -0.05227   0.00000  -0.05206   2.57857
    R5        3.30983  -0.01837  -0.05302   0.00000  -0.05302   3.25681
    R6        2.62155  -0.02019  -0.07044   0.00000  -0.07025   2.55129
    R7        3.04961  -0.12160  -0.57345   0.00000  -0.57345   2.47615
    R8        2.63340  -0.01266  -0.04676   0.00000  -0.04679   2.58660
    R9        2.65049  -0.00065  -0.01252   0.00000  -0.01273   2.63777
   R10        3.30581  -0.01935  -0.06103   0.00000  -0.06103   3.24477
   R11        3.30910  -0.01886  -0.05447   0.00000  -0.05447   3.25463
    A1        2.08761  -0.00431  -0.01357   0.00000  -0.01374   2.07387
    A2        2.09823   0.00222   0.00767   0.00000   0.00776   2.10599
    A3        2.09735   0.00209   0.00590   0.00000   0.00598   2.10333
    A4        2.08699  -0.00372  -0.01481   0.00000  -0.01458   2.07241
    A5        2.09847   0.00206   0.00814   0.00000   0.00803   2.10650
    A6        2.09773   0.00166   0.00667   0.00000   0.00655   2.10428
    A7        2.11998   0.01362   0.05116   0.00000   0.05153   2.17151
    A8        2.07984  -0.00786  -0.02910   0.00000  -0.02929   2.05055
    A9        2.08337  -0.00576  -0.02205   0.00000  -0.02224   2.06113
   A10        2.07592  -0.00822  -0.03694   0.00000  -0.03671   2.03921
   A11        2.10572   0.00607   0.02264   0.00000   0.02240   2.12812
   A12        2.08713  -0.00361  -0.01451   0.00000  -0.01439   2.07274
   A13        2.09034  -0.00246  -0.00813   0.00000  -0.00801   2.08233
   A14        2.09016  -0.00343  -0.00849   0.00000  -0.00890   2.08126
   A15        2.09162  -0.00127  -0.00554   0.00000  -0.00533   2.08629
   A16        2.10140   0.00470   0.01403   0.00000   0.01423   2.11564
    D1        0.00000  -0.00000   0.00000   0.00000   0.00000   0.00000
    D2        3.14159   0.00000   0.00000   0.00000   0.00000   3.14159
    D3        3.14159  -0.00000   0.00000   0.00000   0.00000   3.14159
    D4        0.00000   0.00000   0.00000   0.00000  -0.00000   0.00000
    D5        0.00000   0.00000   0.00000   0.00000  -0.00000   0.00000
    D6        3.14159  -0.00000   0.00000   0.00000   0.00000   3.14159
    D7        3.14159   0.00000   0.00000   0.00000   0.00000   3.14159
    D8       -0.00000   0.00000   0.00000   0.00000   0.00000   0.00000
    D9       -0.00000   0.00000   0.00000   0.00000   0.00000   0.00000
   D10        3.14159   0.00000   0.00000   0.00000   0.00000   3.14159
   D11        3.14159  -0.00000   0.00000   0.00000   0.00000   3.14159
   D12        0.00000  -0.00000   0.00000   0.00000  -0.00000   0.00000
   D13        0.00000   0.00000   0.00000   0.00000  -0.00000   0.00000
   D14        3.14159  -0.00000   0.00000   0.00000   0.00000   3.14159
   D15       -0.00000  -0.00000   0.00000   0.00000   0.00000   0.00000
   D16        3.14159  -0.00000   0.00000   0.00000   0.00000   3.14159
   D17       -0.00000   0.00000   0.00000   0.00000   0.00000   0.00000
   D18        3.14159   0.00000   0.00000   0.00000   0.00000   3.14159
   D19        3.14159   0.00000   0.00000   0.00000   0.00000   3.14159
   D20       -0.00000   0.00000   0.00000   0.00000   0.00000   0.00000
         Item               Value     Threshold  Converged?
 Maximum Force            0.121604     0.000450     NO 
 RMS     Force            0.019328     0.000300     NO 
 Maximum Displacement     0.538598     0.001800     NO 
 RMS     Displacement     0.100706     0.001200     NO 
 Predicted change in Energy=-7.434264D-02
 GradGradGradGradGradGradGradGradGradGradGradGradGradGradGradGradGradGrad

                          Input orientation:                          
 ---------------------------------------------------------------------
 Center     Atomic      Atomic             Coordinates (Angstroms)
 Number     Number       Type             X           Y           Z
 ---------------------------------------------------------------------
      1          6           0       -3.178986    0.216302    0.000000
      2          6           0       -1.986037    0.931941    0.000000
      3          6           0       -0.807922    0.243490    0.000000
      4          6           0       -0.710983   -1.103112    0.000000
      5          6           0       -1.884794   -1.807175   -0.000000
      6          6           0       -3.127260   -1.171043   -0.000000
      7         17           0       -4.593050   -2.075305   -0.000000
      8         17           0       -4.689514    1.032250    0.000000
      9         17           0       -1.818989   -3.522973   -0.000000
     10         17           0       -1.994029    2.655355    0.000000
     11          1           0        0.300724    0.941952    0.000000
 ---------------------------------------------------------------------
                    Distance matrix (angstroms):
                    1          2          3          4          5
     1  C    0.000000
     2  C    1.391138   0.000000
     3  C    2.371220   1.364522   0.000000
     4  C    2.798552   2.401501   1.350087   0.000000
     5  C    2.401957   2.740987   2.316222   1.368772   0.000000
     6  C    1.388310   2.392683   2.716658   2.417231   1.395846
     7  Cl   2.692775   3.979955   4.438919   4.001949   2.721496
     8  Cl   1.716819   2.705337   3.960922   4.515361   3.991089
     9  Cl   3.978916   4.458045   3.899808   2.661467   1.717059
    10  Cl   2.711660   1.723432   2.687739   3.971433   4.463867
    11  H    3.554568   2.286783   1.310323   2.281631   3.512007
                    6          7          8          9         10
     6  C    0.000000
     7  Cl   1.722274   0.000000
     8  Cl   2.700952   3.109051   0.000000
     9  Cl   2.691310   3.129082   5.384234   0.000000
    10  Cl   3.990681   5.397596   3.146444   6.180807   0.000000
    11  H    4.026887   5.749162   4.991056   4.942544   2.863851
                   11
    11  H    0.000000
 Stoichiometry    C6HCl4(1-)
 Framework group  CS[SG(C6HCl4)]
 Deg. of freedom    19
 Full point group                 CS      NOp   2
 Largest Abelian subgroup         CS      NOp   2
 Largest concise Abelian subgroup C1      NOp   1
                         Standard orientation:                         
 ---------------------------------------------------------------------
 Center     Atomic      Atomic             Coordinates (Angstroms)
 Number     Number       Type             X           Y           Z
 ---------------------------------------------------------------------
      1          6           0        0.000000   -0.777212    0.000000
      2          6           0        1.391072   -0.790838    0.000000
      3          6           0        2.058875    0.399103    0.000000
      4          6           0        1.461104    1.609642    0.000000
      5          6           0        0.092397    1.622967    0.000000
      6          6           0       -0.657385    0.445592    0.000000
      7         17           0       -2.379234    0.483853    0.000000
      8         17           0       -0.890007   -2.245324    0.000000
      9         17           0       -0.719042    3.136195    0.000000
     10         17           0        2.256230   -2.281381    0.000000
     11          1           0        3.368542    0.357635    0.000000
 ---------------------------------------------------------------------
 Rotational constants (GHZ):           1.1917546           0.5576370           0.3798843
 Standard basis: VSTO-6G (5D, 7F)
 There are    31 symmetry adapted cartesian basis functions of A'  symmetry.
 There are    10 symmetry adapted cartesian basis functions of A"  symmetry.
 There are    31 symmetry adapted basis functions of A'  symmetry.
 There are    10 symmetry adapted basis functions of A"  symmetry.
    41 basis functions,   246 primitive gaussians,    41 cartesian basis functions
    27 alpha electrons       27 beta electrons
       nuclear repulsion energy       298.9647613082 Hartrees.
 Integral buffers will be    131072 words long.
 Regular integral format.
 Two-electron integral symmetry is turned off.
 Do NDO integrals.
 One-electron integrals computed using PRISM.
 NBasis=    41 RedAO= T EigKep=  1.00D+00  NBF=    31    10
 NBsUse=    41 1.00D-06 EigRej= -1.00D+00 NBFU=    31    10
 Initial guess from the checkpoint file:  "geometry_chks/12_45ClBzAnionIntermediate.chk"
 B after Tr=     0.000000    0.000000    0.000000
         Rot=    0.999963    0.000000   -0.000000   -0.008593 Ang=  -0.98 deg.
 Initial guess orbital symmetries:
       Occupied  (A') (A') (A') (A') (A') (A') (A') (A') (A') (A')
                 (A') (A') (A") (A') (A') (A") (A") (A") (A') (A')
                 (A') (A') (A") (A') (A") (A") (A')
       Virtual   (A") (A') (A") (A') (A') (A') (A') (A") (A') (A')
                 (A') (A') (A') (A')
 Keep J ints in memory in canonical form, NReq=864464.
 Overlap will be assumed to be unity.
 Requested convergence on RMS density matrix=1.00D-08 within**** cycles.
 Requested convergence on MAX density matrix=1.00D-06.
 Requested convergence on             energy=1.00D-06.
 No special actions if energy rises.
 Fock symm off for IB=2 I1=    1 I=   32 J=    6 Cut=1.00D-07 Err=1.77D-03
 Fock matrix is not symmetric: symmetry in diagonalization turned off.
 SCF Done:  E(RAM1) =  0.370734591109E-01 A.U. after   14 cycles
            NFock= 13  Conv=0.38D-08     -V/T= 1.0003
 Calling FoFJK, ICntrl=      2127 FMM=F ISym2X=1 I1Cent= 0 IOpClX= 0 NMat=1 NMatS=1 NMatT=0.
 ***** Axes restored to original set *****
 -------------------------------------------------------------------
 Center     Atomic                   Forces (Hartrees/Bohr)
 Number     Number              X              Y              Z
 -------------------------------------------------------------------
      1        6          -0.023327715    0.012052718   -0.000000000
      2        6          -0.012425851    0.029669705    0.000000000
      3        6           0.111187272    0.075283716   -0.000000000
      4        6           0.018174423   -0.025233182   -0.000000000
      5        6          -0.006676083   -0.023338777    0.000000000
      6        6          -0.016927895   -0.017739981   -0.000000000
      7       17           0.002410795    0.001674861    0.000000000
      8       17           0.002240236   -0.000726409    0.000000000
      9       17          -0.000651296   -0.002869195    0.000000000
     10       17          -0.000373491   -0.002586048    0.000000000
     11        1          -0.073630396   -0.046187408    0.000000000
 -------------------------------------------------------------------
 Cartesian Forces:  Max     0.111187272 RMS     0.029896945

 GradGradGradGradGradGradGradGradGradGradGradGradGradGradGradGradGradGrad
 Berny optimization.
 Using GEDIIS/GDIIS optimizer.
 FormGI is forming the generalized inverse of G from B-inverse, IUseBI=4.
 Internal  Forces:  Max     0.086917679 RMS     0.016697199
 Search for a local minimum.
 Step number   3 out of a maximum of   57
 All quantities printed in internal units (Hartrees-Bohrs-Radians)
 Mixed Optimization -- RFO/linear search
 Update second derivatives using D2CorX and points    2    3
 ITU=  0  1  0
 Use linear search instead of GDIIS.
     Eigenvalues ---    0.02011   0.02011   0.02011   0.02011   0.02011
     Eigenvalues ---    0.02011   0.02011   0.02011   0.05057   0.16001
     Eigenvalues ---    0.23883   0.24984   0.25000   0.25000   0.25000
     Eigenvalues ---    0.25000   0.25202   0.28425   0.29033   0.29033
     Eigenvalues ---    0.29115   0.41025   0.41638   0.44645   0.44656
     Eigenvalues ---    0.44657   0.66137
 RFO step:  Lambda=-4.39244011D-02 EMin= 2.01067683D-02
 Quartic linear search produced a step of  0.50601.
 Iteration  1 RMS(Cart)=  0.02985843 RMS(Int)=  0.07492496
 Iteration  2 RMS(Cart)=  0.02772506 RMS(Int)=  0.04575182
 Iteration  3 RMS(Cart)=  0.02779597 RMS(Int)=  0.01657915
 Iteration  4 RMS(Cart)=  0.01579601 RMS(Int)=  0.00012371
 Iteration  5 RMS(Cart)=  0.00000359 RMS(Int)=  0.00012366
 Iteration  6 RMS(Cart)=  0.00000000 RMS(Int)=  0.00012366
 ClnCor:  largest displacement from symmetrization is 1.02D-08 for atom     1.
 Variable       Old X    -DE/DX   Delta X   Delta X   Delta X     New X
                                 (Linear)    (Quad)   (Total)
    R1        2.62887   0.02476  -0.00940   0.06398   0.05461   2.68349
    R2        2.62352   0.02567  -0.01125   0.06498   0.05358   2.67710
    R3        3.24432  -0.00232  -0.03105   0.01229  -0.01875   3.22556
    R4        2.57857   0.03499  -0.02634   0.09998   0.07384   2.65241
    R5        3.25681  -0.00258  -0.02683   0.00859  -0.01823   3.23858
    R6        2.55129   0.04141  -0.03555   0.12013   0.08474   2.63603
    R7        2.47615  -0.08692  -0.29017  -0.42348  -0.71365   1.76250
    R8        2.58660   0.02797  -0.02368   0.07900   0.05528   2.64189
    R9        2.63777   0.01802  -0.00644   0.04427   0.03764   2.67540
   R10        3.24477   0.00284  -0.03088   0.03036  -0.00053   3.24425
   R11        3.25463  -0.00293  -0.02756   0.00778  -0.01978   3.23484
    A1        2.07387   0.00366  -0.00695   0.01640   0.00931   2.08318
    A2        2.10599  -0.00252   0.00393  -0.01130  -0.00731   2.09868
    A3        2.10333  -0.00114   0.00303  -0.00510  -0.00200   2.10133
    A4        2.07241   0.00044  -0.00738   0.01138   0.00423   2.07664
    A5        2.10650  -0.00085   0.00406  -0.00863  -0.00468   2.10182
    A6        2.10428   0.00041   0.00332  -0.00275   0.00045   2.10473
    A7        2.17151  -0.00989   0.02607  -0.05665  -0.03024   2.14127
    A8        2.05055   0.00474  -0.01482   0.02910   0.01411   2.06466
    A9        2.06113   0.00516  -0.01125   0.02755   0.01613   2.07726
   A10        2.03921   0.00401  -0.01858   0.03682   0.01842   2.05763
   A11        2.12812  -0.00097   0.01134  -0.01518  -0.00408   2.12404
   A12        2.07274   0.00172  -0.00728   0.01370   0.00654   2.07928
   A13        2.08233  -0.00075  -0.00405   0.00148  -0.00246   2.07987
   A14        2.08126   0.00276  -0.00450   0.00723   0.00236   2.08362
   A15        2.08629  -0.00164  -0.00270  -0.00107  -0.00358   2.08271
   A16        2.11564  -0.00112   0.00720  -0.00617   0.00122   2.11685
    D1        0.00000   0.00000   0.00000   0.00000   0.00000   0.00000
    D2        3.14159   0.00000   0.00000   0.00000   0.00000   3.14159
    D3        3.14159  -0.00000   0.00000  -0.00000   0.00000   3.14159
    D4        0.00000  -0.00000   0.00000  -0.00000   0.00000   0.00000
    D5        0.00000  -0.00000   0.00000  -0.00000   0.00000   0.00000
    D6        3.14159  -0.00000   0.00000  -0.00000   0.00000   3.14159
    D7        3.14159   0.00000   0.00000   0.00000   0.00000   3.14159
    D8        0.00000   0.00000   0.00000   0.00000   0.00000   0.00000
    D9        0.00000  -0.00000   0.00000  -0.00000   0.00000   0.00000
   D10        3.14159   0.00000   0.00000   0.00000   0.00000   3.14159
   D11        3.14159  -0.00000   0.00000  -0.00000   0.00000   3.14159
   D12        0.00000   0.00000   0.00000   0.00000   0.00000   0.00000
   D13        0.00000  -0.00000   0.00000  -0.00000   0.00000   0.00000
   D14        3.14159  -0.00000   0.00000  -0.00000   0.00000   3.14159
   D15        0.00000   0.00000   0.00000   0.00000   0.00000   0.00000
   D16        3.14159   0.00000   0.00000   0.00000   0.00000   3.14159
   D17        0.00000  -0.00000   0.00000  -0.00000   0.00000   0.00000
   D18        3.14159   0.00000   0.00000   0.00000   0.00000   3.14159
   D19        3.14159  -0.00000   0.00000  -0.00000   0.00000   3.14159
   D20        0.00000   0.00000   0.00000   0.00000   0.00000   0.00000
         Item               Value     Threshold  Converged?
 Maximum Force            0.086918     0.000450     NO 
 RMS     Force            0.016697     0.000300     NO 
 Maximum Displacement     0.470495     0.001800     NO 
 RMS     Displacement     0.088747     0.001200     NO 
 Predicted change in Energy=-5.684500D-02
 GradGradGradGradGradGradGradGradGradGradGradGradGradGradGradGradGradGrad

                          Input orientation:                          
 ---------------------------------------------------------------------
 Center     Atomic      Atomic             Coordinates (Angstroms)
 Number     Number       Type             X           Y           Z
 ---------------------------------------------------------------------
      1          6           0       -3.169756    0.240775    0.000000
      2          6           0       -1.959021    0.982821    0.000000
      3          6           0       -0.737562    0.291364    0.000000
      4          6           0       -0.660385   -1.101429    0.000000
      5          6           0       -1.857906   -1.822831    0.000000
      6          6           0       -3.116697   -1.174892    0.000000
      7         17           0       -4.576611   -2.068719    0.000000
      8         17           0       -4.673330    1.048705    0.000000
      9         17           0       -1.800051   -3.538637    0.000000
     10         17           0       -1.991271    2.696301    0.000000
     11          1           0        0.051749    0.788222    0.000000
 ---------------------------------------------------------------------
                    Distance matrix (angstroms):
                    1          2          3          4          5
     1  C    0.000000
     2  C    1.420039   0.000000
     3  C    2.432720   1.403594   0.000000
     4  C    2.845778   2.455719   1.394929   0.000000
     5  C    2.445285   2.807474   2.392695   1.398026   0.000000
     6  C    1.416660   2.448660   2.794671   2.457410   1.415761
     7  Cl   2.704257   4.020408   4.506472   4.033916   2.729802
     8  Cl   1.706894   2.715108   4.007971   4.552670   4.021484
     9  Cl   4.019956   4.524252   3.974643   2.690506   1.716781
    10  Cl   2.723681   1.713783   2.712104   4.024178   4.521099
    11  H    3.267689   2.020165   0.932674   2.019385   3.234869
                    6          7          8          9         10
     6  C    0.000000
     7  Cl   1.711806   0.000000
     8  Cl   2.714312   3.118924   0.000000
     9  Cl   2.705707   3.141647   5.412896   0.000000
    10  Cl   4.031466   5.421200   3.147700   6.237870   0.000000
    11  H    3.727313   5.439102   4.732254   4.706471   2.795478
                   11
    11  H    0.000000
 Stoichiometry    C6HCl4(1-)
 Framework group  CS[SG(C6HCl4)]
 Deg. of freedom    19
 Full point group                 CS      NOp   2
 Largest Abelian subgroup         CS      NOp   2
 Largest concise Abelian subgroup C1      NOp   1
                         Standard orientation:                         
 ---------------------------------------------------------------------
 Center     Atomic      Atomic             Coordinates (Angstroms)
 Number     Number       Type             X           Y           Z
 ---------------------------------------------------------------------
      1          6           0        0.000000   -0.791848    0.000000
      2          6           0        1.419810   -0.817359    0.000000
      3          6           0        2.121858    0.398044    0.000000
      4          6           0        1.482016    1.637572   -0.000000
      5          6           0        0.084065    1.651992   -0.000000
      6          6           0       -0.672229    0.455163   -0.000000
      7         17           0       -2.383773    0.485115   -0.000000
      8         17           0       -0.886122   -2.250709    0.000000
      9         17           0       -0.736247    3.160112   -0.000000
     10         17           0        2.261010   -2.310489    0.000000
     11          1           0        3.054114    0.370124    0.000000
 ---------------------------------------------------------------------
 Rotational constants (GHZ):           1.1842963           0.5476735           0.3744913
 Standard basis: VSTO-6G (5D, 7F)
 There are    31 symmetry adapted cartesian basis functions of A'  symmetry.
 There are    10 symmetry adapted cartesian basis functions of A"  symmetry.
 There are    31 symmetry adapted basis functions of A'  symmetry.
 There are    10 symmetry adapted basis functions of A"  symmetry.
    41 basis functions,   246 primitive gaussians,    41 cartesian basis functions
    27 alpha electrons       27 beta electrons
       nuclear repulsion energy       298.0516957262 Hartrees.
 Integral buffers will be    131072 words long.
 Regular integral format.
 Two-electron integral symmetry is turned off.
 Do NDO integrals.
 One-electron integrals computed using PRISM.
 NBasis=    41 RedAO= T EigKep=  1.00D+00  NBF=    31    10
 NBsUse=    41 1.00D-06 EigRej= -1.00D+00 NBFU=    31    10
 Initial guess from the checkpoint file:  "geometry_chks/12_45ClBzAnionIntermediate.chk"
 B after Tr=     0.000000    0.000000   -0.000000
         Rot=    1.000000   -0.000000    0.000000    0.000032 Ang=   0.00 deg.
 Initial guess orbital symmetries:
       Occupied  (A') (A') (A') (A') (A') (A') (A') (A') (A') (A')
                 (A') (A') (A") (A') (A') (A") (A") (A') (A") (A')
                 (A') (A') (A") (A') (A") (A") (A')
       Virtual   (A") (A") (A') (A') (A') (A') (A') (A") (A') (A')
                 (A') (A') (A') (A')
 Keep J ints in memory in canonical form, NReq=864464.
 Overlap will be assumed to be unity.
 Requested convergence on RMS density matrix=1.00D-08 within**** cycles.
 Requested convergence on MAX density matrix=1.00D-06.
 Requested convergence on             energy=1.00D-06.
 No special actions if energy rises.
 Fock symm off for IB=2 I1=    1 I=   32 J=    6 Cut=1.00D-07 Err=1.44D-03
 Fock matrix is not symmetric: symmetry in diagonalization turned off.
 SCF Done:  E(RAM1) =  0.365403111241E-01 A.U. after   15 cycles
            NFock= 14  Conv=0.22D-08     -V/T= 1.0003
 Calling FoFJK, ICntrl=      2127 FMM=F ISym2X=1 I1Cent= 0 IOpClX= 0 NMat=1 NMatS=1 NMatT=0.
 ***** Axes restored to original set *****
 -------------------------------------------------------------------
 Center     Atomic                   Forces (Hartrees/Bohr)
 Number     Number              X              Y              Z
 -------------------------------------------------------------------
      1        6           0.015184560   -0.004719270   -0.000000000
      2        6          -0.017976654   -0.022102765   -0.000000000
      3        6          -0.128394498   -0.076646749    0.000000000
      4        6          -0.016892495   -0.006454429    0.000000000
      5        6          -0.004097045    0.014983193    0.000000000
      6        6           0.012715650    0.007748663    0.000000000
      7       17           0.000162173    0.000453829    0.000000000
      8       17          -0.000168974   -0.000048279    0.000000000
      9       17           0.000022971    0.001884519   -0.000000000
     10       17          -0.000205543   -0.001186933   -0.000000000
     11        1           0.139649855    0.086088222    0.000000000
 -------------------------------------------------------------------
 Cartesian Forces:  Max     0.139649855 RMS     0.039363482

 GradGradGradGradGradGradGradGradGradGradGradGradGradGradGradGradGradGrad
 Berny optimization.
 Using GEDIIS/GDIIS optimizer.
 FormGI is forming the generalized inverse of G from B-inverse, IUseBI=4.
 Internal  Forces:  Max     0.164045403 RMS     0.024548742
 Search for a local minimum.
 Step number   4 out of a maximum of   57
 All quantities printed in internal units (Hartrees-Bohrs-Radians)
 Mixed Optimization -- RFO/linear search
 Update second derivatives using D2CorX and points    3    4
 DE= -5.33D-04 DEPred=-5.68D-02 R= 9.38D-03
 Trust test= 9.38D-03 RLast= 7.32D-01 DXMaxT set to 2.52D-01
 ITU= -1  0  1  0
 Use linear search instead of GDIIS.
 Linear search step of   0.319 exceeds DXMaxT=   0.252 but not scaled.
 Quartic linear search produced a step of -0.43644.
 Iteration  1 RMS(Cart)=  0.02436390 RMS(Int)=  0.01625911
 Iteration  2 RMS(Cart)=  0.01550485 RMS(Int)=  0.00001894
 Iteration  3 RMS(Cart)=  0.00000335 RMS(Int)=  0.00001876
 Iteration  4 RMS(Cart)=  0.00000000 RMS(Int)=  0.00001876
 ClnCor:  largest displacement from symmetrization is 3.46D-09 for atom     9.
 Variable       Old X    -DE/DX   Delta X   Delta X   Delta X     New X
                                 (Linear)    (Quad)   (Total)
    R1        2.68349  -0.01866  -0.02384   0.00000  -0.02384   2.65964
    R2        2.67710  -0.01757  -0.02338   0.00000  -0.02336   2.65374
    R3        3.22556   0.00013   0.00819   0.00000   0.00819   3.23375
    R4        2.65241  -0.00159  -0.03222   0.00000  -0.03225   2.62015
    R5        3.23858  -0.00118   0.00796   0.00000   0.00796   3.24654
    R6        2.63603  -0.00147  -0.03698   0.00000  -0.03701   2.59903
    R7        1.76250   0.16405   0.31146   0.00000   0.31146   2.07396
    R8        2.64189  -0.01225  -0.02413   0.00000  -0.02412   2.61777
    R9        2.67540  -0.01658  -0.01643   0.00000  -0.01640   2.65901
   R10        3.24425  -0.00188   0.00023   0.00000   0.00023   3.24448
   R11        3.23484  -0.00038   0.00863   0.00000   0.00863   3.24348
    A1        2.08318   0.00079  -0.00406   0.00000  -0.00404   2.07913
    A2        2.09868  -0.00020   0.00319   0.00000   0.00318   2.10186
    A3        2.10133  -0.00059   0.00087   0.00000   0.00086   2.10219
    A4        2.07664   0.00675  -0.00184   0.00000  -0.00188   2.07476
    A5        2.10182  -0.00375   0.00204   0.00000   0.00206   2.10388
    A6        2.10473  -0.00301  -0.00020   0.00000  -0.00018   2.10455
    A7        2.14127  -0.01236   0.01320   0.00000   0.01315   2.15441
    A8        2.06466   0.00754  -0.00616   0.00000  -0.00613   2.05853
    A9        2.07726   0.00482  -0.00704   0.00000  -0.00701   2.07024
   A10        2.05763   0.00142  -0.00804   0.00000  -0.00806   2.04957
   A11        2.12404   0.00334   0.00178   0.00000   0.00182   2.12586
   A12        2.07928  -0.00181  -0.00285   0.00000  -0.00287   2.07641
   A13        2.07987  -0.00153   0.00107   0.00000   0.00105   2.08092
   A14        2.08362   0.00006  -0.00103   0.00000  -0.00098   2.08265
   A15        2.08271  -0.00052   0.00156   0.00000   0.00154   2.08424
   A16        2.11685   0.00046  -0.00053   0.00000  -0.00056   2.11629
    D1        0.00000  -0.00000   0.00000   0.00000   0.00000   0.00000
    D2        3.14159   0.00000   0.00000   0.00000   0.00000   3.14159
    D3        3.14159  -0.00000   0.00000   0.00000   0.00000   3.14159
    D4       -0.00000  -0.00000   0.00000   0.00000   0.00000   0.00000
    D5        0.00000  -0.00000   0.00000   0.00000  -0.00000   0.00000
    D6        3.14159  -0.00000   0.00000   0.00000   0.00000   3.14159
    D7        3.14159   0.00000   0.00000   0.00000   0.00000   3.14159
    D8       -0.00000   0.00000   0.00000   0.00000   0.00000   0.00000
    D9       -0.00000   0.00000   0.00000   0.00000   0.00000   0.00000
   D10        3.14159   0.00000   0.00000   0.00000   0.00000   3.14159
   D11        3.14159  -0.00000   0.00000   0.00000   0.00000   3.14159
   D12        0.00000  -0.00000   0.00000   0.00000  -0.00000   0.00000
   D13       -0.00000  -0.00000   0.00000   0.00000   0.00000   0.00000
   D14        3.14159  -0.00000   0.00000   0.00000   0.00000   3.14159
   D15        0.00000  -0.00000   0.00000   0.00000  -0.00000   0.00000
   D16        3.14159  -0.00000   0.00000   0.00000   0.00000   3.14159
   D17       -0.00000   0.00000   0.00000   0.00000   0.00000   0.00000
   D18        3.14159   0.00000   0.00000   0.00000   0.00000   3.14159
   D19        3.14159   0.00000   0.00000   0.00000   0.00000   3.14159
   D20        0.00000   0.00000   0.00000   0.00000  -0.00000   0.00000
         Item               Value     Threshold  Converged?
 Maximum Force            0.164045     0.000450     NO 
 RMS     Force            0.024549     0.000300     NO 
 Maximum Displacement     0.205322     0.001800     NO 
 RMS     Displacement     0.038711     0.001200     NO 
 Predicted change in Energy=-3.388706D-02
 GradGradGradGradGradGradGradGradGradGradGradGradGradGradGradGradGradGrad

                          Input orientation:                          
 ---------------------------------------------------------------------
 Center     Atomic      Atomic             Coordinates (Angstroms)
 Number     Number       Type             X           Y           Z
 ---------------------------------------------------------------------
      1          6           0       -3.173788    0.230139    0.000000
      2          6           0       -1.970805    0.960666    0.000000
      3          6           0       -0.768306    0.270413    0.000000
      4          6           0       -0.682374   -1.102246    0.000000
      5          6           0       -1.869602   -1.815996   -0.000000
      6          6           0       -3.121271   -1.173178   -0.000000
      7         17           0       -4.583755   -2.071555   -0.000000
      8         17           0       -4.680432    1.041506    0.000000
      9         17           0       -1.808355   -3.531806   -0.000000
     10         17           0       -1.992554    2.678523    0.000000
     11          1           0        0.160401    0.855216    0.000000
 ---------------------------------------------------------------------
                    Distance matrix (angstroms):
                    1          2          3          4          5
     1  C    0.000000
     2  C    1.407422   0.000000
     3  C    2.405819   1.386526   0.000000
     4  C    2.825313   2.432213   1.375346   0.000000
     5  C    2.426431   2.778505   2.359227   1.385262   0.000000
     6  C    1.404299   2.424224   2.760507   2.439929   1.407085
     7  Cl   2.699223   4.002733   4.476881   4.019993   2.726158
     8  Cl   1.711225   2.710832   3.987394   4.536534   4.008251
     9  Cl   4.002078   4.495408   3.941899   2.677796   1.716903
    10  Cl   2.718437   1.717994   2.701440   4.001348   4.496200
    11  H    3.392276   2.133813   1.097493   2.131179   3.355039
                    6          7          8          9         10
     6  C    0.000000
     7  Cl   1.716375   0.000000
     8  Cl   2.708470   3.114562   0.000000
     9  Cl   2.699420   3.136109   5.400371   0.000000
    10  Cl   4.013677   5.410875   3.147144   6.213059   0.000000
    11  H    3.857947   5.574317   4.844416   4.808529   2.821287
                   11
    11  H    0.000000
 Stoichiometry    C6HCl4(1-)
 Framework group  CS[SG(C6HCl4)]
 Deg. of freedom    19
 Full point group                 CS      NOp   2
 Largest Abelian subgroup         CS      NOp   2
 Largest concise Abelian subgroup C1      NOp   1
                         Standard orientation:                         
 ---------------------------------------------------------------------
 Center     Atomic      Atomic             Coordinates (Angstroms)
 Number     Number       Type             X           Y           Z
 ---------------------------------------------------------------------
      1          6           0       -0.000000   -0.785480   -0.000000
      2          6           0        1.407275   -0.805844   -0.000000
      3          6           0        2.094321    0.398490   -0.000000
      4          6           0        1.472977    1.625481   -0.000000
      5          6           0        0.087784    1.639362    0.000000
      6          6           0       -0.665686    0.451014    0.000000
      7         17           0       -2.381732    0.484621    0.000000
      8         17           0       -0.887908   -2.248324    0.000000
      9         17           0       -0.728694    3.149699    0.000000
     10         17           0        2.258844   -2.297935   -0.000000
     11          1           0        3.191297    0.364807   -0.000000
 ---------------------------------------------------------------------
 Rotational constants (GHZ):           1.1876348           0.5519875           0.3768402
 Standard basis: VSTO-6G (5D, 7F)
 There are    31 symmetry adapted cartesian basis functions of A'  symmetry.
 There are    10 symmetry adapted cartesian basis functions of A"  symmetry.
 There are    31 symmetry adapted basis functions of A'  symmetry.
 There are    10 symmetry adapted basis functions of A"  symmetry.
    41 basis functions,   246 primitive gaussians,    41 cartesian basis functions
    27 alpha electrons       27 beta electrons
       nuclear repulsion energy       298.4142339141 Hartrees.
 Integral buffers will be    131072 words long.
 Regular integral format.
 Two-electron integral symmetry is turned off.
 Do NDO integrals.
 One-electron integrals computed using PRISM.
 NBasis=    41 RedAO= T EigKep=  1.00D+00  NBF=    31    10
 NBsUse=    41 1.00D-06 EigRej= -1.00D+00 NBFU=    31    10
 Lowest energy guess from the checkpoint file:  "geometry_chks/12_45ClBzAnionIntermediate.chk"
 B after Tr=    -0.000000   -0.000000    0.000000
         Rot=    1.000000   -0.000000    0.000000    0.000033 Ang=   0.00 deg.
 B after Tr=    -0.000000   -0.000000    0.000000
         Rot=    1.000000    0.000000    0.000000    0.000001 Ang=   0.00 deg.
 Initial guess orbital symmetries:
       Occupied  (A') (A') (A') (A") (A') (A') (A") (A') (A') (A')
                 (A') (A") (A') (A') (A") (A") (A") (A") (A") (A")
                 (A") (A") (A") (A") (A") (A") (A")
       Virtual   (A') (A') (A') (A") (A') (A') (A") (A') (A') (A')
                 (A') (A") (A') (A')
 Keep J ints in memory in canonical form, NReq=864464.
 Overlap will be assumed to be unity.
 Requested convergence on RMS density matrix=1.00D-08 within**** cycles.
 Requested convergence on MAX density matrix=1.00D-06.
 Requested convergence on             energy=1.00D-06.
 No special actions if energy rises.
 An orbital has undefined symmetry, so N**3 symmetry is turned off.
 SCF Done:  E(RAM1) =  0.131351760381E-01 A.U. after   11 cycles
            NFock= 10  Conv=0.79D-08     -V/T= 1.0001
 Calling FoFJK, ICntrl=      2127 FMM=F ISym2X=1 I1Cent= 0 IOpClX= 0 NMat=1 NMatS=1 NMatT=0.
 ***** Axes restored to original set *****
 -------------------------------------------------------------------
 Center     Atomic                   Forces (Hartrees/Bohr)
 Number     Number              X              Y              Z
 -------------------------------------------------------------------
      1        6          -0.000873928    0.002186856   -0.000000000
      2        6          -0.014896850   -0.001235697   -0.000000000
      3        6           0.017690763    0.016036967    0.000000000
      4        6          -0.002313808   -0.013472812    0.000000000
      5        6          -0.005135409   -0.000875284   -0.000000000
      6        6           0.000249531   -0.002778762    0.000000000
      7       17           0.001125242    0.000983918    0.000000000
      8       17           0.000899001   -0.000352427    0.000000000
      9       17          -0.000255287   -0.000130044    0.000000000
     10       17          -0.000265704   -0.001805508   -0.000000000
     11        1           0.003776448    0.001442792    0.000000000
 -------------------------------------------------------------------
 Cartesian Forces:  Max     0.017690763 RMS     0.005624222

 GradGradGradGradGradGradGradGradGradGradGradGradGradGradGradGradGradGrad
 Berny optimization.
 Using GEDIIS/GDIIS optimizer.
 FormGI is forming the generalized inverse of G from B-inverse, IUseBI=4.
 Internal  Forces:  Max     0.015602810 RMS     0.003808642
 Search for a local minimum.
 Step number   5 out of a maximum of   57
 All quantities printed in internal units (Hartrees-Bohrs-Radians)
 Mixed Optimization -- RFO/linear search
 Update second derivatives using D2CorX and points    3    4    5
 ITU=  0 -1  0  1  0
 Use linear search instead of GDIIS.
     Eigenvalues ---    0.02011   0.02011   0.02011   0.02011   0.02011
     Eigenvalues ---    0.02011   0.02011   0.02011   0.16000   0.23653
     Eigenvalues ---    0.24979   0.24999   0.25000   0.25000   0.25000
     Eigenvalues ---    0.25185   0.28305   0.29032   0.29033   0.29114
     Eigenvalues ---    0.40558   0.41463   0.44483   0.44645   0.44656
     Eigenvalues ---    0.52045   0.54116
 RFO step:  Lambda=-1.74043982D-03 EMin= 2.01067644D-02
 Quartic linear search produced a step of -0.00304.
 Iteration  1 RMS(Cart)=  0.01402737 RMS(Int)=  0.00013977
 Iteration  2 RMS(Cart)=  0.00018871 RMS(Int)=  0.00004903
 Iteration  3 RMS(Cart)=  0.00000002 RMS(Int)=  0.00004903
 ClnCor:  largest displacement from symmetrization is 3.26D-12 for atom     9.
 Variable       Old X    -DE/DX   Delta X   Delta X   Delta X     New X
                                 (Linear)    (Quad)   (Total)
    R1        2.65964  -0.00060   0.00007  -0.00316  -0.00308   2.65656
    R2        2.65374   0.00025   0.00007  -0.00305  -0.00304   2.65070
    R3        3.23375  -0.00096  -0.00002  -0.00649  -0.00652   3.22723
    R4        2.62015   0.01264   0.00010   0.02585   0.02602   2.64617
    R5        3.24654  -0.00180  -0.00002  -0.00892  -0.00895   3.23759
    R6        2.59903   0.01560   0.00011   0.03152   0.03170   2.63072
    R7        2.07396   0.00396  -0.00095   0.00422   0.00327   2.07723
    R8        2.61777   0.00451   0.00007   0.00706   0.00712   2.62489
    R9        2.65901  -0.00217   0.00005  -0.00757  -0.00759   2.65142
   R10        3.24448   0.00012  -0.00000  -0.00313  -0.00313   3.24134
   R11        3.24348  -0.00147  -0.00003  -0.00781  -0.00784   3.23564
    A1        2.07913   0.00187   0.00001   0.00324   0.00319   2.08232
    A2        2.10186  -0.00112  -0.00001  -0.00225  -0.00222   2.09963
    A3        2.10219  -0.00075  -0.00000  -0.00099  -0.00096   2.10123
    A4        2.07476   0.00430   0.00001   0.01929   0.01938   2.09413
    A5        2.10388  -0.00262  -0.00001  -0.01133  -0.01137   2.09251
    A6        2.10455  -0.00168   0.00000  -0.00796  -0.00800   2.09655
    A7        2.15441  -0.01110  -0.00004  -0.03819  -0.03809   2.11632
    A8        2.05853   0.00637   0.00002   0.02378   0.02374   2.08227
    A9        2.07024   0.00473   0.00002   0.01441   0.01436   2.08460
   A10        2.04957   0.00247   0.00002   0.01293   0.01304   2.06261
   A11        2.12586   0.00149  -0.00001   0.00527   0.00518   2.13104
   A12        2.07641  -0.00033   0.00001  -0.00125  -0.00120   2.07521
   A13        2.08092  -0.00117  -0.00000  -0.00402  -0.00398   2.07694
   A14        2.08265   0.00096   0.00000  -0.00255  -0.00269   2.07995
   A15        2.08424  -0.00089  -0.00000  -0.00089  -0.00082   2.08342
   A16        2.11629  -0.00008   0.00000   0.00344   0.00351   2.11981
    D1       -0.00000  -0.00000   0.00000  -0.00000   0.00000   0.00000
    D2        3.14159   0.00000   0.00000   0.00000   0.00000   3.14159
    D3        3.14159  -0.00000   0.00000  -0.00000   0.00000   3.14159
    D4        0.00000  -0.00000   0.00000  -0.00000   0.00000   0.00000
    D5        0.00000  -0.00000   0.00000  -0.00000   0.00000   0.00000
    D6        3.14159  -0.00000   0.00000  -0.00000   0.00000   3.14159
    D7        3.14159   0.00000   0.00000   0.00000   0.00000   3.14159
    D8       -0.00000   0.00000   0.00000   0.00000   0.00000   0.00000
    D9        0.00000   0.00000   0.00000   0.00000   0.00000   0.00000
   D10        3.14159   0.00000   0.00000   0.00000   0.00000   3.14159
   D11        3.14159  -0.00000   0.00000  -0.00000   0.00000   3.14159
   D12       -0.00000   0.00000   0.00000  -0.00000   0.00000   0.00000
   D13        0.00000  -0.00000   0.00000  -0.00000   0.00000   0.00000
   D14        3.14159  -0.00000   0.00000  -0.00000   0.00000   3.14159
   D15       -0.00000  -0.00000   0.00000  -0.00000   0.00000   0.00000
   D16        3.14159  -0.00000   0.00000  -0.00000   0.00000   3.14159
   D17       -0.00000   0.00000   0.00000   0.00000   0.00000   0.00000
   D18        3.14159   0.00000   0.00000   0.00000   0.00000   3.14159
   D19        3.14159   0.00000   0.00000   0.00000   0.00000   3.14159
   D20       -0.00000   0.00000   0.00000   0.00000   0.00000   0.00000
         Item               Value     Threshold  Converged?
 Maximum Force            0.015603     0.000450     NO 
 RMS     Force            0.003809     0.000300     NO 
 Maximum Displacement     0.050952     0.001800     NO 
 RMS     Displacement     0.014005     0.001200     NO 
 Predicted change in Energy=-8.730138D-04
 GradGradGradGradGradGradGradGradGradGradGradGradGradGradGradGradGradGrad

                          Input orientation:                          
 ---------------------------------------------------------------------
 Center     Atomic      Atomic             Coordinates (Angstroms)
 Number     Number       Type             X           Y           Z
 ---------------------------------------------------------------------
      1          6           0       -3.174170    0.225846    0.000000
      2          6           0       -1.973141    0.956451    0.000000
      3          6           0       -0.744905    0.283950    0.000000
      4          6           0       -0.682875   -1.106786    0.000000
      5          6           0       -1.876833   -1.816626   -0.000000
      6          6           0       -3.125104   -1.175985   -0.000000
      7         17           0       -4.586950   -2.067458   -0.000000
      8         17           0       -4.676596    1.037767    0.000000
      9         17           0       -1.821999   -3.530994   -0.000000
     10         17           0       -2.015630    2.669183    0.000000
     11          1           0        0.187364    0.866333    0.000000
 ---------------------------------------------------------------------
                    Distance matrix (angstroms):
                    1          2          3          4          5
     1  C    0.000000
     2  C    1.405793   0.000000
     3  C    2.429960   1.400294   0.000000
     4  C    2.825325   2.433462   1.392119   0.000000
     5  C    2.419665   2.774749   2.386143   1.389031   0.000000
     6  C    1.402690   2.423696   2.792267   2.443209   1.403069
     7  Cl   2.693546   3.997002   4.504490   4.020534   2.721700
     8  Cl   1.707776   2.704678   4.003303   4.533092   3.998279
     9  Cl   3.992770   4.489989   3.964079   2.678504   1.715244
    10  Cl   2.704091   1.713259   2.702606   4.004270   4.487956
    11  H    3.422007   2.162384   1.099225   2.156505   3.385140
                    6          7          8          9         10
     6  C    0.000000
     7  Cl   1.712226   0.000000
     8  Cl   2.703300   3.106519   0.000000
     9  Cl   2.691496   3.128401   5.387235   0.000000
    10  Cl   4.002030   5.389569   3.121259   6.203199   0.000000
    11  H    3.891465   5.603678   4.866981   4.834669   2.846656
                   11
    11  H    0.000000
 Stoichiometry    C6HCl4(1-)
 Framework group  CS[SG(C6HCl4)]
 Deg. of freedom    19
 Full point group                 CS      NOp   2
 Largest Abelian subgroup         CS      NOp   2
 Largest concise Abelian subgroup C1      NOp   1
                         Standard orientation:                         
 ---------------------------------------------------------------------
 Center     Atomic      Atomic             Coordinates (Angstroms)
 Number     Number       Type             X           Y           Z
 ---------------------------------------------------------------------
      1          6           0        0.000000   -0.780606    0.000000
      2          6           0        1.405552   -0.806642    0.000000
      3          6           0        2.127724    0.393061    0.000000
      4          6           0        1.480657    1.625660    0.000000
      5          6           0        0.091675    1.637322    0.000000
      6          6           0       -0.663855    0.455046    0.000000
      7         17           0       -2.375751    0.488645    0.000000
      8         17           0       -0.888784   -2.238880    0.000000
      9         17           0       -0.724653    3.145855    0.000000
     10         17           0        2.231720   -2.307543    0.000000
     11          1           0        3.226442    0.359661    0.000000
 ---------------------------------------------------------------------
 Rotational constants (GHZ):           1.1911049           0.5537171           0.3779957
 Standard basis: VSTO-6G (5D, 7F)
 There are    31 symmetry adapted cartesian basis functions of A'  symmetry.
 There are    10 symmetry adapted cartesian basis functions of A"  symmetry.
 There are    31 symmetry adapted basis functions of A'  symmetry.
 There are    10 symmetry adapted basis functions of A"  symmetry.
    41 basis functions,   246 primitive gaussians,    41 cartesian basis functions
    27 alpha electrons       27 beta electrons
       nuclear repulsion energy       298.4515320647 Hartrees.
 Integral buffers will be    131072 words long.
 Regular integral format.
 Two-electron integral symmetry is turned off.
 Do NDO integrals.
 One-electron integrals computed using PRISM.
 NBasis=    41 RedAO= T EigKep=  1.00D+00  NBF=    31    10
 NBsUse=    41 1.00D-06 EigRej= -1.00D+00 NBFU=    31    10
 Initial guess from the checkpoint file:  "geometry_chks/12_45ClBzAnionIntermediate.chk"
 B after Tr=     0.000000    0.000000   -0.000000
[...]
 SCF Done:  E(RAM1) =  0.122998561495E-01 A.U. after   10 cycles
            NFock=  9  Conv=0.32D-08     -V/T= 1.0001
 Calling FoFJK, ICntrl=      2127 FMM=F ISym2X=1 I1Cent= 0 IOpClX= 0 NMat=1 NMatS=1 NMatT=0.
 ***** Axes restored to original set *****
 -------------------------------------------------------------------
 Center     Atomic                   Forces (Hartrees/Bohr)
 Number     Number              X              Y              Z
 -------------------------------------------------------------------
      1        6           0.000019623   -0.000079058   -0.000000000
      2        6          -0.000007801    0.000073639    0.000000000
      3        6           0.000068394   -0.000037821   -0.000000000
      4        6           0.000009205    0.000001983    0.000000000
      5        6          -0.000042531    0.000042736    0.000000000
      6        6           0.000021620    0.000024610   -0.000000000
      7       17           0.000019462    0.000039310    0.000000000
      8       17          -0.000008712   -0.000027888    0.000000000
      9       17          -0.000013800    0.000028430    0.000000000
     10       17          -0.000006111   -0.000058432    0.000000000
     11        1          -0.000059347   -0.000007508    0.000000000
 -------------------------------------------------------------------
 Cartesian Forces:  Max     0.000079058 RMS     0.000032018

 GradGradGradGradGradGradGradGradGradGradGradGradGradGradGradGradGradGrad
 Berny optimization.
 Using GEDIIS/GDIIS optimizer.
 FormGI is forming the generalized inverse of G from B-inverse, IUseBI=4.
 Internal  Forces:  Max     0.000118857 RMS     0.000029363
 Search for a local minimum.
 Step number   9 out of a maximum of   57
 All quantities printed in internal units (Hartrees-Bohrs-Radians)
 Mixed Optimization -- En-DIIS/RFO-DIIS
 Swapping is turned off.
 Update second derivatives using D2CorX and points    3    4    5    6    7
                                                      8    9
 DE= -4.24D-07 DEPred=-4.88D-07 R= 8.68D-01
 Trust test= 8.68D-01 RLast= 1.66D-03 DXMaxT set to 2.52D-01
 ITU=  0  1  1  1  0 -1  0  1  0
     Eigenvalues ---    0.02011   0.02011   0.02011   0.02011   0.02011
     Eigenvalues ---    0.02011   0.02011   0.02011   0.14303   0.16621
     Eigenvalues ---    0.23902   0.24988   0.24995   0.25076   0.25345
     Eigenvalues ---    0.26015   0.28722   0.29085   0.29143   0.30763
     Eigenvalues ---    0.41338   0.42516   0.44241   0.44723   0.50795
     Eigenvalues ---    0.59766   0.71132
 En-DIIS/RFO-DIIS/Sim-DIIS IScMMF=       -3 using points:     9    8    7
 RFO step:  Lambda=-8.33487605D-08.
 DidBck=F Rises=F RFO-DIIS coefs:    1.00390   -0.01148    0.00758
 Iteration  1 RMS(Cart)=  0.00013573 RMS(Int)=  0.00000001
 Iteration  2 RMS(Cart)=  0.00000001 RMS(Int)=  0.00000000
 ClnCor:  largest displacement from symmetrization is 2.04D-12 for atom     9.
 Variable       Old X    -DE/DX   Delta X   Delta X   Delta X     New X
                                 (Linear)    (Quad)   (Total)
    R1        2.65271  -0.00001   0.00001  -0.00001  -0.00000   2.65271
    R2        2.65531  -0.00012   0.00000  -0.00015  -0.00015   2.65516
    R3        3.23112  -0.00001   0.00001  -0.00000   0.00001   3.23112
    R4        2.64135   0.00002  -0.00000   0.00004   0.00004   2.64139
    R5        3.24789  -0.00006  -0.00003  -0.00018  -0.00021   3.24768
    R6        2.62366  -0.00002   0.00001  -0.00003  -0.00002   2.62363
    R7        2.07652  -0.00005   0.00000  -0.00013  -0.00012   2.07640
    R8        2.61970  -0.00000   0.00001   0.00003   0.00004   2.61974
    R9        2.65158  -0.00007   0.00001  -0.00010  -0.00009   2.65149
   R10        3.24740  -0.00003  -0.00001  -0.00007  -0.00008   3.24733
   R11        3.23709  -0.00004   0.00001  -0.00010  -0.00009   3.23700
    A1        2.08003   0.00001   0.00000   0.00002   0.00002   2.08005
    A2        2.10221   0.00004  -0.00001   0.00014   0.00013   2.10234
    A3        2.10094  -0.00005   0.00001  -0.00016  -0.00015   2.10079
    A4        2.10158  -0.00001  -0.00001  -0.00001  -0.00002   2.10156
    A5        2.09440  -0.00000  -0.00000  -0.00003  -0.00004   2.09436
    A6        2.08721   0.00002   0.00001   0.00004   0.00005   2.08726
    A7        2.10965  -0.00000   0.00001  -0.00000   0.00001   2.10966
    A8        2.08681  -0.00002  -0.00001  -0.00017  -0.00018   2.08664
    A9        2.08672   0.00003  -0.00000   0.00017   0.00016   2.08689
   A10        2.06766  -0.00003  -0.00001  -0.00008  -0.00009   2.06758
   A11        2.13314   0.00002  -0.00000   0.00008   0.00007   2.13321
   A12        2.07180   0.00001   0.00000   0.00005   0.00005   2.07186
   A13        2.07824  -0.00003   0.00000  -0.00013  -0.00013   2.07812
   A14        2.07430   0.00001   0.00000  -0.00001  -0.00000   2.07430
   A15        2.08553  -0.00005   0.00000  -0.00012  -0.00011   2.08542
   A16        2.12335   0.00003  -0.00001   0.00012   0.00012   2.12347
    D1       -0.00000   0.00000   0.00000   0.00000   0.00000   0.00000
    D2        3.14159   0.00000   0.00000   0.00000   0.00000   3.14159
    D3        3.14159  -0.00000   0.00000  -0.00000   0.00000   3.14159
    D4        0.00000  -0.00000   0.00000  -0.00000  -0.00000   0.00000
    D5       -0.00000  -0.00000   0.00000  -0.00000   0.00000   0.00000
    D6        3.14159  -0.00000   0.00000  -0.00000   0.00000   3.14159
    D7        3.14159   0.00000   0.00000   0.00000   0.00000   3.14159
    D8       -0.00000   0.00000   0.00000   0.00000   0.00000   0.00000
    D9        0.00000  -0.00000   0.00000  -0.00000  -0.00000   0.00000
   D10        3.14159   0.00000   0.00000   0.00000   0.00000   3.14159
   D11        3.14159  -0.00000   0.00000  -0.00000   0.00000   3.14159
   D12       -0.00000  -0.00000   0.00000  -0.00000   0.00000   0.00000
   D13       -0.00000   0.00000   0.00000   0.00000   0.00000   0.00000
   D14        3.14159  -0.00000   0.00000  -0.00000   0.00000   3.14159
   D15       -0.00000   0.00000   0.00000   0.00000   0.00000   0.00000
   D16        3.14159   0.00000   0.00000   0.00000   0.00000   3.14159
   D17        0.00000  -0.00000   0.00000  -0.00000   0.00000   0.00000
   D18        3.14159   0.00000   0.00000   0.00000   0.00000   3.14159
   D19        3.14159  -0.00000   0.00000  -0.00000   0.00000   3.14159
   D20        0.00000   0.00000   0.00000   0.00000  -0.00000   0.00000
         Item               Value     Threshold  Converged?
 Maximum Force            0.000119     0.000450     YES
 RMS     Force            0.000029     0.000300     YES
 Maximum Displacement     0.000504     0.001800     YES
 RMS     Displacement     0.000136     0.001200     YES
 Predicted change in Energy=-4.523126D-08
 Optimization completed.
    -- Stationary point found.
                           ----------------------------
                           !   Optimized Parameters   !
                           ! (Angstroms and Degrees)  !
 --------------------------                            --------------------------
 ! Name  Definition              Value          Derivative Info.                !
 --------------------------------------------------------------------------------
 ! R1    R(1,2)                  1.4038         -DE/DX =    0.0                 !
 ! R2    R(1,6)                  1.4051         -DE/DX =   -0.0001              !
 ! R3    R(1,8)                  1.7098         -DE/DX =    0.0                 !
 ! R4    R(2,3)                  1.3977         -DE/DX =    0.0                 !
 ! R5    R(2,10)                 1.7187         -DE/DX =   -0.0001              !
 ! R6    R(3,4)                  1.3884         -DE/DX =    0.0                 !
 ! R7    R(3,11)                 1.0988         -DE/DX =   -0.0001              !
 ! R8    R(4,5)                  1.3863         -DE/DX =    0.0                 !
 ! R9    R(5,6)                  1.4032         -DE/DX =   -0.0001              !
 ! R10   R(5,9)                  1.7185         -DE/DX =    0.0                 !
 ! R11   R(6,7)                  1.713          -DE/DX =    0.0                 !
 ! A1    A(2,1,6)              119.1772         -DE/DX =    0.0                 !
 ! A2    A(2,1,8)              120.4476         -DE/DX =    0.0                 !
 ! A3    A(6,1,8)              120.3751         -DE/DX =   -0.0001              !
 ! A4    A(1,2,3)              120.4117         -DE/DX =    0.0                 !
 ! A5    A(1,2,10)             120.0002         -DE/DX =    0.0                 !
 ! A6    A(3,2,10)             119.5881         -DE/DX =    0.0                 !
 ! A7    A(2,3,4)              120.874          -DE/DX =    0.0                 !
 ! A8    A(2,3,11)             119.5656         -DE/DX =    0.0                 !
 ! A9    A(4,3,11)             119.5604         -DE/DX =    0.0                 !
 ! A10   A(3,4,5)              118.4683         -DE/DX =    0.0                 !
 ! A11   A(4,5,6)              122.2199         -DE/DX =    0.0                 !
 ! A12   A(4,5,9)              118.7057         -DE/DX =    0.0                 !
 ! A13   A(6,5,9)              119.0744         -DE/DX =    0.0                 !
 ! A14   A(1,6,5)              118.8488         -DE/DX =    0.0                 !
 ! A15   A(1,6,7)              119.492          -DE/DX =    0.0                 !
 ! A16   A(5,6,7)              121.6592         -DE/DX =    0.0                 !
 ! D1    D(6,1,2,3)              0.0            -DE/DX =    0.0                 !
 ! D2    D(6,1,2,10)           180.0            -DE/DX =    0.0                 !
 ! D3    D(8,1,2,3)            180.0            -DE/DX =    0.0                 !
 ! D4    D(8,1,2,10)             0.0            -DE/DX =    0.0                 !
 ! D5    D(2,1,6,5)              0.0            -DE/DX =    0.0                 !
 ! D6    D(2,1,6,7)            180.0            -DE/DX =    0.0                 !
 ! D7    D(8,1,6,5)            180.0            -DE/DX =    0.0                 !
 ! D8    D(8,1,6,7)              0.0            -DE/DX =    0.0                 !
 ! D9    D(1,2,3,4)              0.0            -DE/DX =    0.0                 !
 ! D10   D(1,2,3,11)           180.0            -DE/DX =    0.0                 !
 ! D11   D(10,2,3,4)           180.0            -DE/DX =    0.0                 !
 ! D12   D(10,2,3,11)            0.0            -DE/DX =    0.0                 !
 ! D13   D(2,3,4,5)              0.0            -DE/DX =    0.0                 !
 ! D14   D(11,3,4,5)           180.0            -DE/DX =    0.0                 !
 ! D15   D(3,4,5,6)              0.0            -DE/DX =    0.0                 !
 ! D16   D(3,4,5,9)            180.0            -DE/DX =    0.0                 !
 ! D17   D(4,5,6,1)              0.0            -DE/DX =    0.0                 !
 ! D18   D(4,5,6,7)            180.0            -DE/DX =    0.0                 !
 ! D19   D(9,5,6,1)            180.0            -DE/DX =    0.0                 !
 ! D20   D(9,5,6,7)              0.0            -DE/DX =    0.0                 !
 --------------------------------------------------------------------------------
 GradGradGradGradGradGradGradGradGradGradGradGradGradGradGradGradGradGrad

                          Input orientation:                          
 ---------------------------------------------------------------------
 Center     Atomic      Atomic             Coordinates (Angstroms)
 Number     Number       Type             X           Y           Z
 ---------------------------------------------------------------------
      1          6           0       -3.175736    0.226167    0.000000
      2          6           0       -1.973713    0.951198    0.000000
      3          6           0       -0.745248    0.284446    0.000000
      4          6           0       -0.687519   -1.102732    0.000000
      5          6           0       -1.877644   -1.813637   -0.000000
      6          6           0       -3.128655   -1.178174   -0.000000
      7         17           0       -4.590594   -2.070969   -0.000000
      8         17           0       -4.679007    1.040849    0.000000
      9         17           0       -1.813303   -3.530884   -0.000000
     10         17           0       -2.006621    2.669590    0.000000
     11          1           0        0.187201    0.865827    0.000000
 ---------------------------------------------------------------------
                    Distance matrix (angstroms):
                    1          2          3          4          5
     1  C    0.000000
     2  C    1.403756   0.000000
     3  C    2.431186   1.397742   0.000000
     4  C    2.820850   2.423411   1.388379   0.000000
     5  C    2.417818   2.766503   2.384171   1.386284   0.000000
     6  C    1.405130   2.422419   2.796406   2.442302   1.403154
     7  Cl   2.697899   3.997694   4.509398   4.021377   2.725127
     8  Cl   1.709833   2.706779   4.005821   4.530664   3.999465
     9  Cl   3.996455   4.484951   3.962005   2.676436   1.718452
    10  Cl   2.708717   1.718708   2.698143   3.996304   4.485082
    11  H    3.423231   2.162600   1.098847   2.154150   3.382767
                    6          7          8          9         10
     6  C    0.000000
     7  Cl   1.712994   0.000000
     8  Cl   2.706964   3.113074   0.000000
     9  Cl   2.695439   3.137625   5.395646   0.000000
    10  Cl   4.008023   5.399057   3.129607   6.203487   0.000000
    11  H    3.895234   5.608217   4.869355   4.830433   2.840145
                   11
    11  H    0.000000
 Stoichiometry    C6HCl4(1-)
 Framework group  CS[SG(C6HCl4)]
 Deg. of freedom    19
 Full point group                 CS      NOp   2
 Largest Abelian subgroup         CS      NOp   2
 Largest concise Abelian subgroup C1      NOp   1
                         Standard orientation:                         
 ---------------------------------------------------------------------
 Center     Atomic      Atomic             Coordinates (Angstroms)
 Number     Number       Type             X           Y           Z
 ---------------------------------------------------------------------
      1          6           0        0.000000   -0.782265    0.000000
      2          6           0        1.403657   -0.798915   -0.000000
      3          6           0        2.125455    0.398035   -0.000000
      4          6           0        1.472908    1.623507   -0.000000
      5          6           0        0.086664    1.633999   -0.000000
      6          6           0       -0.670419    0.452615    0.000000
      7         17           0       -2.383155    0.482342    0.000000
      8         17           0       -0.883882   -2.245919    0.000000
      9         17           0       -0.727295    3.147454   -0.000000
     10         17           0        2.245302   -2.297444    0.000000
     11          1           0        3.223913    0.368778   -0.000000
 ---------------------------------------------------------------------
 Rotational constants (GHZ):           1.1865110           0.5534256           0.3773963

 **********************************************************************

            Population analysis using the SCF Density.

 **********************************************************************

 Orbital symmetries:
       Occupied  (A') (A') (A') (A') (A') (A') (A') (A') (A') (A')
                 (A') (A') (A') (A") (A') (A") (A") (A') (A") (A')
                 (A') (A') (A') (A") (A") (A") (A')
       Virtual   (A") (A") (A') (A') (A') (A') (A") (A') (A') (A')
                 (A') (A') (A') (A')
 The electronic state is 1-A'.
 Alpha  occ. eigenvalues --   -1.30271  -1.24962  -1.24103  -1.22570  -1.19790
 Alpha  occ. eigenvalues --   -0.98271  -0.95700  -0.70995  -0.68831  -0.52615
 Alpha  occ. eigenvalues --   -0.46975  -0.46533  -0.41766  -0.41583  -0.38127
 Alpha  occ. eigenvalues --   -0.35854  -0.33807  -0.33138  -0.32254  -0.31648
 Alpha  occ. eigenvalues --   -0.30095  -0.29607  -0.27382  -0.27159  -0.19381
 Alpha  occ. eigenvalues --   -0.17679  -0.12971
 Alpha virt. eigenvalues --    0.15747   0.16857   0.17270   0.18875   0.19420
 Alpha virt. eigenvalues --    0.21990   0.27240   0.29723   0.30902   0.32002
 Alpha virt. eigenvalues --    0.32942   0.33660   0.37549   0.39438
          Condensed to atoms (all electrons):
               1          2          3          4          5          6
     1  C    4.130405   0.000000   0.000000   0.000000   0.000000   0.000000
     2  C    0.000000   4.060507   0.000000   0.000000   0.000000   0.000000
     3  C    0.000000   0.000000   4.134709   0.000000   0.000000   0.000000
     4  C    0.000000   0.000000   0.000000   4.348996   0.000000   0.000000
     5  C    0.000000   0.000000   0.000000   0.000000   4.054078   0.000000
     6  C    0.000000   0.000000   0.000000   0.000000   0.000000   4.058597
     7  Cl   0.000000   0.000000   0.000000   0.000000   0.000000   0.000000
     8  Cl   0.000000   0.000000   0.000000   0.000000   0.000000   0.000000
     9  Cl   0.000000   0.000000   0.000000   0.000000   0.000000   0.000000
    10  Cl   0.000000   0.000000   0.000000   0.000000   0.000000   0.000000
    11  H    0.000000   0.000000   0.000000   0.000000   0.000000   0.000000
               7          8          9         10         11
     1  C    0.000000   0.000000   0.000000   0.000000   0.000000
     2  C    0.000000   0.000000   0.000000   0.000000   0.000000
     3  C    0.000000   0.000000   0.000000   0.000000   0.000000
     4  C    0.000000   0.000000   0.000000   0.000000   0.000000
     5  C    0.000000   0.000000   0.000000   0.000000   0.000000
     6  C    0.000000   0.000000   0.000000   0.000000   0.000000
     7  Cl   7.072579   0.000000   0.000000   0.000000   0.000000
     8  Cl   0.000000   7.063261   0.000000   0.000000   0.000000
     9  Cl   0.000000   0.000000   7.094602   0.000000   0.000000
    10  Cl   0.000000   0.000000   0.000000   7.097172   0.000000
    11  H    0.000000   0.000000   0.000000   0.000000   0.885094
 Mulliken charges:
               1
     1  C   -0.130405
     2  C   -0.060507
     3  C   -0.134709
     4  C   -0.348996
     5  C   -0.054078
     6  C   -0.058597
     7  Cl  -0.072579
     8  Cl  -0.063261
     9  Cl  -0.094602
    10  Cl  -0.097172
    11  H    0.114906
 Sum of Mulliken charges =  -1.00000
 Mulliken charges with hydrogens summed into heavy atoms:
               1
     1  C   -0.130405
     2  C   -0.060507
     3  C   -0.019804
     4  C   -0.348996
     5  C   -0.054078
     6  C   -0.058597
     7  Cl  -0.072579
     8  Cl  -0.063261
     9  Cl  -0.094602
    10  Cl  -0.097172
 Charge=             -1.0000 electrons
 Dipole moment (field-independent basis, Debye):
    X=             -3.1174    Y=             -4.2364    Z=              0.0000  Tot=              5.2597
 N-N= 2.983614892473D+02 E-N=-4.297682775375D+02  KE=-1.358487602709D+02
 Symmetry A'   KE=-1.041954729337D+02
 Symmetry A"   KE=-3.165328733717D+01
 1\1\GINC-SH02-01N39\FOpt\RAM1\ZDO\C6H1Cl4(1-)\JLAPIER\08-Dec-2025\0\\#
  opt am1 SCF(maxcyc=10000)\\Anion Intermediate (removed 3) 12_45\\-1,1
 \C,-3.1757360785,0.226166925,0.\C,-1.9737127138,0.9511975406,0.\C,-0.7
 452482348,0.2844462106,0.\C,-0.6875192175,-1.1027324049,0.\C,-1.877644
 1299,-1.8136368663,0.\C,-3.1286552833,-1.1781741632,0.\Cl,-4.590594109
 ,-2.0709692118,0.\Cl,-4.6790067777,1.040848782,0.\Cl,-1.8133034607,-3.
 530883725,0.\Cl,-2.0066213291,2.6695902739,0.\H,0.1872013342,0.8658266
 391,0.\\Version=ES64L-G16RevB.01\State=1-A'\HF=0.0122999\RMSD=3.246e-0
 9\RMSF=3.202e-05\Dipole=-1.9015211,0.8163305,0.\PG=CS [SG(C6H1Cl4)]\\@


 MUD THROWN IS GROUND LOST -- FROM A TEA BAG
 Job cpu time:       0 days  0 hours  0 minutes  6.5 seconds.
 Elapsed time:       0 days  0 hours  0 minutes 17.5 seconds.
 File lengths (MBytes):  RWF=     10 Int=      0 D2E=      0 Chk=      2 Scr=      1
 Normal termination of Gaussian 16 at Mon Dec  8 17:08:44 2025.
