 Entering Gaussian System, Link 0=g16
 Initial command:
 /share/software/user/restricted/gaussian/g16.B01/l1.exe "/home/users/jlapier/Chloroaromatics/Gau-27859.inp" -scrdir="/home/users/jlapier/Chloroaromatics/"
 Entering Link 1 = /share/software/user/restricted/gaussian/g16.B01/l1.exe PID=     27864.
  
 Copyright (c) 1988-2017, Gaussian, Inc.  All Rights Reserved.
  
 This is part of the Gaussian(R) 16 program.  It is based on
 the Gaussian(R) 09 system (copyright 2009, Gaussian, Inc.),
 the Gaussian(R) 03 system (copyright 2003, Gaussian, Inc.),
 the Gaussian(R) 98 system (copyright 1998, Gaussian, Inc.),
 the Gaussian(R) 94 system (copyright 1995, Gaussian, Inc.),
 the Gaussian 92(TM) system (copyright 1992, Gaussian, Inc.),
 the Gaussian 90(TM) system (copyright 1990, Gaussian, Inc.),
 the Gaussian 88(TM) system (copyright 1988, Gaussian, Inc.),
 the Gaussian 86(TM) system (copyright 1986, Carnegie Mellon
 University), and the Gaussian 82(TM) system (copyright 1983,
 Carnegie Mellon University). Gaussian is a federally registered
 trademark of Gaussian, Inc.
  
 This software contains proprietary and confidential information,
 including trade secrets, belonging to Gaussian, Inc.
  
 This software is provided under written license and may be
 used, copied, transmitted, or stored only in accord with that
 written license.
  
 The following legend is applicable only to US Government
 contracts under FAR:
  
                    RESTRICTED RIGHTS LEGEND
  
 Use, reproduction and disclosure by the US Government is
 subject to restrictions as set forth in subparagraphs (a)
 and (c) of the Commercial Computer Software - Restricted
 Rights clause in FAR 52.227-19.
  
 Gaussian, Inc.
 340 Quinnipiac St., Bldg. 40, Wallingford CT 06492
  
  
 ---------------------------------------------------------------
 Warning -- This program may not be used in any manner that
 competes with the business of Gaussian, Inc. or will provide
 assistance to any competitor of Gaussian, Inc.  The licensee
 of this program is prohibited from giving any competitor of
 Gaussian, Inc. access to this program.  By using this program,
 the user acknowledges that Gaussian, Inc. is engaged in the
 business of creating and licensing software in the field of
 computational chemistry and represents and warrants to the
 licensee that it is not a competitor of Gaussian, Inc. and that
 it will not use this program in any manner prohibited above.
 ---------------------------------------------------------------
  

 Cite this work as:
 Gaussian 16, Revision B.01,
 M. J. Frisch, G. W. Trucks, H. B. Schlegel, G. E. Scuseria, 
 M. A. Robb, J. R. Cheeseman, G. Scalmani, V. Barone, 
 G. A. Petersson, H. Nakatsuji, X. Li, M. Caricato, A. V. Marenich, 
 J. Bloino, B. G. Janesko, R. Gomperts, B. Mennucci, H. P. Hratchian, 
 J. V. Ortiz, A. F. Izmaylov, J. L. Sonnenberg, D. Williams-Young, 
 F. Ding, F. Lipparini, F. Egidi, J. Goings, B. Peng, A. Petrone, 
 T. Henderson, D. Ranasinghe, V. G. Zakrzewski, J. Gao, N. Rega, 
 G. Zheng, W. Liang, M. Hada, M. Ehara, K. Toyota, R. Fukuda, 
 J. Hasegawa, M. Ishida, T. Nakajima, Y. Honda, O. Kitao, H. Nakai, 
 T. Vreven, K. Throssell, J. A. Montgomery, Jr., J. E. Peralta, 
 F. Ogliaro, M. J. Bearpark, J. J. Heyd, E. N. Brothers, K. N. Kudin, 
 V. N. Staroverov, T. A. Keith, R. Kobayashi, J. Normand, 
 K. Raghavachari, A. P. Rendell, J. C. Burant, S. S. Iyengar, 
 J. Tomasi, M. Cossi, J. M. Millam, M. Klene, C. Adamo, R. Cammi, 
 J. W. Ochterski, R. L. Martin, K. Morokuma, O. Farkas, 
 J. B. Foresman, and D. J. Fox, Gaussian, Inc., Wallingford CT, 2016.
 
 ******************************************
 Gaussian 16:  ES64L-G16RevB.01 20-Dec-2017
                 9-Dec-2025 
 ******************************************
 %mem=2GB
 %nprocshare=1
 Will use up to    1 processors via shared memory.
 %chk=geometry_chks/12_4ClBzNeutralRadical.chk
 -----------------
 # opt am1 SCF=XQC
 -----------------
 1/18=20,19=15,26=1,38=1/1,3;
 2/9=110,12=2,17=6,18=5,40=1/2;
 3/5=2,25=1,41=700000,71=1/1,2,3;
 4/35=1/1;
 5/5=2,8=3,13=1,35=1,38=5/2,8;
 6/7=2,8=2,9=2,10=2,28=1/1;
 7//1,2,3,16;
 1/18=20,19=15,26=1/3(2);
 2/9=110/2;
 99//99;
 2/9=110/2;
 3/5=2,25=1,41=700000,71=1,135=20/1,2,3;
 4/5=5,16=3,35=1/1;
 5/5=2,8=3,13=1,35=1,38=5/2,8;
 7//1,2,3,16;
 1/18=20,19=15,26=1/3(-5);
 2/9=110/2;
 6/7=2,8=2,9=2,10=2,19=2,28=1/1;
 99/9=1/99;
 --------------------------------
 Neutral Radical (removed 3) 12_4
 --------------------------------
 Symbolic Z-matrix:
 Charge =  0 Multiplicity = 2
 C                    -3.20928   0.19943   0. 
 C                    -2.0115    0.93555   0. 
 C                    -0.77511   0.2663    0. 
 C                    -0.7365   -1.13907   0. 
 C                    -1.93429  -1.87519   0. 
 C                    -3.17067  -1.20594   0. 
 Cl                   -4.67483  -2.13035   0. 
 Cl                   -4.76193   1.03987   0. 
 Cl                   -1.8858   -3.64003   0. 
 H                    -2.05998   2.7004    0. 
 H                     0.72905   1.19071   0. 
 
 Add virtual bond connecting atoms H11        and C3         Dist= 3.34D+00.
 Add virtual bond connecting atoms H10        and C2         Dist= 3.34D+00.

 GradGradGradGradGradGradGradGradGradGradGradGradGradGradGradGradGradGrad
 Berny optimization.
 Initialization pass.
                           ----------------------------
                           !    Initial Parameters    !
                           ! (Angstroms and Degrees)  !
 --------------------------                            --------------------------
 ! Name  Definition              Value          Derivative Info.                !
 --------------------------------------------------------------------------------
 ! R1    R(1,2)                  1.4059         estimate D2E/DX2                !
 ! R2    R(1,6)                  1.4059         estimate D2E/DX2                !
 ! R3    R(1,8)                  1.7655         estimate D2E/DX2                !
 ! R4    R(2,3)                  1.4059         estimate D2E/DX2                !
 ! R5    R(2,10)                 1.7655         estimate D2E/DX2                !
 ! R6    R(3,4)                  1.4059         estimate D2E/DX2                !
 ! R7    R(3,11)                 1.7655         estimate D2E/DX2                !
 ! R8    R(4,5)                  1.4059         estimate D2E/DX2                !
 ! R9    R(5,6)                  1.4059         estimate D2E/DX2                !
 ! R10   R(5,9)                  1.7655         estimate D2E/DX2                !
 ! R11   R(6,7)                  1.7655         estimate D2E/DX2                !
 ! A1    A(2,1,6)              119.9999         estimate D2E/DX2                !
 ! A2    A(2,1,8)              119.9999         estimate D2E/DX2                !
 ! A3    A(6,1,8)              120.0001         estimate D2E/DX2                !
 ! A4    A(1,2,3)              120.0            estimate D2E/DX2                !
 ! A5    A(1,2,10)             120.0001         estimate D2E/DX2                !
 ! A6    A(3,2,10)             119.9999         estimate D2E/DX2                !
 ! A7    A(2,3,4)              120.0001         estimate D2E/DX2                !
 ! A8    A(2,3,11)             120.0            estimate D2E/DX2                !
 ! A9    A(4,3,11)             119.9999         estimate D2E/DX2                !
 ! A10   A(3,4,5)              119.9997         estimate D2E/DX2                !
 ! A11   A(4,5,6)              120.0            estimate D2E/DX2                !
 ! A12   A(4,5,9)              119.9996         estimate D2E/DX2                !
 ! A13   A(6,5,9)              120.0004         estimate D2E/DX2                !
 ! A14   A(1,6,5)              120.0003         estimate D2E/DX2                !
 ! A15   A(1,6,7)              119.9999         estimate D2E/DX2                !
 ! A16   A(5,6,7)              119.9998         estimate D2E/DX2                !
 ! D1    D(6,1,2,3)              0.0            estimate D2E/DX2                !
 ! D2    D(6,1,2,10)           180.0            estimate D2E/DX2                !
 ! D3    D(8,1,2,3)            180.0            estimate D2E/DX2                !
 ! D4    D(8,1,2,10)             0.0            estimate D2E/DX2                !
 ! D5    D(2,1,6,5)              0.0            estimate D2E/DX2                !
 ! D6    D(2,1,6,7)            180.0            estimate D2E/DX2                !
 ! D7    D(8,1,6,5)            180.0            estimate D2E/DX2                !
 ! D8    D(8,1,6,7)              0.0            estimate D2E/DX2                !
 ! D9    D(1,2,3,4)              0.0            estimate D2E/DX2                !
 ! D10   D(1,2,3,11)           180.0            estimate D2E/DX2                !
 ! D11   D(10,2,3,4)           180.0            estimate D2E/DX2                !
 ! D12   D(10,2,3,11)            0.0            estimate D2E/DX2                !
 ! D13   D(2,3,4,5)              0.0            estimate D2E/DX2                !
 ! D14   D(11,3,4,5)           180.0            estimate D2E/DX2                !
 ! D15   D(3,4,5,6)              0.0            estimate D2E/DX2                !
 ! D16   D(3,4,5,9)            180.0            estimate D2E/DX2                !
 ! D17   D(4,5,6,1)              0.0            estimate D2E/DX2                !
 ! D18   D(4,5,6,7)            180.0            estimate D2E/DX2                !
 ! D19   D(9,5,6,1)            180.0            estimate D2E/DX2                !
 ! D20   D(9,5,6,7)              0.0            estimate D2E/DX2                !
 --------------------------------------------------------------------------------
 Trust Radius=3.00D-01 FncErr=1.00D-07 GrdErr=1.00D-07 EigMax=2.50D+02 EigMin=1.00D-04
 Number of steps in this run=     57 maximum allowed number of steps=    100.
 GradGradGradGradGradGradGradGradGradGradGradGradGradGradGradGradGradGrad

                          Input orientation:                          
 ---------------------------------------------------------------------
 Center     Atomic      Atomic             Coordinates (Angstroms)
 Number     Number       Type             X           Y           Z
 ---------------------------------------------------------------------
      1          6           0       -3.209280    0.199430    0.000000
      2          6           0       -2.011500    0.935550    0.000000
      3          6           0       -0.775110    0.266300    0.000000
      4          6           0       -0.736500   -1.139070    0.000000
      5          6           0       -1.934290   -1.875190    0.000000
      6          6           0       -3.170670   -1.205940    0.000000
      7         17           0       -4.674830   -2.130350    0.000000
      8         17           0       -4.761930    1.039870    0.000000
      9         17           0       -1.885800   -3.640030    0.000000
     10          1           0       -2.059980    2.700400    0.000000
     11          1           0        0.729050    1.190710    0.000000
 ---------------------------------------------------------------------
                    Distance matrix (angstroms):
                    1          2          3          4          5
     1  C    0.000000
     2  C    1.405898   0.000000
     3  C    2.435088   1.405900   0.000000
     4  C    2.811801   2.435092   1.405900   0.000000
     5  C    2.435087   2.811800   2.435093   1.405907   0.000000
     6  C    1.405900   2.435088   2.811796   2.435088   1.405892
     7  Cl   2.752401   4.061166   4.577308   4.061167   2.752393
     8  Cl   1.765520   2.752408   4.061175   4.577321   4.061173
     9  Cl   4.061164   4.577306   4.061163   2.752397   1.765506
    10  H    2.752406   1.765516   2.752405   4.061173   4.577316
    11  H    4.061167   2.752403   1.765512   2.752401   4.061173
                    6          7          8          9         10
     6  C    0.000000
     7  Cl   1.765512   0.000000
     8  Cl   2.752412   3.171416   0.000000
     9  Cl   2.752396   3.171407   5.493049   0.000000
    10  H    4.061173   5.493049   3.171418   6.342822   0.000000
    11  H    4.577308   6.342819   5.493051   5.493040   3.171412
                   11
    11  H    0.000000
 Stoichiometry    C6H2Cl3(2)
 Framework group  CS[SG(C6H2Cl3)]
 Deg. of freedom    19
 Full point group                 CS      NOp   2
 Largest Abelian subgroup         CS      NOp   2
 Largest concise Abelian subgroup C1      NOp   1
                         Standard orientation:                         
 ---------------------------------------------------------------------
 Center     Atomic      Atomic             Coordinates (Angstroms)
 Number     Number       Type             X           Y           Z
 ---------------------------------------------------------------------
      1          6           0        0.987513    0.800123    0.000000
      2          6           0        2.205057    0.097174    0.000000
      3          6           0        2.205057   -1.308726    0.000000
      4          6           0        0.987513   -2.011678    0.000000
      5          6           0       -0.230036   -1.308721    0.000000
      6          6           0       -0.230031    0.097170    0.000000
      7         17           0       -1.759009    0.979926    0.000000
      8         17           0        0.987513    2.565643    0.000000
      9         17           0       -1.759005   -2.191481    0.000000
     10          1           0        3.734040    0.979930    0.000000
     11          1           0        3.734035   -2.191482    0.000000
 ---------------------------------------------------------------------
 Rotational constants (GHZ):           1.4523929           0.8332497           0.5294817
 Standard basis: VSTO-6G (5D, 7F)
 There are    29 symmetry adapted cartesian basis functions of A'  symmetry.
 There are     9 symmetry adapted cartesian basis functions of A"  symmetry.
 There are    29 symmetry adapted basis functions of A'  symmetry.
 There are     9 symmetry adapted basis functions of A"  symmetry.
    38 basis functions,   228 primitive gaussians,    38 cartesian basis functions
    24 alpha electrons       23 beta electrons
       nuclear repulsion energy       242.1156939607 Hartrees.
 Integral buffers will be    131072 words long.
 Regular integral format.
 Two-electron integral symmetry is turned off.
 Do NDO integrals.
 One-electron integrals computed using PRISM.
 NBasis=    38 RedAO= T EigKep=  1.00D+00  NBF=    29     9
 NBsUse=    38 1.00D-06 EigRej= -1.00D+00 NBFU=    29     9
 Simple Huckel Guess.
 Initial guess orbital symmetries:
 Alpha Orbitals:
       Occupied  (A') (A') (A') (A') (A') (A') (A') (A') (A') (A")
                 (A') (A') (A') (A') (A") (A") (A') (A") (A') (A')
                 (A') (A") (A") (A')
       Virtual   (A') (A") (A") (A') (A") (A') (A') (A') (A') (A')
                 (A') (A') (A') (A')
 Beta  Orbitals:
       Occupied  (A') (A') (A') (A') (A') (A') (A') (A') (A') (A")
                 (A') (A') (A') (A') (A") (A") (A') (A") (A') (A')
                 (A') (A") (A")
       Virtual   (A') (A') (A") (A") (A') (A") (A') (A') (A') (A')
                 (A') (A') (A') (A') (A')
 The electronic state of the initial guess is 2-A'.
 Initial guess <Sx>= 0.0000 <Sy>= 0.0000 <Sz>= 0.5000 <S**2>= 0.7500 S= 0.5000
 Keep J ints in memory in canonical form, NReq=863588.
 Overlap will be assumed to be unity.
 Requested convergence on RMS density matrix=1.00D-08 within  32 cycles.
 Requested convergence on MAX density matrix=1.00D-06.
 Requested convergence on             energy=1.00D-06.
 No special actions if energy rises.
 Fock symm off for IB=2 I1=    1 I=   30 J=   29 Cut=1.00D-07 Err=4.84D-03
 Fock matrix is not symmetric: symmetry in diagonalization turned off.
 Rare condition: small coef for last iteration:  0.000D+00
 Rare condition: small coef for last iteration:  0.000D+00
 Rare condition: small coef for last iteration:  0.000D+00
 Rare condition: small coef for last iteration:  0.000D+00
 Rare condition: small coef for last iteration:  0.000D+00
 Rare condition: small coef for last iteration:  0.000D+00
 Rare condition: small coef for last iteration:  0.000D+00
 Rare condition: small coef for last iteration:  0.000D+00
 Rare condition: small coef for last iteration:  0.000D+00
 Rare condition: small coef for last iteration:  0.000D+00
 Rare condition: small coef for last iteration:  0.000D+00
 Rare condition: small coef for last iteration:  0.000D+00
 Rare condition: small coef for last iteration:  0.000D+00
 Rare condition: small coef for last iteration:  0.000D+00
 Rare condition: small coef for last iteration:  0.000D+00
 Rare condition: small coef for last iteration:  0.000D+00
 >>>>>>>>>> Convergence criterion not met.
 SCF Done:  E(UAM1) =  0.354671809656     A.U. after   33 cycles
            NFock= 32  Conv=0.12D-02     -V/T= 1.0032
 <Sx>= 0.0000 <Sy>= 0.0000 <Sz>= 0.5000 <S**2>= 1.2631 S= 0.7301
 <L.S>=  0.00000000000    
 Annihilation of the first spin contaminant:
 S**2 before annihilation     1.2631,   after     1.0244
 Keep J ints in memory in canonical form, NReq=863988.
 LinEq1:  Iter=  0 NonCon=     1 RMS=1.30D-04 Max=1.52D-03 NDo=     1
 AX will form     1 AO Fock derivatives at one time.
 LinEq1:  Iter=  1 NonCon=     1 RMS=2.10D-05 Max=1.46D-04 NDo=     1
 LinEq1:  Iter=  2 NonCon=     1 RMS=6.35D-06 Max=7.80D-05 NDo=     1
 LinEq1:  Iter=  3 NonCon=     1 RMS=1.63D-06 Max=1.36D-05 NDo=     1
 LinEq1:  Iter=  4 NonCon=     1 RMS=4.44D-07 Max=5.52D-06 NDo=     1
 LinEq1:  Iter=  5 NonCon=     1 RMS=1.32D-07 Max=1.29D-06 NDo=     1
 LinEq1:  Iter=  6 NonCon=     1 RMS=2.70D-08 Max=2.63D-07 NDo=     1
 LinEq1:  Iter=  7 NonCon=     1 RMS=6.21D-09 Max=5.20D-08 NDo=     1
 LinEq1:  Iter=  8 NonCon=     0 RMS=1.56D-09 Max=1.03D-08 NDo=     1
 Linear equations converged to 2.610D-09 2.610D-08 after     8 iterations.
     Minimum is close to point  5 DX=  2.95D-01 DF= -8.93D-05 DXR=  6.28D-02 DFR=  2.02D-02 which will be used.
 LinEq1:  Iter=  0 NonCon=     1 RMS=8.10D-04 Max=7.52D-03 NDo=     1
 LinEq1:  Iter=  1 NonCon=     1 RMS=2.55D-04 Max=2.02D-03 NDo=     1
 LinEq1:  Iter=  2 NonCon=     1 RMS=8.22D-05 Max=6.85D-04 NDo=     1
 LinEq1:  Iter=  3 NonCon=     1 RMS=1.82D-05 Max=2.06D-04 NDo=     1
 LinEq1:  Iter=  4 NonCon=     1 RMS=3.49D-06 Max=5.20D-05 NDo=     1
 LinEq1:  Iter=  5 NonCon=     1 RMS=9.55D-07 Max=1.23D-05 NDo=     1
 LinEq1:  Iter=  6 NonCon=     1 RMS=2.83D-07 Max=3.28D-06 NDo=     1
 LinEq1:  Iter=  7 NonCon=     1 RMS=7.43D-08 Max=6.83D-07 NDo=     1
 LinEq1:  Iter=  8 NonCon=     1 RMS=1.56D-08 Max=1.24D-07 NDo=     1
 LinEq1:  Iter=  9 NonCon=     1 RMS=4.55D-09 Max=4.35D-08 NDo=     1
 LinEq1:  Iter= 10 NonCon=     0 RMS=1.25D-09 Max=1.45D-08 NDo=     1
 Linear equations converged to 2.610D-09 2.610D-08 after    10 iterations.
 Incorrect curvature in search direction -- initial direction reversed.
 Gradient too large for Newton-Raphson -- use scaled steepest descent instead.
     Minimum is close to point  5 DX=  6.27D-02 DF= -4.59D-07 DXR=  2.54D-02 DFR=  6.49D-04 which will be used.
 LinEq1:  Iter=  0 NonCon=     1 RMS=6.92D-04 Max=5.19D-03 NDo=     1
 LinEq1:  Iter=  1 NonCon=     1 RMS=3.18D-04 Max=2.85D-03 NDo=     1
 LinEq1:  Iter=  2 NonCon=     1 RMS=5.52D-05 Max=3.64D-04 NDo=     1
 LinEq1:  Iter=  3 NonCon=     1 RMS=1.26D-05 Max=1.48D-04 NDo=     1
 LinEq1:  Iter=  4 NonCon=     1 RMS=3.55D-06 Max=2.76D-05 NDo=     1
 LinEq1:  Iter=  5 NonCon=     1 RMS=1.00D-06 Max=7.56D-06 NDo=     1
 LinEq1:  Iter=  6 NonCon=     1 RMS=2.62D-07 Max=1.86D-06 NDo=     1
 LinEq1:  Iter=  7 NonCon=     1 RMS=6.36D-08 Max=7.53D-07 NDo=     1
 LinEq1:  Iter=  8 NonCon=     1 RMS=1.65D-08 Max=1.37D-07 NDo=     1
 LinEq1:  Iter=  9 NonCon=     1 RMS=2.70D-09 Max=2.38D-08 NDo=     1
 LinEq1:  Iter= 10 NonCon=     0 RMS=5.02D-10 Max=4.06D-09 NDo=     1
 Linear equations converged to 2.610D-09 2.610D-08 after    10 iterations.
 Incorrect curvature in search direction -- initial direction reversed.
     Minimum is close to point  3 DX= -5.26D-03 DF= -4.86D-06 DXR=  8.32D-02 DFR=  6.97D-03 which will be used.
 Gradient too large for Newton-Raphson -- use scaled steepest descent instead.
 LinEq1:  Iter=  0 NonCon=     1 RMS=7.02D-04 Max=7.17D-03 NDo=     1
 LinEq1:  Iter=  1 NonCon=     1 RMS=3.36D-04 Max=2.24D-03 NDo=     1
 LinEq1:  Iter=  2 NonCon=     1 RMS=3.14D-05 Max=2.11D-04 NDo=     1
 LinEq1:  Iter=  3 NonCon=     1 RMS=1.06D-05 Max=8.44D-05 NDo=     1
 LinEq1:  Iter=  4 NonCon=     1 RMS=2.43D-06 Max=1.70D-05 NDo=     1
 LinEq1:  Iter=  5 NonCon=     1 RMS=6.26D-07 Max=7.06D-06 NDo=     1
 LinEq1:  Iter=  6 NonCon=     1 RMS=1.67D-07 Max=1.48D-06 NDo=     1
 LinEq1:  Iter=  7 NonCon=     1 RMS=3.87D-08 Max=4.69D-07 NDo=     1
 LinEq1:  Iter=  8 NonCon=     1 RMS=8.19D-09 Max=5.34D-08 NDo=     1
 LinEq1:  Iter=  9 NonCon=     0 RMS=1.26D-09 Max=1.20D-08 NDo=     1
 Linear equations converged to 2.610D-09 2.610D-08 after     9 iterations.
 Incorrect curvature in search direction -- initial direction reversed.
 LinEq1:  Iter=  0 NonCon=     1 RMS=7.03D-04 Max=8.51D-03 NDo=     1
 LinEq1:  Iter=  1 NonCon=     1 RMS=3.25D-04 Max=2.40D-03 NDo=     1
 LinEq1:  Iter=  2 NonCon=     1 RMS=3.10D-05 Max=1.78D-04 NDo=     1
 LinEq1:  Iter=  3 NonCon=     1 RMS=6.96D-06 Max=8.49D-05 NDo=     1
 LinEq1:  Iter=  4 NonCon=     1 RMS=2.01D-06 Max=1.82D-05 NDo=     1
 LinEq1:  Iter=  5 NonCon=     1 RMS=4.44D-07 Max=3.78D-06 NDo=     1
 LinEq1:  Iter=  6 NonCon=     1 RMS=1.30D-07 Max=9.39D-07 NDo=     1
 LinEq1:  Iter=  7 NonCon=     1 RMS=3.09D-08 Max=3.04D-07 NDo=     1
 LinEq1:  Iter=  8 NonCon=     1 RMS=7.72D-09 Max=5.46D-08 NDo=     1
 LinEq1:  Iter=  9 NonCon=     0 RMS=1.31D-09 Max=9.85D-09 NDo=     1
 Linear equations converged to 2.610D-09 2.610D-08 after     9 iterations.
 LinEq1:  Iter=  0 NonCon=     1 RMS=2.70D-04 Max=2.25D-03 NDo=     1
 LinEq1:  Iter=  1 NonCon=     1 RMS=6.51D-05 Max=7.69D-04 NDo=     1
 LinEq1:  Iter=  2 NonCon=     1 RMS=1.67D-05 Max=1.50D-04 NDo=     1
 LinEq1:  Iter=  3 NonCon=     1 RMS=2.41D-06 Max=2.55D-05 NDo=     1
 LinEq1:  Iter=  4 NonCon=     1 RMS=5.43D-07 Max=6.12D-06 NDo=     1
 LinEq1:  Iter=  5 NonCon=     1 RMS=1.32D-07 Max=1.11D-06 NDo=     1
 LinEq1:  Iter=  6 NonCon=     1 RMS=3.23D-08 Max=2.64D-07 NDo=     1
 LinEq1:  Iter=  7 NonCon=     1 RMS=6.88D-09 Max=4.72D-08 NDo=     1
 LinEq1:  Iter=  8 NonCon=     0 RMS=1.46D-09 Max=1.19D-08 NDo=     1
 Linear equations converged to 2.610D-09 2.610D-08 after     8 iterations.
     Accept linear search using points  1 and  2.
     Minimum is close to point  2 DX= -1.07D-02 DF= -5.03D-09 DXR=  1.08D-02 DFR=  1.18D-04 which will be used.
 LinEq1:  Iter=  0 NonCon=     1 RMS=3.34D-06 Max=4.41D-05 NDo=     1
 LinEq1:  Iter=  1 NonCon=     1 RMS=7.74D-07 Max=9.50D-06 NDo=     1
 LinEq1:  Iter=  2 NonCon=     1 RMS=1.63D-07 Max=1.22D-06 NDo=     1
 LinEq1:  Iter=  3 NonCon=     1 RMS=2.26D-08 Max=2.36D-07 NDo=     1
 LinEq1:  Iter=  4 NonCon=     1 RMS=5.06D-09 Max=4.95D-08 NDo=     1
 LinEq1:  Iter=  5 NonCon=     1 RMS=1.15D-09 Max=1.45D-08 NDo=     1
 LinEq1:  Iter=  6 NonCon=     0 RMS=2.43D-10 Max=2.83D-09 NDo=     1
 Linear equations converged to 4.237D-10 4.237D-09 after     6 iterations.
 LinEq1:  Iter=  0 NonCon=     1 RMS=3.82D-08 Max=4.55D-07 NDo=     1
 LinEq1:  Iter=  1 NonCon=     1 RMS=1.09D-08 Max=1.12D-07 NDo=     1
 LinEq1:  Iter=  2 NonCon=     1 RMS=2.52D-09 Max=2.80D-08 NDo=     1
 LinEq1:  Iter=  3 NonCon=     1 RMS=6.40D-10 Max=5.40D-09 NDo=     1
 LinEq1:  Iter=  4 NonCon=     1 RMS=1.24D-10 Max=8.85D-10 NDo=     1
 LinEq1:  Iter=  5 NonCon=     1 RMS=3.32D-11 Max=2.67D-10 NDo=     1
 LinEq1:  Iter=  6 NonCon=     1 RMS=8.54D-12 Max=6.39D-11 NDo=     1
 LinEq1:  Iter=  7 NonCon=     0 RMS=1.62D-12 Max=1.87D-11 NDo=     1
 Linear equations converged to 7.386D-12 7.386D-11 after     7 iterations.
 SCF Done:  E(UAM1) =  0.343322348678     a.u. after   11 cycles
            Convg  =    0.1099D-07                    97 Fock formations.
              S**2 =  1.8807                  -V/T =  1.0031
 <Sx>= 0.0000 <Sy>= 0.0000 <Sz>= 0.5000 <S**2>= 1.8807 S= 0.9597
 <L.S>=  0.00000000000    
 Annihilation of the first spin contaminant:
 S**2 before annihilation     1.8807,   after     2.5655

 **********************************************************************

            Population analysis using the SCF Density.

 **********************************************************************

 Orbital symmetries:
 Alpha Orbitals:
       Occupied  (A') (A') (A') (A') (A') (A') (A') (A') (A') (A')
                 (A') (A") (A') (A') (A") (A") (A') (A') (A") (A')
                 (A') (A') (A") (A")
       Virtual   (A") (A') (A") (A') (A') (A') (A') (A") (A') (A')
                 (A') (A') (A') (A')
 Beta  Orbitals:
       Occupied  (A') (A') (A') (A') (A') (A') (A') (A') (A') (A')
                 (A') (A") (A') (A") (A') (A") (A') (A") (A') (A')
                 (A') (A") (A")
       Virtual   (A') (A") (A') (A') (A") (A') (A') (A') (A") (A')
                 (A') (A') (A') (A') (A')
 The electronic state is 2-A'.
 Alpha  occ. eigenvalues --   -1.44825  -1.38409  -1.37640  -1.36209  -1.13506
 Alpha  occ. eigenvalues --   -1.12835  -0.85385  -0.84317  -0.65690  -0.62630
 Alpha  occ. eigenvalues --   -0.58596  -0.56128  -0.55146  -0.48864  -0.48531
 Alpha  occ. eigenvalues --   -0.47266  -0.45951  -0.45768  -0.44744  -0.43734
 Alpha  occ. eigenvalues --   -0.41603  -0.40489  -0.38509  -0.37481
 Alpha virt. eigenvalues --   -0.00879  -0.00758   0.00387   0.00880   0.01751
 Alpha virt. eigenvalues --    0.03706   0.04367   0.07549   0.12890   0.12943
 Alpha virt. eigenvalues --    0.14803   0.15268   0.16419   0.18061
  Beta  occ. eigenvalues --   -1.44374  -1.38460  -1.37528  -1.35880  -1.12686
  Beta  occ. eigenvalues --   -1.11890  -0.84673  -0.82245  -0.65941  -0.62110
  Beta  occ. eigenvalues --   -0.57381  -0.56029  -0.54685  -0.49566  -0.47136
  Beta  occ. eigenvalues --   -0.46552  -0.45546  -0.44774  -0.44524  -0.43651
  Beta  occ. eigenvalues --   -0.41119  -0.37843  -0.37041
  Beta virt. eigenvalues --   -0.03308  -0.00444   0.00205   0.00687   0.01694
  Beta virt. eigenvalues --    0.02125   0.03898   0.04246   0.08395   0.13287
  Beta virt. eigenvalues --    0.13355   0.15366   0.16436   0.17038   0.19049
          Condensed to atoms (all electrons):
               1          2          3          4          5          6
     1  C    4.037855   0.000000   0.000000   0.000000   0.000000   0.000000
     2  C    0.000000   4.118698   0.000000   0.000000   0.000000   0.000000
     3  C    0.000000   0.000000   4.131472   0.000000   0.000000   0.000000
     4  C    0.000000   0.000000   0.000000   4.005243   0.000000   0.000000
     5  C    0.000000   0.000000   0.000000   0.000000   4.040612   0.000000
     6  C    0.000000   0.000000   0.000000   0.000000   0.000000   4.039979
     7  Cl   0.000000   0.000000   0.000000   0.000000   0.000000   0.000000
     8  Cl   0.000000   0.000000   0.000000   0.000000   0.000000   0.000000
     9  Cl   0.000000   0.000000   0.000000   0.000000   0.000000   0.000000
    10  H    0.000000   0.000000   0.000000   0.000000   0.000000   0.000000
    11  H    0.000000   0.000000   0.000000   0.000000   0.000000   0.000000
               7          8          9         10         11
     1  C    0.000000   0.000000   0.000000   0.000000   0.000000
     2  C    0.000000   0.000000   0.000000   0.000000   0.000000
     3  C    0.000000   0.000000   0.000000   0.000000   0.000000
     4  C    0.000000   0.000000   0.000000   0.000000   0.000000
     5  C    0.000000   0.000000   0.000000   0.000000   0.000000
     6  C    0.000000   0.000000   0.000000   0.000000   0.000000
     7  Cl   6.985174   0.000000   0.000000   0.000000   0.000000
     8  Cl   0.000000   7.005335   0.000000   0.000000   0.000000
     9  Cl   0.000000   0.000000   6.993863   0.000000   0.000000
    10  H    0.000000   0.000000   0.000000   0.811705   0.000000
    11  H    0.000000   0.000000   0.000000   0.000000   0.830064
          Atomic-Atomic Spin Densities.
               1          2          3          4          5          6
     1  C   -0.551256   0.000000   0.000000   0.000000   0.000000   0.000000
     2  C    0.000000   0.966859   0.000000   0.000000   0.000000   0.000000
     3  C    0.000000   0.000000  -0.994796   0.000000   0.000000   0.000000
     4  C    0.000000   0.000000   0.000000   1.495674   0.000000   0.000000
     5  C    0.000000   0.000000   0.000000   0.000000  -0.557036   0.000000
     6  C    0.000000   0.000000   0.000000   0.000000   0.000000   0.561112
     7  Cl   0.000000   0.000000   0.000000   0.000000   0.000000   0.000000
     8  Cl   0.000000   0.000000   0.000000   0.000000   0.000000   0.000000
     9  Cl   0.000000   0.000000   0.000000   0.000000   0.000000   0.000000
    10  H    0.000000   0.000000   0.000000   0.000000   0.000000   0.000000
    11  H    0.000000   0.000000   0.000000   0.000000   0.000000   0.000000
               7          8          9         10         11
     1  C    0.000000   0.000000   0.000000   0.000000   0.000000
     2  C    0.000000   0.000000   0.000000   0.000000   0.000000
     3  C    0.000000   0.000000   0.000000   0.000000   0.000000
     4  C    0.000000   0.000000   0.000000   0.000000   0.000000
     5  C    0.000000   0.000000   0.000000   0.000000   0.000000
     6  C    0.000000   0.000000   0.000000   0.000000   0.000000
     7  Cl   0.006631   0.000000   0.000000   0.000000   0.000000
     8  Cl   0.000000   0.008598   0.000000   0.000000   0.000000
     9  Cl   0.000000   0.000000   0.007377   0.000000   0.000000
    10  H    0.000000   0.000000   0.000000  -0.415445   0.000000
    11  H    0.000000   0.000000   0.000000   0.000000   0.472281
 Mulliken charges and spin densities:
               1          2
     1  C   -0.037855  -0.551256
     2  C   -0.118698   0.966859
     3  C   -0.131472  -0.994796
     4  C   -0.005243   1.495674
     5  C   -0.040612  -0.557036
     6  C   -0.039979   0.561112
     7  Cl   0.014826   0.006631
     8  Cl  -0.005335   0.008598
     9  Cl   0.006137   0.007377
    10  H    0.188295  -0.415445
    11  H    0.169936   0.472281
 Sum of Mulliken charges =  -0.00000   1.00000
 Mulliken charges and spin densities with hydrogens summed into heavy atoms:
               1          2
     1  C   -0.037855  -0.551256
     2  C    0.069597   0.551415
     3  C    0.038464  -0.522515
     4  C   -0.005243   1.495674
     5  C   -0.040612  -0.557036
     6  C   -0.039979   0.561112
     7  Cl   0.014826   0.006631
     8  Cl  -0.005335   0.008598
     9  Cl   0.006137   0.007377
 Charge=             -0.0000 electrons
 Dipole moment (field-independent basis, Debye):
    X=              3.1056    Y=             -0.0704    Z=              0.0000  Tot=              3.1064
 N-N= 2.421156939607D+02 E-N=-3.376629838850D+02  KE=-1.117228226546D+02
 Symmetry A'   KE=-8.574453920407D+01
 Symmetry A"   KE=-2.597828345050D+01
 Symmetry A'   SP= 1.000000000000D+00
 Symmetry A"   SP=-6.106226635438D-16
 Calling FoFJK, ICntrl=      2127 FMM=F ISym2X=1 I1Cent= 0 IOpClX= 1 NMat=1 NMatS=1 NMatT=0.
 ***** Axes restored to original set *****
 -------------------------------------------------------------------
 Center     Atomic                   Forces (Hartrees/Bohr)
 Number     Number              X              Y              Z
 -------------------------------------------------------------------
      1        6          -0.018995350    0.032079500    0.000000000
      2        6           0.019034967    0.062073598    0.000000000
      3        6           0.054113137    0.021518351    0.000000000
      4        6          -0.043914032    0.051096328   -0.000000000
      5        6           0.027547225   -0.041181380    0.000000000
      6        6          -0.030048318   -0.017887808    0.000000000
      7       17           0.034413133    0.020649569   -0.000000000
      8       17           0.036260382   -0.016713745    0.000000000
      9       17           0.001058169    0.040277432    0.000000000
     10        1           0.002259328   -0.101024918   -0.000000000
     11        1          -0.081728641   -0.050886927   -0.000000000
 -------------------------------------------------------------------
 Cartesian Forces:  Max     0.101024918 RMS     0.035471701

 GradGradGradGradGradGradGradGradGradGradGradGradGradGradGradGradGradGrad
 Berny optimization.
 FormGI is forming the generalized inverse of G from B-inverse, IUseBI=4.
 Internal  Forces:  Max     0.101048863 RMS     0.025953331
 Search for a local minimum.
 Step number   1 out of a maximum of   57
 All quantities printed in internal units (Hartrees-Bohrs-Radians)
 Mixed Optimization -- RFO/linear search
 Second derivative matrix not updated -- first step.
 ITU=  0
     Eigenvalues ---    0.02011   0.02011   0.02011   0.02011   0.02011
     Eigenvalues ---    0.02011   0.02011   0.02011   0.06524   0.06524
     Eigenvalues ---    0.16000   0.16000   0.22422   0.24427   0.25000
     Eigenvalues ---    0.25000   0.25000   0.25000   0.29033   0.29033
     Eigenvalues ---    0.29034   0.40957   0.41540   0.44656   0.44657
     Eigenvalues ---    0.44657   0.44657
 RFO step:  Lambda=-1.26735333D-01 EMin= 2.01067519D-02
 Linear search not attempted -- first point.
 Maximum step size (   0.300) exceeded in Quadratic search.
    -- Step size scaled by   0.393
 Iteration  1 RMS(Cart)=  0.04677226 RMS(Int)=  0.00101750
 Iteration  2 RMS(Cart)=  0.00098333 RMS(Int)=  0.00002088
 Iteration  3 RMS(Cart)=  0.00000003 RMS(Int)=  0.00002088
 ClnCor:  largest displacement from symmetrization is 6.68D-09 for atom     8.
 Variable       Old X    -DE/DX   Delta X   Delta X   Delta X     New X
                                 (Linear)    (Quad)   (Total)
    R1        2.65676  -0.02164   0.00000  -0.01474  -0.01476   2.64200
    R2        2.65677   0.00056   0.00000   0.00143   0.00140   2.65817
    R3        3.33635  -0.03984   0.00000  -0.03756  -0.03756   3.29879
    R4        2.65677  -0.04458   0.00000  -0.03152  -0.03152   2.62525
    R5        3.33634  -0.10105   0.00000  -0.20694  -0.20694   3.12940
    R6        2.65677  -0.05379   0.00000  -0.03794  -0.03791   2.61886
    R7        3.33633  -0.09627   0.00000  -0.19716  -0.19716   3.13917
    R8        2.65678  -0.03018   0.00000  -0.02080  -0.02077   2.63601
    R9        2.65675  -0.00308   0.00000  -0.00116  -0.00117   2.65558
   R10        3.33632  -0.04023   0.00000  -0.03793  -0.03793   3.29840
   R11        3.33633  -0.04013   0.00000  -0.03783  -0.03783   3.29850
    A1        2.09439  -0.00415   0.00000  -0.00240  -0.00246   2.09193
    A2        2.09439  -0.00220   0.00000  -0.00326  -0.00323   2.09116
    A3        2.09440   0.00635   0.00000   0.00566   0.00569   2.10009
    A4        2.09439   0.00530   0.00000   0.00473   0.00470   2.09909
    A5        2.09440  -0.00351   0.00000  -0.00354  -0.00353   2.09087
    A6        2.09439  -0.00179   0.00000  -0.00118  -0.00117   2.09322
    A7        2.09440  -0.00058   0.00000  -0.00390  -0.00387   2.09052
    A8        2.09440   0.00123   0.00000   0.00324   0.00322   2.09762
    A9        2.09439  -0.00065   0.00000   0.00067   0.00065   2.09505
   A10        2.09439   0.02270   0.00000   0.02118   0.02126   2.11565
   A11        2.09439  -0.01504   0.00000  -0.01426  -0.01424   2.08016
   A12        2.09439   0.00391   0.00000   0.00336   0.00335   2.09774
   A13        2.09440   0.01113   0.00000   0.01090   0.01089   2.10529
   A14        2.09440  -0.00823   0.00000  -0.00535  -0.00539   2.08901
   A15        2.09439   0.00483   0.00000   0.00342   0.00343   2.09783
   A16        2.09439   0.00341   0.00000   0.00193   0.00195   2.09634
    D1        0.00000  -0.00000   0.00000  -0.00000   0.00000   0.00000
    D2        3.14159  -0.00000   0.00000  -0.00000   0.00000   3.14159
    D3        3.14159   0.00000   0.00000  -0.00000   0.00000   3.14159
    D4        0.00000  -0.00000   0.00000  -0.00000   0.00000   0.00000
    D5        0.00000   0.00000   0.00000   0.00000   0.00000   0.00000
    D6        3.14159   0.00000   0.00000   0.00000   0.00000   3.14159
    D7        3.14159   0.00000   0.00000   0.00000   0.00000   3.14159
    D8        0.00000   0.00000   0.00000   0.00000   0.00000   0.00000
    D9        0.00000   0.00000   0.00000   0.00000   0.00000   0.00000
   D10        3.14159  -0.00000   0.00000  -0.00000   0.00000   3.14159
   D11        3.14159   0.00000   0.00000   0.00000   0.00000   3.14159
   D12        0.00000  -0.00000   0.00000   0.00000   0.00000   0.00000
   D13        0.00000  -0.00000   0.00000  -0.00000   0.00000   0.00000
   D14        3.14159   0.00000   0.00000   0.00000   0.00000   3.14159
   D15        0.00000   0.00000   0.00000  -0.00000   0.00000   0.00000
   D16        3.14159  -0.00000   0.00000  -0.00000   0.00000   3.14159
   D17        0.00000  -0.00000   0.00000  -0.00000   0.00000   0.00000
   D18        3.14159  -0.00000   0.00000  -0.00000   0.00000   3.14159
   D19        3.14159   0.00000   0.00000   0.00000   0.00000   3.14159
   D20        0.00000  -0.00000   0.00000  -0.00000   0.00000   0.00000
         Item               Value     Threshold  Converged?
 Maximum Force            0.101049     0.000450     NO 
 RMS     Force            0.025953     0.000300     NO 
 Maximum Displacement     0.201824     0.001800     NO 
 RMS     Displacement     0.047427     0.001200     NO 
 Predicted change in Energy=-4.573454D-02
 GradGradGradGradGradGradGradGradGradGradGradGradGradGradGradGradGradGrad

                          Input orientation:                          
 ---------------------------------------------------------------------
 Center     Atomic      Atomic             Coordinates (Angstroms)
 Number     Number       Type             X           Y           Z
 ---------------------------------------------------------------------
      1          6           0       -3.200900    0.212081    0.000000
      2          6           0       -2.006132    0.938151    0.000000
      3          6           0       -0.784606    0.276477    0.000000
      4          6           0       -0.752325   -1.108985    0.000000
      5          6           0       -1.928095   -1.859553    0.000000
      6          6           0       -3.165834   -1.194125    0.000000
      7         17           0       -4.652116   -2.109391    0.000000
      8         17           0       -4.729182    1.055661    0.000000
      9         17           0       -1.856190   -3.603509    0.000000
     10          1           0       -2.049176    2.593599    0.000000
     11          1           0        0.633716    1.141274    0.000000
 ---------------------------------------------------------------------
                    Distance matrix (angstroms):
                    1          2          3          4          5
     1  C    0.000000
     2  C    1.398086   0.000000
     3  C    2.417151   1.389222   0.000000
     4  C    2.782218   2.400584   1.385839   0.000000
     5  C    2.431399   2.798793   2.422848   1.394915   0.000000
     6  C    1.406644   2.427243   2.798735   2.415011   1.405274
     7  Cl   2.737748   4.035932   4.544228   4.026064   2.735455
     8  Cl   1.745644   2.725584   4.020797   4.527813   4.042841
     9  Cl   4.045611   4.544134   4.025243   2.727850   1.745437
    10  H    2.645391   1.656008   2.639734   3.923131   4.454798
    11  H    3.945590   2.647652   1.661178   2.642873   3.945611
                    6          7          8          9         10
     6  C    0.000000
     7  Cl   1.745493   0.000000
     8  Cl   2.739634   3.165990   0.000000
     9  Cl   2.742316   3.170109   5.473750   0.000000
    10  H    3.948896   5.375260   3.089933   6.200112   0.000000
    11  H    4.459896   6.205389   5.363582   5.358414   3.050764
                   11
    11  H    0.000000
 Stoichiometry    C6H2Cl3(2)
 Framework group  CS[SG(C6H2Cl3)]
 Deg. of freedom    19
 Full point group                 CS      NOp   2
 Largest Abelian subgroup         CS      NOp   2
 Largest concise Abelian subgroup C1      NOp   1
                         Standard orientation:                         
 ---------------------------------------------------------------------
 Center     Atomic      Atomic             Coordinates (Angstroms)
 Number     Number       Type             X           Y           Z
 ---------------------------------------------------------------------
      1          6           0        1.125653   -0.581914    0.000000
      2          6           0        0.955560   -1.969615    0.000000
      3          6           0       -0.320546   -2.518697    0.000000
      4          6           0       -1.428190   -1.685827    0.000000
      5          6           0       -1.289097   -0.297864    0.000000
      6          6           0       -0.000000    0.261621    0.000000
      7         17           0        0.202142    1.995370    0.000000
      8         17           0        2.734581    0.095305    0.000000
      9         17           0       -2.702717    0.725967    0.000000
     10          1           0        2.281821   -2.961278    0.000000
     11          1           0       -0.520211   -4.167833    0.000000
 ---------------------------------------------------------------------
 Rotational constants (GHZ):           1.4816923           0.8407380           0.5363842
 Standard basis: VSTO-6G (5D, 7F)
 There are    29 symmetry adapted cartesian basis functions of A'  symmetry.
 There are     9 symmetry adapted cartesian basis functions of A"  symmetry.
 There are    29 symmetry adapted basis functions of A'  symmetry.
 There are     9 symmetry adapted basis functions of A"  symmetry.
    38 basis functions,   228 primitive gaussians,    38 cartesian basis functions
    24 alpha electrons       23 beta electrons
       nuclear repulsion energy       243.4222184206 Hartrees.
 Integral buffers will be    131072 words long.
 Regular integral format.
 Two-electron integral symmetry is turned off.
 Do NDO integrals.
 One-electron integrals computed using PRISM.
 NBasis=    38 RedAO= T EigKep=  1.00D+00  NBF=    29     9
 NBsUse=    38 1.00D-06 EigRej= -1.00D+00 NBFU=    29     9
 Initial guess from the checkpoint file:  "geometry_chks/12_4ClBzNeutralRadical.chk"
 B after Tr=    -0.000000    0.000000   -0.000000
         Rot=    0.835683   -0.000000   -0.000000    0.549213 Ang=  66.63 deg.
 Initial guess orbital symmetries:
 Alpha Orbitals:
       Occupied  (A') (A') (A') (A') (A') (A') (A') (A') (A') (A')
                 (A') (A") (A') (A') (A") (A") (A') (A') (A") (A')
                 (A') (A') (A") (A")
       Virtual   (A") (A') (A") (A') (A') (A') (A') (A") (A') (A')
                 (A') (A') (A') (A')
 Beta  Orbitals:
       Occupied  (A') (A') (A') (A') (A') (A') (A') (A') (A') (A')
                 (A') (A") (A') (A") (A') (A") (A') (A") (A') (A')
                 (A') (A") (A")
       Virtual   (A') (A") (A') (A') (A") (A') (A') (A') (A") (A')
                 (A') (A') (A') (A') (A')
 Initial guess <Sx>= 0.0000 <Sy>= 0.0000 <Sz>= 0.5000 <S**2>= 1.8807 S= 0.9597
 Keep J ints in memory in canonical form, NReq=863588.
 Overlap will be assumed to be unity.
 Requested convergence on RMS density matrix=1.00D-08 within  32 cycles.
 Requested convergence on MAX density matrix=1.00D-06.
 Requested convergence on             energy=1.00D-06.
 No special actions if energy rises.
 Fock symm off for IB=2 I1=    1 I=   30 J=   14 Cut=1.00D-07 Err=3.27D-03
 Fock matrix is not symmetric: symmetry in diagonalization turned off.
 SCF Done:  E(UAM1) =  0.290413516320     A.U. after   20 cycles
            NFock= 19  Conv=0.66D-08     -V/T= 1.0026
 <Sx>= 0.0000 <Sy>= 0.0000 <Sz>= 0.5000 <S**2>= 1.3926 S= 0.7816
 <L.S>=  0.00000000000    
 Annihilation of the first spin contaminant:
 S**2 before annihilation     1.3926,   after     1.1852
 QCSCF skips out because SCF is already converged.
 Calling FoFJK, ICntrl=      2127 FMM=F ISym2X=1 I1Cent= 0 IOpClX= 1 NMat=1 NMatS=1 NMatT=0.
 ***** Axes restored to original set *****
 -------------------------------------------------------------------
 Center     Atomic                   Forces (Hartrees/Bohr)
 Number     Number              X              Y              Z
 -------------------------------------------------------------------
      1        6          -0.019344662    0.023140613    0.000000000
      2        6           0.008477562    0.099332940    0.000000000
      3        6           0.092435968    0.045599815    0.000000000
      4        6          -0.031592945    0.032349868    0.000000000
      5        6           0.020535629   -0.038428635   -0.000000000
      6        6          -0.027003195   -0.014609306    0.000000000
      7       17           0.026308221    0.015782419   -0.000000000
      8       17           0.027031551   -0.012872454   -0.000000000
      9       17           0.000181791    0.030954293    0.000000000
     10        1           0.002348944   -0.119848846   -0.000000000
     11        1          -0.099378865   -0.061400706   -0.000000000
 -------------------------------------------------------------------
 Cartesian Forces:  Max     0.119848846 RMS     0.041622162

 GradGradGradGradGradGradGradGradGradGradGradGradGradGradGradGradGradGrad
 Berny optimization.
 Using GEDIIS/GDIIS optimizer.
 FormGI is forming the generalized inverse of G from B-inverse, IUseBI=4.
 Internal  Forces:  Max     0.119869409 RMS     0.026621915
 Search for a local minimum.
 Step number   2 out of a maximum of   57
 All quantities printed in internal units (Hartrees-Bohrs-Radians)
 Mixed Optimization -- RFO/linear search
 Update second derivatives using D2CorX and points    1    2
 DE= -5.29D-02 DEPred=-4.57D-02 R= 1.16D+00
 TightC=F SS=  1.41D+00  RLast= 3.00D-01 DXNew= 5.0454D-01 9.0000D-01
 Trust test= 1.16D+00 RLast= 3.00D-01 DXMaxT set to 5.05D-01
 ITU=  1  0
 Use linear search instead of GDIIS.
     Eigenvalues ---   -0.31066   0.02011   0.02011   0.02011   0.02011
     Eigenvalues ---    0.02011   0.02011   0.02011   0.02011   0.04458
     Eigenvalues ---    0.06658   0.15998   0.16000   0.22404   0.24341
     Eigenvalues ---    0.24994   0.25000   0.25000   0.25117   0.29031
     Eigenvalues ---    0.29034   0.32819   0.41241   0.42304   0.44647
     Eigenvalues ---    0.44656   0.44657
 RFO step:  Lambda=-3.36085813D-01 EMin=-3.10662544D-01
 Skip linear search -- no minimum in search direction.
 Maximum step size (   0.505) exceeded in Quadratic search.
    -- Step size scaled by   0.464
 Iteration  1 RMS(Cart)=  0.03582476 RMS(Int)=  0.02800416
 Iteration  2 RMS(Cart)=  0.02608026 RMS(Int)=  0.00011936
 Iteration  3 RMS(Cart)=  0.00002546 RMS(Int)=  0.00011861
 Iteration  4 RMS(Cart)=  0.00000000 RMS(Int)=  0.00011861
 ClnCor:  largest displacement from symmetrization is 1.13D-08 for atom     8.
 Variable       Old X    -DE/DX   Delta X   Delta X   Delta X     New X
                                 (Linear)    (Quad)   (Total)
    R1        2.64200  -0.00877   0.00000   0.05751   0.05754   2.69954
    R2        2.65817   0.00398   0.00000   0.01905   0.01890   2.67707
    R3        3.29879  -0.02989   0.00000   0.03158   0.03158   3.33037
    R4        2.62525  -0.02199   0.00000   0.09648   0.09666   2.72191
    R5        3.12940  -0.11987   0.00000  -0.32965  -0.32965   2.79975
    R6        2.61886  -0.03029   0.00000   0.09394   0.09409   2.71295
    R7        3.13917  -0.11681   0.00000  -0.34101  -0.34101   2.79816
    R8        2.63601  -0.01668   0.00000   0.05346   0.05344   2.68944
    R9        2.65558   0.00199   0.00000   0.02520   0.02502   2.68060
   R10        3.29840  -0.03092   0.00000   0.02664   0.02664   3.32504
   R11        3.29850  -0.03068   0.00000   0.02774   0.02774   3.32624
    A1        2.09193  -0.00143   0.00000   0.01533   0.01519   2.10713
    A2        2.09116  -0.00224   0.00000  -0.00220  -0.00213   2.08903
    A3        2.10009   0.00367   0.00000  -0.01313  -0.01306   2.08703
    A4        2.09909   0.00325   0.00000  -0.00737  -0.00717   2.09193
    A5        2.09087  -0.00283   0.00000  -0.00027  -0.00037   2.09050
    A6        2.09322  -0.00043   0.00000   0.00764   0.00754   2.10076
    A7        2.09052  -0.00436   0.00000  -0.02626  -0.02592   2.06460
    A8        2.09762   0.00326   0.00000   0.01547   0.01531   2.11292
    A9        2.09505   0.00110   0.00000   0.01079   0.01062   2.10566
   A10        2.11565   0.01980   0.00000   0.00319   0.00336   2.11901
   A11        2.08016  -0.01189   0.00000   0.00556   0.00534   2.08549
   A12        2.09774   0.00354   0.00000   0.00255   0.00266   2.10040
   A13        2.10529   0.00835   0.00000  -0.00811  -0.00800   2.09729
   A14        2.08901  -0.00536   0.00000   0.00955   0.00920   2.09821
   A15        2.09783   0.00327   0.00000  -0.00496  -0.00479   2.09304
   A16        2.09634   0.00209   0.00000  -0.00459  -0.00441   2.09193
    D1        0.00000  -0.00000   0.00000  -0.00000   0.00000   0.00000
    D2        3.14159  -0.00000   0.00000  -0.00000   0.00000   3.14159
    D3        3.14159   0.00000   0.00000   0.00000   0.00000   3.14159
    D4        0.00000  -0.00000   0.00000  -0.00000   0.00000   0.00000
    D5        0.00000   0.00000   0.00000   0.00000   0.00000   0.00000
    D6        3.14159   0.00000   0.00000   0.00000   0.00000   3.14159
    D7        3.14159  -0.00000   0.00000  -0.00000   0.00000   3.14159
    D8        0.00000   0.00000   0.00000  -0.00000   0.00000   0.00000
    D9        0.00000  -0.00000   0.00000  -0.00000   0.00000   0.00000
   D10        3.14159  -0.00000   0.00000  -0.00000   0.00000   3.14159
   D11        3.14159   0.00000   0.00000   0.00000   0.00000   3.14159
   D12        0.00000  -0.00000   0.00000  -0.00000   0.00000   0.00000
   D13        0.00000   0.00000   0.00000   0.00000   0.00000   0.00000
   D14        3.14159   0.00000   0.00000   0.00000   0.00000   3.14159
   D15        0.00000  -0.00000   0.00000  -0.00000   0.00000   0.00000
   D16        3.14159  -0.00000   0.00000  -0.00000   0.00000   3.14159
   D17        0.00000  -0.00000   0.00000  -0.00000   0.00000   0.00000
   D18        3.14159  -0.00000   0.00000  -0.00000   0.00000   3.14159
   D19        3.14159   0.00000   0.00000   0.00000   0.00000   3.14159
   D20        0.00000  -0.00000   0.00000  -0.00000   0.00000   0.00000
         Item               Value     Threshold  Converged?
 Maximum Force            0.119869     0.000450     NO 
 RMS     Force            0.026622     0.000300     NO 
 Maximum Displacement     0.213211     0.001800     NO 
 RMS     Displacement     0.053600     0.001200     NO 
 Predicted change in Energy=-1.029950D-01
 GradGradGradGradGradGradGradGradGradGradGradGradGradGradGradGradGradGrad

                          Input orientation:                          
 ---------------------------------------------------------------------
 Center     Atomic      Atomic             Coordinates (Angstroms)
 Number     Number       Type             X           Y           Z
 ---------------------------------------------------------------------
      1          6           0       -3.200177    0.236580    0.000000
      2          6           0       -1.993177    1.000689    0.000000
      3          6           0       -0.719109    0.328808    0.000000
      4          6           0       -0.706886   -1.106769    0.000000
      5          6           0       -1.915159   -1.858799    0.000000
      6          6           0       -3.160451   -1.179509    0.000000
      7         17           0       -4.660773   -2.099963    0.000000
      8         17           0       -4.756663    1.063166    0.000000
      9         17           0       -1.867439   -3.617686    0.000000
     10          1           0       -2.059342    2.480773    0.000000
     11          1           0        0.548336    1.094391    0.000000
 ---------------------------------------------------------------------
                    Distance matrix (angstroms):
                    1          2          3          4          5
     1  C    0.000000
     2  C    1.428535   0.000000
     3  C    2.482781   1.440373   0.000000
     4  C    2.832153   2.468993   1.435629   0.000000
     5  C    2.458024   2.860552   2.493223   1.423191   0.000000
     6  C    1.416646   2.473013   2.869698   2.454643   1.418515
     7  Cl   2.755499   4.090246   4.629864   4.076721   2.756184
     8  Cl   1.762354   2.764192   4.103793   4.594487   4.075785
     9  Cl   4.078181   4.620087   4.110167   2.766150   1.759534
    10  H    2.517520   1.481562   2.535188   3.834006   4.341967
    11  H    3.845411   2.543240   1.480721   2.533908   3.845795
                    6          7          8          9         10
     6  C    0.000000
     7  Cl   1.760171   0.000000
     8  Cl   2.752723   3.164582   0.000000
     9  Cl   2.759816   3.179025   5.500726   0.000000
    10  H    3.822317   5.267882   3.047154   6.101478   0.000000
    11  H    4.350370   6.110541   5.305090   5.295247   2.953310
                   11
    11  H    0.000000
 Stoichiometry    C6H2Cl3(2)
 Framework group  CS[SG(C6H2Cl3)]
 Deg. of freedom    19
 Full point group                 CS      NOp   2
 Largest Abelian subgroup         CS      NOp   2
 Largest concise Abelian subgroup C1      NOp   1
                         Standard orientation:                         
 ---------------------------------------------------------------------
 Center     Atomic      Atomic             Coordinates (Angstroms)
 Number     Number       Type             X           Y           Z
 ---------------------------------------------------------------------
      1          6           0        1.138048   -0.589916    0.000000
      2          6           0        0.993184   -2.011087    0.000000
      3          6           0       -0.322270   -2.597819    0.000000
      4          6           0       -1.458651   -1.720510    0.000000
      5          6           0       -1.303501   -0.305801    0.000000
      6          6           0        0.000000    0.253726    0.000000
      7         17           0        0.203146    2.002135    0.000000
      8         17           0        2.749632    0.123309    0.000000
      9         17           0       -2.716038    0.743341    0.000000
     10          1           0        2.197887   -2.873476    0.000000
     11          1           0       -0.503319   -4.067430    0.000000
 ---------------------------------------------------------------------
 Rotational constants (GHZ):           1.4417296           0.8305084           0.5269556
 Standard basis: VSTO-6G (5D, 7F)
 There are    29 symmetry adapted cartesian basis functions of A'  symmetry.
 There are     9 symmetry adapted cartesian basis functions of A"  symmetry.
 There are    29 symmetry adapted basis functions of A'  symmetry.
 There are     9 symmetry adapted basis functions of A"  symmetry.
    38 basis functions,   228 primitive gaussians,    38 cartesian basis functions
    24 alpha electrons       23 beta electrons
       nuclear repulsion energy       242.0562333596 Hartrees.
 Integral buffers will be    131072 words long.
 Regular integral format.
 Two-electron integral symmetry is turned off.
 Do NDO integrals.
 One-electron integrals computed using PRISM.
 NBasis=    38 RedAO= T EigKep=  1.00D+00  NBF=    29     9
 NBsUse=    38 1.00D-06 EigRej= -1.00D+00 NBFU=    29     9
 Initial guess from the checkpoint file:  "geometry_chks/12_4ClBzNeutralRadical.chk"
 B after Tr=     0.000000   -0.000000    0.000000
         Rot=    1.000000   -0.000000   -0.000000   -0.000987 Ang=  -0.11 deg.
 Initial guess orbital symmetries:
 Alpha Orbitals:
       Occupied  (A') (A') (A') (A') (A') (A') (A') (A') (A') (A')
                 (A') (A") (A') (A') (A") (A") (A') (A') (A") (A')
                 (A') (A') (A") (A")
       Virtual   (A") (A") (A') (A') (A') (A') (A') (A") (A') (A')
                 (A') (A') (A') (A')
 Beta  Orbitals:
       Occupied  (A') (A') (A') (A') (A') (A') (A') (A') (A') (A')
                 (A') (A") (A') (A") (A') (A") (A') (A") (A') (A')
                 (A') (A") (A")
       Virtual   (A') (A") (A') (A") (A') (A') (A') (A') (A") (A')
                 (A') (A') (A') (A') (A')
 Initial guess <Sx>= 0.0000 <Sy>= 0.0000 <Sz>= 0.5000 <S**2>= 1.3926 S= 0.7816
 Keep J ints in memory in canonical form, NReq=863588.
 Overlap will be assumed to be unity.
 Requested convergence on RMS density matrix=1.00D-08 within  32 cycles.
 Requested convergence on MAX density matrix=1.00D-06.
 Requested convergence on             energy=1.00D-06.
 No special actions if energy rises.
 Fock symm off for IB=2 I1=    1 I=   30 J=    5 Cut=1.00D-07 Err=4.61D-03
 Fock matrix is not symmetric: symmetry in diagonalization turned off.
 SCF Done:  E(UAM1) =  0.226049297945     A.U. after   19 cycles
            NFock= 18  Conv=0.51D-08     -V/T= 1.0020
 <Sx>= 0.0000 <Sy>= 0.0000 <Sz>= 0.5000 <S**2>= 1.4743 S= 0.8131
 <L.S>=  0.00000000000    
 Annihilation of the first spin contaminant:
 S**2 before annihilation     1.4743,   after     1.2520
 QCSCF skips out because SCF is already converged.
 Calling FoFJK, ICntrl=      2127 FMM=F ISym2X=1 I1Cent= 0 IOpClX= 1 NMat=1 NMatS=1 NMatT=0.
 ***** Axes restored to original set *****
 -------------------------------------------------------------------
 Center     Atomic                   Forces (Hartrees/Bohr)
 Number     Number              X              Y              Z
 -------------------------------------------------------------------
      1        6           0.003393415    0.023765311    0.000000000
      2        6           0.018230319    0.058378626    0.000000000
      3        6           0.050987918    0.020399530    0.000000000
      4        6          -0.061100672    0.060332923    0.000000000
      5        6           0.029668204   -0.016489051    0.000000000
      6        6          -0.014867727   -0.009521122   -0.000000000
      7       17           0.033264104    0.019705938   -0.000000000
      8       17           0.036236081   -0.015877909   -0.000000000
      9       17           0.001254854    0.040313243   -0.000000000
     10        1           0.005320669   -0.118886857   -0.000000000
     11        1          -0.102387165   -0.062120633   -0.000000000
 -------------------------------------------------------------------
 Cartesian Forces:  Max     0.118886857 RMS     0.038675411

 GradGradGradGradGradGradGradGradGradGradGradGradGradGradGradGradGradGrad
 Berny optimization.
 Using GEDIIS/GDIIS optimizer.
 FormGI is forming the generalized inverse of G from B-inverse, IUseBI=4.
 Internal  Forces:  Max     0.119758295 RMS     0.032776058
 Search for a local minimum.
 Step number   3 out of a maximum of   57
 All quantities printed in internal units (Hartrees-Bohrs-Radians)
 Mixed Optimization -- RFO/linear search
 Update second derivatives using D2CorX and points    2    3
 DE= -6.44D-02 DEPred=-1.03D-01 R= 6.25D-01
 TightC=F SS=  1.41D+00  RLast= 5.05D-01 DXNew= 8.4853D-01 1.5136D+00
 Trust test= 6.25D-01 RLast= 5.05D-01 DXMaxT set to 8.49D-01
 ITU=  1  1  0
 Use linear search instead of GDIIS.
     Eigenvalues ---    0.00658   0.02011   0.02011   0.02011   0.02011
     Eigenvalues ---    0.02011   0.02011   0.02011   0.02011   0.06472
     Eigenvalues ---    0.15986   0.16000   0.21198   0.22799   0.24447
     Eigenvalues ---    0.25000   0.25000   0.25025   0.25623   0.29032
     Eigenvalues ---    0.29037   0.38526   0.41363   0.44638   0.44648
     Eigenvalues ---    0.44657   0.78099
 RFO step:  Lambda=-1.77796353D-01 EMin= 6.57828967D-03
 Quartic linear search produced a step of  1.54275.
 Iteration  1 RMS(Cart)=  0.05861677 RMS(Int)=  0.14195099
 Iteration  2 RMS(Cart)=  0.03873175 RMS(Int)=  0.10069449
 Iteration  3 RMS(Cart)=  0.03839162 RMS(Int)=  0.05944370
 Iteration  4 RMS(Cart)=  0.03839548 RMS(Int)=  0.01821952
 Iteration  5 RMS(Cart)=  0.01695494 RMS(Int)=  0.00031782
 Iteration  6 RMS(Cart)=  0.00000498 RMS(Int)=  0.00031778
 Iteration  7 RMS(Cart)=  0.00000000 RMS(Int)=  0.00031778
 ClnCor:  largest displacement from symmetrization is 1.01D-08 for atom     4.
 Variable       Old X    -DE/DX   Delta X   Delta X   Delta X     New X
                                 (Linear)    (Quad)   (Total)
    R1        2.69954  -0.04458   0.08877  -0.09322  -0.00477   2.69477
    R2        2.67707  -0.01823   0.02916  -0.00717   0.02150   2.69857
    R3        3.33037  -0.03945   0.04872  -0.16984  -0.12112   3.20924
    R4        2.72191  -0.06901   0.14912  -0.18081  -0.03151   2.69040
    R5        2.79975  -0.11901  -0.50857  -0.38557  -0.89414   1.90561
    R6        2.71295  -0.07627   0.14516  -0.20830  -0.06264   2.65030
    R7        2.79816  -0.11976  -0.52610  -0.35505  -0.88115   1.91700
    R8        2.68944  -0.05309   0.08244  -0.11931  -0.03654   2.65290
    R9        2.68060  -0.02289   0.03860  -0.02086   0.01756   2.69817
   R10        3.32504  -0.04026   0.04110  -0.16983  -0.12873   3.19631
   R11        3.32624  -0.03866   0.04279  -0.16893  -0.12614   3.20010
    A1        2.10713  -0.00306   0.02344  -0.01609   0.00646   2.11359
    A2        2.08903  -0.00342  -0.00329  -0.01283  -0.01568   2.07335
    A3        2.08703   0.00648  -0.02015   0.02892   0.00922   2.09625
    A4        2.09193   0.00489  -0.01106   0.02092   0.00968   2.10160
    A5        2.09050  -0.00244  -0.00057  -0.01205  -0.01252   2.07798
    A6        2.10076  -0.00245   0.01163  -0.00888   0.00284   2.10360
    A7        2.06460   0.00043  -0.03999  -0.00361  -0.04295   2.02165
    A8        2.11292   0.00012   0.02361   0.00482   0.02811   2.14103
    A9        2.10566  -0.00054   0.01638  -0.00121   0.01484   2.12051
   A10        2.11901   0.02211   0.00518   0.08570   0.09199   2.21100
   A11        2.08549  -0.01361   0.00823  -0.05924  -0.05092   2.03457
   A12        2.10040   0.00290   0.00410   0.01188   0.01594   2.11634
   A13        2.09729   0.01071  -0.01234   0.04736   0.03498   2.13227
   A14        2.09821  -0.01076   0.01420  -0.02768  -0.01425   2.08396
   A15        2.09304   0.00637  -0.00739   0.01713   0.01013   2.10317
   A16        2.09193   0.00438  -0.00681   0.01055   0.00412   2.09605
    D1        0.00000  -0.00000   0.00000   0.00000   0.00000   0.00000
    D2        3.14159  -0.00000   0.00000  -0.00000   0.00000   3.14159
    D3        3.14159   0.00000   0.00000   0.00000   0.00000   3.14159
    D4        0.00000   0.00000   0.00000  -0.00000   0.00000   0.00000
    D5        0.00000   0.00000   0.00000   0.00000   0.00000   0.00000
    D6        3.14159   0.00000   0.00000   0.00000   0.00000   3.14159
    D7        3.14159  -0.00000   0.00000  -0.00000   0.00000   3.14159
    D8        0.00000  -0.00000   0.00000   0.00000   0.00000   0.00000
    D9        0.00000  -0.00000   0.00000  -0.00000   0.00000   0.00000
   D10        3.14159  -0.00000   0.00000  -0.00000   0.00000   3.14159
   D11        3.14159   0.00000   0.00000   0.00000   0.00000   3.14159
   D12        0.00000  -0.00000   0.00000  -0.00000   0.00000   0.00000
   D13        0.00000   0.00000   0.00000  -0.00000   0.00000   0.00000
   D14        3.14159   0.00000   0.00000   0.00000   0.00000   3.14159
   D15        0.00000  -0.00000   0.00000   0.00000   0.00000   0.00000
   D16        3.14159  -0.00000   0.00000  -0.00000   0.00000   3.14159
   D17        0.00000  -0.00000   0.00000  -0.00000   0.00000   0.00000
   D18        3.14159  -0.00000   0.00000  -0.00000   0.00000   3.14159
   D19        3.14159   0.00000   0.00000   0.00000   0.00000   3.14159
   D20        0.00000   0.00000   0.00000  -0.00000   0.00000   0.00000
         Item               Value     Threshold  Converged?
 Maximum Force            0.119758     0.000450     NO 
 RMS     Force            0.032776     0.000300     NO 
 Maximum Displacement     0.797367     0.001800     NO 
 RMS     Displacement     0.180465     0.001200     NO 
 Predicted change in Energy=-2.251487D-01
 GradGradGradGradGradGradGradGradGradGradGradGradGradGradGradGradGradGrad

                          Input orientation:                          
 ---------------------------------------------------------------------
 Center     Atomic      Atomic             Coordinates (Angstroms)
 Number     Number       Type             X           Y           Z
 ---------------------------------------------------------------------
      1          6           0       -3.174013    0.291838    0.000000
      2          6           0       -1.967471    1.051946    0.000000
      3          6           0       -0.703219    0.397279    0.000000
      4          6           0       -0.741025   -1.004692    0.000000
      5          6           0       -1.889080   -1.812640    0.000000
      6          6           0       -3.146331   -1.135917    0.000000
      7         17           0       -4.588456   -2.023580    0.000000
      8         17           0       -4.659411    1.115048    0.000000
      9         17           0       -1.774668   -3.500179    0.000000
     10          1           0       -2.022903    2.058825    0.000000
     11          1           0        0.175736    0.903753    0.000000
 ---------------------------------------------------------------------
                    Distance matrix (angstroms):
                    1          2          3          4          5
     1  C    0.000000
     2  C    1.426012   0.000000
     3  C    2.473043   1.423700   0.000000
     4  C    2.756886   2.394562   1.402481   0.000000
     5  C    2.465741   2.865658   2.507989   1.403855   0.000000
     6  C    1.428022   2.485247   2.884352   2.408883   1.427808
     7  Cl   2.713265   4.040845   4.577732   3.980058   2.707606
     8  Cl   1.698258   2.692680   4.020777   4.455002   4.030644
     9  Cl   4.041974   4.556205   4.042051   2.701087   1.691413
    10  H    2.108862   1.008404   2.121862   3.320895   3.873777
    11  H    3.405182   2.148325   1.014435   2.117218   3.412075
                    6          7          8          9         10
     6  C    0.000000
     7  Cl   1.693420   0.000000
     8  Cl   2.712241   3.139430   0.000000
     9  Cl   2.733348   3.177695   5.442615   0.000000
    10  H    3.386512   4.821628   2.800338   5.564543   0.000000
    11  H    3.898254   5.591673   4.839762   4.816502   2.483587
                   11
    11  H    0.000000
 Stoichiometry    C6H2Cl3(2)
 Framework group  CS[SG(C6H2Cl3)]
 Deg. of freedom    19
 Full point group                 CS      NOp   2
 Largest Abelian subgroup         CS      NOp   2
 Largest concise Abelian subgroup C1      NOp   1
                         Standard orientation:                         
 ---------------------------------------------------------------------
 Center     Atomic      Atomic             Coordinates (Angstroms)
 Number     Number       Type             X           Y           Z
 ---------------------------------------------------------------------
      1          6           0        1.157845   -0.539716    0.000000
      2          6           0        1.040359   -1.960879    0.000000
      3          6           0       -0.242641   -2.577994    0.000000
      4          6           0       -1.340524   -1.705294    0.000000
      5          6           0       -1.296424   -0.302132    0.000000
      6          6           0        0.000000    0.296133    0.000000
      7         17           0        0.157098    1.982251    0.000000
      8         17           0        2.708455    0.152880    0.000000
      9         17           0       -2.714033    0.620506    0.000000
     10          1           0        1.878472   -2.521633    0.000000
     11          1           0       -0.366003   -3.584901    0.000000
 ---------------------------------------------------------------------
 Rotational constants (GHZ):           1.5143945           0.8515290           0.5450518
 Standard basis: VSTO-6G (5D, 7F)
 There are    29 symmetry adapted cartesian basis functions of A'  symmetry.
 There are     9 symmetry adapted cartesian basis functions of A"  symmetry.
 There are    29 symmetry adapted basis functions of A'  symmetry.
 There are     9 symmetry adapted basis functions of A"  symmetry.
    38 basis functions,   228 primitive gaussians,    38 cartesian basis functions
    24 alpha electrons       23 beta electrons
       nuclear repulsion energy       246.1432089077 Hartrees.
 Integral buffers will be    131072 words long.
 Regular integral format.
 Two-electron integral symmetry is turned off.
 Do NDO integrals.
 One-electron integrals computed using PRISM.
 NBasis=    38 RedAO= T EigKep=  1.00D+00  NBF=    29     9
 NBsUse=    38 1.00D-06 EigRej= -1.00D+00 NBFU=    29     9
 Initial guess from the checkpoint file:  "geometry_chks/12_4ClBzNeutralRadical.chk"
 B after Tr=    -0.000000    0.000000    0.000000
         Rot=    0.999916    0.000000   -0.000000   -0.012984 Ang=  -1.49 deg.
 Initial guess orbital symmetries:
 Alpha Orbitals:
       Occupied  (A') (A') (A') (A') (A') (A') (A') (A') (A') (A')
                 (A') (A") (A') (A') (A") (A") (A') (A') (A") (A')
                 (A') (A') (A") (A")
       Virtual   (A") (A") (A') (A') (A') (A') (A') (A") (A') (A')
                 (A') (A') (A') (A')
 Beta  Orbitals:
       Occupied  (A') (A') (A') (A') (A') (A') (A') (A') (A') (A')
                 (A') (A") (A') (A') (A") (A') (A") (A') (A") (A')
                 (A') (A") (A")
       Virtual   (A') (A") (A') (A") (A') (A') (A') (A') (A") (A')
                 (A') (A') (A') (A') (A')
 Initial guess <Sx>= 0.0000 <Sy>= 0.0000 <Sz>= 0.5000 <S**2>= 1.4743 S= 0.8131
 Keep J ints in memory in canonical form, NReq=863588.
 Overlap will be assumed to be unity.
 Requested convergence on RMS density matrix=1.00D-08 within  32 cycles.
 Requested convergence on MAX density matrix=1.00D-06.
 Requested convergence on             energy=1.00D-06.
 No special actions if energy rises.
 Fock symm off for IB=2 I1=    1 I=   30 J=   23 Cut=1.00D-07 Err=1.31D-03
 Fock matrix is not symmetric: symmetry in diagonalization turned off.
 SCF Done:  E(UAM1) =  0.104081167050     A.U. after   17 cycles
            NFock= 16  Conv=0.29D-08     -V/T= 1.0009
 <Sx>= 0.0000 <Sy>= 0.0000 <Sz>= 0.5000 <S**2>= 1.4273 S= 0.7951
 <L.S>=  0.00000000000    
 Annihilation of the first spin contaminant:
 S**2 before annihilation     1.4273,   after     1.1748
 QCSCF skips out because SCF is already converged.
 Calling FoFJK, ICntrl=      2127 FMM=F ISym2X=1 I1Cent= 0 IOpClX= 1 NMat=1 NMatS=1 NMatT=0.
 ***** Axes restored to original set *****
 -------------------------------------------------------------------
 Center     Atomic                   Forces (Hartrees/Bohr)
 Number     Number              X              Y              Z
 -------------------------------------------------------------------
      1        6           0.015056928   -0.009771730    0.000000000
      2        6           0.001572321   -0.089038334    0.000000000
      3        6          -0.068488948   -0.059978745   -0.000000000
      4        6          -0.036673871    0.019781253    0.000000000
      5        6           0.014910048    0.013156785    0.000000000
      6        6           0.007533216    0.007695670   -0.000000000
      7       17           0.005408785    0.002913494   -0.000000000
      8       17           0.005887118   -0.002491696   -0.000000000
      9       17          -0.000004412    0.008351879   -0.000000000
     10        1          -0.002209363    0.074856152   -0.000000000
     11        1           0.057008177    0.034525272   -0.000000000
 -------------------------------------------------------------------
 Cartesian Forces:  Max     0.089038334 RMS     0.029637686

 GradGradGradGradGradGradGradGradGradGradGradGradGradGradGradGradGradGrad
 Berny optimization.
 Using GEDIIS/GDIIS optimizer.
 FormGI is forming the generalized inverse of G from B-inverse, IUseBI=4.
 Internal  Forces:  Max     0.074864419 RMS     0.017267136
 Search for a local minimum.
 Step number   4 out of a maximum of   57
 All quantities printed in internal units (Hartrees-Bohrs-Radians)
 Mixed Optimization -- RFO/linear search
 Update second derivatives using D2CorX and points    3    4
 DE= -1.22D-01 DEPred=-2.25D-01 R= 5.42D-01
 TightC=F SS=  1.41D+00  RLast= 1.28D+00 DXNew= 1.4270D+00 3.8494D+00
 Trust test= 5.42D-01 RLast= 1.28D+00 DXMaxT set to 1.43D+00
 ITU=  1  1  1  0
 Use linear search instead of GDIIS.
     Eigenvalues ---    0.02011   0.02011   0.02011   0.02011   0.02011
     Eigenvalues ---    0.02011   0.02011   0.02011   0.06451   0.13141
     Eigenvalues ---    0.16000   0.16051   0.21046   0.22639   0.24828
     Eigenvalues ---    0.25000   0.25001   0.25028   0.25682   0.29035
     Eigenvalues ---    0.29037   0.36906   0.41370   0.44615   0.44656
     Eigenvalues ---    0.44686   0.53726
 RFO step:  Lambda=-2.84176740D-02 EMin= 2.01067256D-02
 Quartic linear search produced a step of -0.16770.
 Iteration  1 RMS(Cart)=  0.05923058 RMS(Int)=  0.00723292
 Iteration  2 RMS(Cart)=  0.00664809 RMS(Int)=  0.00036036
 Iteration  3 RMS(Cart)=  0.00001760 RMS(Int)=  0.00036009
 Iteration  4 RMS(Cart)=  0.00000000 RMS(Int)=  0.00036009
 ClnCor:  largest displacement from symmetrization is 2.35D-10 for atom     7.
 Variable       Old X    -DE/DX   Delta X   Delta X   Delta X     New X
                                 (Linear)    (Quad)   (Total)
    R1        2.69477  -0.01832   0.00080  -0.06691  -0.06653   2.62824
    R2        2.69857  -0.01835  -0.00361  -0.00986  -0.01403   2.68454
    R3        3.20924  -0.00636   0.02031  -0.13144  -0.11113   3.09811
    R4        2.69040  -0.01904   0.00528  -0.13132  -0.12590   2.56450
    R5        1.90561   0.07486   0.14995   0.09512   0.24506   2.15067
    R6        2.65030  -0.03344   0.01050  -0.17934  -0.16826   2.48205
    R7        1.91700   0.06663   0.14777   0.07176   0.21953   2.13654
    R8        2.65290  -0.03326   0.00613  -0.11174  -0.10514   2.54776
    R9        2.69817  -0.01776  -0.00294  -0.01809  -0.02117   2.67700
   R10        3.19631  -0.00833   0.02159  -0.13574  -0.11415   3.08215
   R11        3.20010  -0.00613   0.02115  -0.13305  -0.11190   3.08820
    A1        2.11359   0.00186  -0.00108  -0.00601  -0.00814   2.10545
    A2        2.07335  -0.00201   0.00263  -0.01166  -0.00851   2.06484
    A3        2.09625   0.00015  -0.00155   0.01768   0.01665   2.11290
    A4        2.10160  -0.00414  -0.00162   0.00488   0.00293   2.10453
    A5        2.07798   0.00389   0.00210  -0.00076   0.00150   2.07948
    A6        2.10360   0.00025  -0.00048  -0.00411  -0.00443   2.09918
    A7        2.02165  -0.00264   0.00720  -0.01434  -0.00649   2.01516
    A8        2.14103  -0.00007  -0.00471   0.00652   0.00148   2.14251
    A9        2.12051   0.00271  -0.00249   0.00782   0.00501   2.12551
   A10        2.21100   0.01224  -0.01543   0.09745   0.08329   2.29428
   A11        2.03457  -0.00393   0.00854  -0.05811  -0.04933   1.98524
   A12        2.11634   0.00107  -0.00267   0.01595   0.01315   2.12949
   A13        2.13227   0.00286  -0.00587   0.04217   0.03618   2.16845
   A14        2.08396  -0.00340   0.00239  -0.02387  -0.02225   2.06172
   A15        2.10317   0.00227  -0.00170   0.01501   0.01369   2.11686
   A16        2.09605   0.00113  -0.00069   0.00886   0.00856   2.10461
    D1        0.00000  -0.00000   0.00000  -0.00000   0.00000   0.00000
    D2        3.14159  -0.00000   0.00000  -0.00000   0.00000   3.14159
    D3        3.14159   0.00000   0.00000   0.00000   0.00000   3.14159
    D4       -0.00000  -0.00000   0.00000  -0.00000   0.00000   0.00000
    D5       -0.00000   0.00000   0.00000   0.00000   0.00000   0.00000
    D6        3.14159   0.00000   0.00000   0.00000   0.00000   3.14159
    D7        3.14159  -0.00000   0.00000  -0.00000   0.00000   3.14159
    D8        0.00000   0.00000   0.00000   0.00000  -0.00000   0.00000
    D9       -0.00000  -0.00000   0.00000  -0.00000   0.00000   0.00000
   D10        3.14159  -0.00000   0.00000  -0.00000   0.00000   3.14159
   D11        3.14159   0.00000   0.00000   0.00000   0.00000   3.14159
   D12        0.00000  -0.00000   0.00000   0.00000   0.00000   0.00000
   D13        0.00000   0.00000   0.00000   0.00000  -0.00000   0.00000
   D14        3.14159   0.00000   0.00000   0.00000   0.00000   3.14159
   D15        0.00000  -0.00000   0.00000  -0.00000   0.00000   0.00000
   D16        3.14159  -0.00000   0.00000  -0.00000   0.00000   3.14159
   D17       -0.00000  -0.00000   0.00000  -0.00000   0.00000   0.00000
   D18        3.14159  -0.00000   0.00000  -0.00000   0.00000   3.14159
   D19        3.14159   0.00000   0.00000   0.00000   0.00000   3.14159
   D20        0.00000   0.00000   0.00000  -0.00000   0.00000   0.00000
         Item               Value     Threshold  Converged?
 Maximum Force            0.074864     0.000450     NO 
 RMS     Force            0.017267     0.000300     NO 
 Maximum Displacement     0.205055     0.001800     NO 
 RMS     Displacement     0.061534     0.001200     NO 
 Predicted change in Energy=-3.338700D-02
 GradGradGradGradGradGradGradGradGradGradGradGradGradGradGradGradGradGrad

                          Input orientation:                          
 ---------------------------------------------------------------------
 Center     Atomic      Atomic             Coordinates (Angstroms)
 Number     Number       Type             X           Y           Z
 ---------------------------------------------------------------------
      1          6           0       -3.168001    0.269558    0.000000
      2          6           0       -1.976187    0.986443    0.000000
      3          6           0       -0.782349    0.341150   -0.000000
      4          6           0       -0.849536   -0.970572   -0.000000
      5          6           0       -1.904359   -1.810236   -0.000000
      6          6           0       -3.158229   -1.151005   -0.000000
      7         17           0       -4.548911   -2.009282    0.000000
      8         17           0       -4.578181    1.105734    0.000000
      9         17           0       -1.719450   -3.430726   -0.000000
     10          1           0       -2.013562    2.123915    0.000000
     11          1           0        0.207925    0.886704   -0.000000
 ---------------------------------------------------------------------
                    Distance matrix (angstroms):
                    1          2          3          4          5
     1  C    0.000000
     2  C    1.390807   0.000000
     3  C    2.386726   1.357075   0.000000
     4  C    2.629297   2.258152   1.313442   0.000000
     5  C    2.433584   2.797601   2.426391   1.348217   0.000000
     6  C    1.420597   2.442521   2.805590   2.315734   1.416607
     7  Cl   2.664587   3.948832   4.439766   3.842433   2.652031
     8  Cl   1.639451   2.604727   3.872071   4.267768   3.956287
     9  Cl   3.973714   4.424624   3.886542   2.609427   1.631006
    10  H    2.184346   1.138086   2.166595   3.306177   3.935666
    11  H    3.431872   2.186389   1.130607   2.137217   3.425672
                    6          7          8          9         10
     6  C    0.000000
     7  Cl   1.634207   0.000000
     8  Cl   2.666296   3.115153   0.000000
     9  Cl   2.695777   3.166442   5.362072   0.000000
    10  H    3.469202   4.848846   2.759342   5.562422   0.000000
    11  H    3.934877   5.569041   4.791116   4.728105   2.542773
                   11
    11  H    0.000000
 Stoichiometry    C6H2Cl3(2)
 Framework group  CS[SG(C6H2Cl3)]
 Deg. of freedom    19
 Full point group                 CS      NOp   2
[...]
                                 (Linear)    (Quad)   (Total)
    R1        2.66126  -0.00002  -0.00001  -0.00011  -0.00013   2.66114
    R2        2.67402  -0.00001   0.00001  -0.00010  -0.00009   2.67394
    R3        3.20141   0.00003   0.00009   0.00001   0.00010   3.20151
    R4        2.65791   0.00011   0.00010   0.00013   0.00022   2.65814
    R5        2.07849  -0.00003  -0.00039   0.00022  -0.00018   2.07832
    R6        2.58684   0.00010  -0.00007   0.00019   0.00012   2.58696
    R7        2.07312   0.00001  -0.00015   0.00010  -0.00005   2.07307
    R8        2.59894   0.00011  -0.00002   0.00022   0.00020   2.59913
    R9        2.68449   0.00004   0.00007  -0.00002   0.00005   2.68454
   R10        3.17386   0.00004  -0.00005   0.00014   0.00009   3.17395
   R11        3.18463  -0.00001   0.00000  -0.00007  -0.00007   3.18456
    A1        2.12612   0.00006   0.00003   0.00022   0.00025   2.12637
    A2        2.06171  -0.00001  -0.00003  -0.00004  -0.00007   2.06165
    A3        2.09535  -0.00005  -0.00001  -0.00018  -0.00018   2.09517
    A4        2.09200  -0.00002  -0.00004  -0.00008  -0.00012   2.09188
    A5        2.09562   0.00003   0.00007   0.00017   0.00024   2.09586
    A6        2.09557  -0.00001  -0.00003  -0.00009  -0.00012   2.09545
    A7        2.00814  -0.00003   0.00002  -0.00010  -0.00008   2.00807
    A8        2.13288  -0.00005  -0.00013  -0.00030  -0.00043   2.13245
    A9        2.14216   0.00008   0.00011   0.00040   0.00050   2.14267
   A10        2.25626   0.00000   0.00002   0.00007   0.00010   2.25636
   A11        2.00986  -0.00003  -0.00000  -0.00011  -0.00011   2.00975
   A12        2.12886   0.00004   0.00002   0.00016   0.00018   2.12904
   A13        2.14447  -0.00001  -0.00002  -0.00005  -0.00007   2.14440
   A14        2.07399   0.00001  -0.00003  -0.00001  -0.00003   2.07395
   A15        2.11233   0.00000   0.00004   0.00001   0.00005   2.11239
   A16        2.09686  -0.00001  -0.00001  -0.00001  -0.00002   2.09685
    D1        0.00000  -0.00000   0.00000  -0.00000  -0.00000   0.00000
    D2        3.14159  -0.00000   0.00000  -0.00000   0.00000   3.14159
    D3        3.14159   0.00000   0.00000   0.00000   0.00000   3.14159
    D4       -0.00000  -0.00000   0.00000  -0.00000   0.00000   0.00000
    D5        0.00000   0.00000   0.00000   0.00000   0.00000   0.00000
    D6        3.14159   0.00000   0.00000   0.00000   0.00000   3.14159
    D7        3.14159  -0.00000   0.00000  -0.00000   0.00000   3.14159
    D8       -0.00000  -0.00000   0.00000  -0.00000   0.00000   0.00000
    D9       -0.00000   0.00000   0.00000   0.00000   0.00000   0.00000
   D10        3.14159  -0.00000   0.00000  -0.00000   0.00000   3.14159
   D11        3.14159   0.00000   0.00000   0.00000   0.00000   3.14159
   D12        0.00000   0.00000   0.00000   0.00000   0.00000   0.00000
   D13        0.00000   0.00000   0.00000   0.00000   0.00000   0.00000
   D14        3.14159   0.00000   0.00000   0.00000   0.00000   3.14159
   D15        0.00000  -0.00000   0.00000  -0.00000  -0.00000   0.00000
   D16        3.14159  -0.00000   0.00000  -0.00000   0.00000   3.14159
   D17       -0.00000  -0.00000   0.00000  -0.00000   0.00000   0.00000
   D18        3.14159  -0.00000   0.00000  -0.00000   0.00000   3.14159
   D19        3.14159   0.00000   0.00000   0.00000   0.00000   3.14159
   D20        0.00000   0.00000   0.00000   0.00000   0.00000   0.00000
         Item               Value     Threshold  Converged?
 Maximum Force            0.000114     0.000450     YES
 RMS     Force            0.000035     0.000300     YES
 Maximum Displacement     0.000826     0.001800     YES
 RMS     Displacement     0.000181     0.001200     YES
 Predicted change in Energy=-9.197466D-08
 Optimization completed.
    -- Stationary point found.
                           ----------------------------
                           !   Optimized Parameters   !
                           ! (Angstroms and Degrees)  !
 --------------------------                            --------------------------
 ! Name  Definition              Value          Derivative Info.                !
 --------------------------------------------------------------------------------
 ! R1    R(1,2)                  1.4083         -DE/DX =    0.0                 !
 ! R2    R(1,6)                  1.415          -DE/DX =    0.0                 !
 ! R3    R(1,8)                  1.6941         -DE/DX =    0.0                 !
 ! R4    R(2,3)                  1.4065         -DE/DX =    0.0001              !
 ! R5    R(2,10)                 1.0999         -DE/DX =    0.0                 !
 ! R6    R(3,4)                  1.3689         -DE/DX =    0.0001              !
 ! R7    R(3,11)                 1.097          -DE/DX =    0.0                 !
 ! R8    R(4,5)                  1.3753         -DE/DX =    0.0001              !
 ! R9    R(5,6)                  1.4206         -DE/DX =    0.0                 !
 ! R10   R(5,9)                  1.6795         -DE/DX =    0.0                 !
 ! R11   R(6,7)                  1.6852         -DE/DX =    0.0                 !
 ! A1    A(2,1,6)              121.8177         -DE/DX =    0.0001              !
 ! A2    A(2,1,8)              118.1275         -DE/DX =    0.0                 !
 ! A3    A(6,1,8)              120.0547         -DE/DX =    0.0                 !
 ! A4    A(1,2,3)              119.8627         -DE/DX =    0.0                 !
 ! A5    A(1,2,10)             120.0702         -DE/DX =    0.0                 !
 ! A6    A(3,2,10)             120.0671         -DE/DX =    0.0                 !
 ! A7    A(2,3,4)              115.0581         -DE/DX =    0.0                 !
 ! A8    A(2,3,11)             122.205          -DE/DX =    0.0                 !
 ! A9    A(4,3,11)             122.7369         -DE/DX =    0.0001              !
 ! A10   A(3,4,5)              129.2741         -DE/DX =    0.0                 !
 ! A11   A(4,5,6)              115.1565         -DE/DX =    0.0                 !
 ! A12   A(4,5,9)              121.9745         -DE/DX =    0.0                 !
 ! A13   A(6,5,9)              122.869          -DE/DX =    0.0                 !
 ! A14   A(1,6,5)              118.8308         -DE/DX =    0.0                 !
 ! A15   A(1,6,7)              121.0277         -DE/DX =    0.0                 !
 ! A16   A(5,6,7)              120.1415         -DE/DX =    0.0                 !
 ! D1    D(6,1,2,3)              0.0            -DE/DX =    0.0                 !
 ! D2    D(6,1,2,10)           180.0            -DE/DX =    0.0                 !
 ! D3    D(8,1,2,3)            180.0            -DE/DX =    0.0                 !
 ! D4    D(8,1,2,10)             0.0            -DE/DX =    0.0                 !
 ! D5    D(2,1,6,5)              0.0            -DE/DX =    0.0                 !
 ! D6    D(2,1,6,7)            180.0            -DE/DX =    0.0                 !
 ! D7    D(8,1,6,5)            180.0            -DE/DX =    0.0                 !
 ! D8    D(8,1,6,7)              0.0            -DE/DX =    0.0                 !
 ! D9    D(1,2,3,4)              0.0            -DE/DX =    0.0                 !
 ! D10   D(1,2,3,11)           180.0            -DE/DX =    0.0                 !
 ! D11   D(10,2,3,4)           180.0            -DE/DX =    0.0                 !
 ! D12   D(10,2,3,11)            0.0            -DE/DX =    0.0                 !
 ! D13   D(2,3,4,5)              0.0            -DE/DX =    0.0                 !
 ! D14   D(11,3,4,5)           180.0            -DE/DX =    0.0                 !
 ! D15   D(3,4,5,6)              0.0            -DE/DX =    0.0                 !
 ! D16   D(3,4,5,9)            180.0            -DE/DX =    0.0                 !
 ! D17   D(4,5,6,1)              0.0            -DE/DX =    0.0                 !
 ! D18   D(4,5,6,7)            180.0            -DE/DX =    0.0                 !
 ! D19   D(9,5,6,1)            180.0            -DE/DX =    0.0                 !
 ! D20   D(9,5,6,7)              0.0            -DE/DX =    0.0                 !
 --------------------------------------------------------------------------------
 GradGradGradGradGradGradGradGradGradGradGradGradGradGradGradGradGradGrad

                          Input orientation:                          
 ---------------------------------------------------------------------
 Center     Atomic      Atomic             Coordinates (Angstroms)
 Number     Number       Type             X           Y           Z
 ---------------------------------------------------------------------
      1          6           0       -3.163239    0.271101    0.000000
      2          6           0       -1.974027    1.025438    0.000000
      3          6           0       -0.729281    0.370556   -0.000000
      4          6           0       -0.793563   -0.996832   -0.000000
      5          6           0       -1.897925   -1.816484   -0.000000
      6          6           0       -3.149165   -1.143861   -0.000000
      7         17           0       -4.584560   -2.026839    0.000000
      8         17           0       -4.637938    1.104931    0.000000
      9         17           0       -1.762993   -3.490591   -0.000000
     10          1           0       -2.018502    2.124430    0.000000
     11          1           0        0.220354    0.919831   -0.000000
 ---------------------------------------------------------------------
                    Distance matrix (angstroms):
                    1          2          3          4          5
     1  C    0.000000
     2  C    1.408279   0.000000
     3  C    2.435989   1.406507   0.000000
     4  C    2.687567   2.341596   1.368898   0.000000
     5  C    2.441112   2.842940   2.479691   1.375298   0.000000
     6  C    1.415033   2.467146   2.854697   2.360186   1.420570
     7  Cl   2.701978   4.016376   4.539898   3.928431   2.694857
     8  Cl   1.694111   2.665097   3.977048   4.381396   4.005289
     9  Cl   4.013853   4.520957   3.997125   2.675560   1.679536
    10  H    2.178360   1.099892   2.176733   3.353022   3.942758
    11  H    3.445222   2.196921   1.097047   2.168324   3.460423
                    6          7          8          9         10
     6  C    0.000000
     7  Cl   1.685233   0.000000
     8  Cl   2.696946   3.132225   0.000000
     9  Cl   2.725548   3.178649   5.420713   0.000000
    10  H    3.458342   4.880337   2.810840   5.620831   0.000000
    11  H    3.951264   5.636494   4.861818   4.835854   2.542349
                   11
    11  H    0.000000
 Stoichiometry    C6H2Cl3(2)
 Framework group  CS[SG(C6H2Cl3)]
 Deg. of freedom    19
 Full point group                 CS      NOp   2
 Largest Abelian subgroup         CS      NOp   2
 Largest concise Abelian subgroup C1      NOp   1
                         Standard orientation:                         
 ---------------------------------------------------------------------
 Center     Atomic      Atomic             Coordinates (Angstroms)
 Number     Number       Type             X           Y           Z
 ---------------------------------------------------------------------
      1          6           0        1.140808   -0.535590    0.000000
      2          6           0        1.031410   -1.939613    0.000000
      3          6           0       -0.239060   -2.543077   -0.000000
      4          6           0       -1.294811   -1.671714   -0.000000
      5          6           0       -1.288561   -0.296431   -0.000000
      6          6           0        0.000000    0.301593    0.000000
      7         17           0        0.154066    1.979768    0.000000
      8         17           0        2.692372    0.144601    0.000000
      9         17           0       -2.709227    0.599420   -0.000000
     10          1           0        1.937582   -2.563002    0.000000
     11          1           0       -0.368909   -3.632412   -0.000000
 ---------------------------------------------------------------------
 Rotational constants (GHZ):           1.5393973           0.8603289           0.5518913

 **********************************************************************

            Population analysis using the SCF Density.

 **********************************************************************

 Orbital symmetries:
 Alpha Orbitals:
       Occupied  (A') (A') (A') (A') (A') (A') (A') (A') (A') (A')
                 (A') (A') (A") (A') (A') (A") (A") (A') (A") (A')
                 (A') (A') (A") (A")
       Virtual   (A") (A") (A') (A') (A') (A") (A') (A') (A') (A')
                 (A') (A') (A') (A')
 Beta  Orbitals:
       Occupied  (A') (A') (A') (A') (A') (A') (A') (A') (A') (A')
                 (A') (A') (A") (A') (A") (A') (A") (A") (A') (A')
                 (A') (A") (A")
       Virtual   (A') (A") (A") (A') (A') (A') (A") (A') (A') (A')
                 (A') (A') (A') (A') (A')
 The electronic state is 2-A'.
 Alpha  occ. eigenvalues --   -1.48170  -1.40783  -1.39892  -1.38360  -1.17615
 Alpha  occ. eigenvalues --   -1.14786  -0.89806  -0.87209  -0.69762  -0.64248
 Alpha  occ. eigenvalues --   -0.63707  -0.58441  -0.57708  -0.55112  -0.50885
 Alpha  occ. eigenvalues --   -0.50066  -0.48597  -0.45941  -0.45504  -0.45257
 Alpha  occ. eigenvalues --   -0.44485  -0.40479  -0.38006  -0.37124
 Alpha virt. eigenvalues --   -0.01172  -0.00877   0.02503   0.03576   0.04900
 Alpha virt. eigenvalues --    0.06948   0.11622   0.12093   0.13225   0.13790
 Alpha virt. eigenvalues --    0.14554   0.16255   0.17164   0.17714
  Beta  occ. eigenvalues --   -1.47603  -1.40942  -1.39654  -1.38026  -1.17402
  Beta  occ. eigenvalues --   -1.13298  -0.89489  -0.85000  -0.69750  -0.63781
  Beta  occ. eigenvalues --   -0.62233  -0.58289  -0.57592  -0.53923  -0.51179
  Beta  occ. eigenvalues --   -0.50446  -0.47788  -0.45440  -0.45220  -0.45080
  Beta  occ. eigenvalues --   -0.44399  -0.37191  -0.36917
  Beta virt. eigenvalues --   -0.01301  -0.01211   0.00684   0.02052   0.03971
  Beta virt. eigenvalues --    0.04750   0.07905   0.11999   0.12441   0.13819
  Beta virt. eigenvalues --    0.14188   0.15590   0.16236   0.17879   0.19134
          Condensed to atoms (all electrons):
               1          2          3          4          5          6
     1  C    4.071368   0.000000   0.000000   0.000000   0.000000   0.000000
     2  C    0.000000   4.112043   0.000000   0.000000   0.000000   0.000000
     3  C    0.000000   0.000000   4.104783   0.000000   0.000000   0.000000
     4  C    0.000000   0.000000   0.000000   4.049513   0.000000   0.000000
     5  C    0.000000   0.000000   0.000000   0.000000   4.053800   0.000000
     6  C    0.000000   0.000000   0.000000   0.000000   0.000000   4.062467
     7  Cl   0.000000   0.000000   0.000000   0.000000   0.000000   0.000000
     8  Cl   0.000000   0.000000   0.000000   0.000000   0.000000   0.000000
     9  Cl   0.000000   0.000000   0.000000   0.000000   0.000000   0.000000
    10  H    0.000000   0.000000   0.000000   0.000000   0.000000   0.000000
    11  H    0.000000   0.000000   0.000000   0.000000   0.000000   0.000000
               7          8          9         10         11
     1  C    0.000000   0.000000   0.000000   0.000000   0.000000
     2  C    0.000000   0.000000   0.000000   0.000000   0.000000
     3  C    0.000000   0.000000   0.000000   0.000000   0.000000
     4  C    0.000000   0.000000   0.000000   0.000000   0.000000
     5  C    0.000000   0.000000   0.000000   0.000000   0.000000
     6  C    0.000000   0.000000   0.000000   0.000000   0.000000
     7  Cl   6.953692   0.000000   0.000000   0.000000   0.000000
     8  Cl   0.000000   6.977929   0.000000   0.000000   0.000000
     9  Cl   0.000000   0.000000   6.944477   0.000000   0.000000
    10  H    0.000000   0.000000   0.000000   0.839359   0.000000
    11  H    0.000000   0.000000   0.000000   0.000000   0.830569
          Atomic-Atomic Spin Densities.
               1          2          3          4          5          6
     1  C   -0.476372   0.000000   0.000000   0.000000   0.000000   0.000000
     2  C    0.000000   0.525199   0.000000   0.000000   0.000000   0.000000
     3  C    0.000000   0.000000  -0.497510   0.000000   0.000000   0.000000
     4  C    0.000000   0.000000   0.000000   1.407212   0.000000   0.000000
     5  C    0.000000   0.000000   0.000000   0.000000  -0.499096   0.000000
     6  C    0.000000   0.000000   0.000000   0.000000   0.000000   0.515074
     7  Cl   0.000000   0.000000   0.000000   0.000000   0.000000   0.000000
     8  Cl   0.000000   0.000000   0.000000   0.000000   0.000000   0.000000
     9  Cl   0.000000   0.000000   0.000000   0.000000   0.000000   0.000000
    10  H    0.000000   0.000000   0.000000   0.000000   0.000000   0.000000
    11  H    0.000000   0.000000   0.000000   0.000000   0.000000   0.000000
               7          8          9         10         11
     1  C    0.000000   0.000000   0.000000   0.000000   0.000000
     2  C    0.000000   0.000000   0.000000   0.000000   0.000000
     3  C    0.000000   0.000000   0.000000   0.000000   0.000000
     4  C    0.000000   0.000000   0.000000   0.000000   0.000000
     5  C    0.000000   0.000000   0.000000   0.000000   0.000000
     6  C    0.000000   0.000000   0.000000   0.000000   0.000000
     7  Cl   0.017143   0.000000   0.000000   0.000000   0.000000
     8  Cl   0.000000  -0.002516   0.000000   0.000000   0.000000
     9  Cl   0.000000   0.000000  -0.001057   0.000000   0.000000
    10  H    0.000000   0.000000   0.000000  -0.021270   0.000000
    11  H    0.000000   0.000000   0.000000   0.000000   0.033191
 Mulliken charges and spin densities:
               1          2
     1  C   -0.071368  -0.476372
     2  C   -0.112043   0.525199
     3  C   -0.104783  -0.497510
     4  C   -0.049513   1.407212
     5  C   -0.053800  -0.499096
     6  C   -0.062467   0.515074
     7  Cl   0.046308   0.017143
     8  Cl   0.022071  -0.002516
     9  Cl   0.055523  -0.001057
    10  H    0.160641  -0.021270
    11  H    0.169431   0.033191
 Sum of Mulliken charges =  -0.00000   1.00000
 Mulliken charges and spin densities with hydrogens summed into heavy atoms:
               1          2
     1  C   -0.071368  -0.476372
     2  C    0.048598   0.503930
     3  C    0.064648  -0.464318
     4  C   -0.049513   1.407212
     5  C   -0.053800  -0.499096
     6  C   -0.062467   0.515074
     7  Cl   0.046308   0.017143
     8  Cl   0.022071  -0.002516
     9  Cl   0.055523  -0.001057
 Charge=              0.0000 electrons
 Dipole moment (field-independent basis, Debye):
    X=              0.6695    Y=             -1.3509    Z=              0.0000  Tot=              1.5077
 N-N= 2.470133226736D+02 E-N=-3.464015038272D+02  KE=-1.121203756411D+02
 Symmetry A'   KE=-8.615951481187D+01
 Symmetry A"   KE=-2.596086082918D+01
 Symmetry A'   SP= 1.000000000000D+00
 Symmetry A"   SP= 7.771561172376D-16
 1\1\GINC-SH02-01N17\FOpt\UAM1\ZDO\C6H2Cl3(2)\JLAPIER\09-Dec-2025\0\\# 
 opt am1 SCF=XQC\\Neutral Radical (removed 3) 12_4\\0,2\C,-3.1632389594
 ,0.2711013136,0.\C,-1.9740268916,1.0254379029,0.\C,-0.7292814388,0.370
 5555404,0.\C,-0.7935633703,-0.9968324749,0.\C,-1.8979254798,-1.8164836
 761,0.\C,-3.1491648024,-1.1438614854,0.\Cl,-4.5845597996,-2.0268393009
 ,0.\Cl,-4.6379384545,1.1049312132,0.\Cl,-1.7629928121,-3.4905905594,0.
 \H,-2.0185024248,2.124430381,0.\H,0.2203544333,0.9198311457,0.\\Versio
 n=ES64L-G16RevB.01\State=2-A'\HF=0.0894462\S2=1.304796\S2-1=0.\S2A=1.0
 2264\RMSD=4.160e-09\RMSF=5.501e-05\Dipole=0.2674133,0.5294769,0.\PG=CS
  [SG(C6H2Cl3)]\\@


 HE WHO LAUGHS LAST PROBABLY DIDN'T GET THE JOKE.
 Job cpu time:       0 days  0 hours  0 minutes  8.2 seconds.
 Elapsed time:       0 days  0 hours  0 minutes 19.0 seconds.
 File lengths (MBytes):  RWF=     10 Int=      0 D2E=      0 Chk=      2 Scr=      1
 Normal termination of Gaussian 16 at Tue Dec  9 08:35:04 2025.
