 Entering Gaussian System, Link 0=g16
 Initial command:
 /share/software/user/restricted/gaussian/g16.B01/l1.exe "/home/users/jlapier/Chloroaromatics/Gau-31268.inp" -scrdir="/home/users/jlapier/Chloroaromatics/"
 Entering Link 1 = /share/software/user/restricted/gaussian/g16.B01/l1.exe PID=     31270.
  
 Copyright (c) 1988-2017, Gaussian, Inc.  All Rights Reserved.
  
 This is part of the Gaussian(R) 16 program.  It is based on
 the Gaussian(R) 09 system (copyright 2009, Gaussian, Inc.),
 the Gaussian(R) 03 system (copyright 2003, Gaussian, Inc.),
 the Gaussian(R) 98 system (copyright 1998, Gaussian, Inc.),
 the Gaussian(R) 94 system (copyright 1995, Gaussian, Inc.),
 the Gaussian 92(TM) system (copyright 1992, Gaussian, Inc.),
 the Gaussian 90(TM) system (copyright 1990, Gaussian, Inc.),
 the Gaussian 88(TM) system (copyright 1988, Gaussian, Inc.),
 the Gaussian 86(TM) system (copyright 1986, Carnegie Mellon
 University), and the Gaussian 82(TM) system (copyright 1983,
 Carnegie Mellon University). Gaussian is a federally registered
 trademark of Gaussian, Inc.
  
 This software contains proprietary and confidential information,
 including trade secrets, belonging to Gaussian, Inc.
  
 This software is provided under written license and may be
 used, copied, transmitted, or stored only in accord with that
 written license.
  
 The following legend is applicable only to US Government
 contracts under FAR:
  
                    RESTRICTED RIGHTS LEGEND
  
 Use, reproduction and disclosure by the US Government is
 subject to restrictions as set forth in subparagraphs (a)
 and (c) of the Commercial Computer Software - Restricted
 Rights clause in FAR 52.227-19.
  
 Gaussian, Inc.
 340 Quinnipiac St., Bldg. 40, Wallingford CT 06492
  
  
 ---------------------------------------------------------------
 Warning -- This program may not be used in any manner that
 competes with the business of Gaussian, Inc. or will provide
 assistance to any competitor of Gaussian, Inc.  The licensee
 of this program is prohibited from giving any competitor of
 Gaussian, Inc. access to this program.  By using this program,
 the user acknowledges that Gaussian, Inc. is engaged in the
 business of creating and licensing software in the field of
 computational chemistry and represents and warrants to the
 licensee that it is not a competitor of Gaussian, Inc. and that
 it will not use this program in any manner prohibited above.
 ---------------------------------------------------------------
  

 Cite this work as:
 Gaussian 16, Revision B.01,
 M. J. Frisch, G. W. Trucks, H. B. Schlegel, G. E. Scuseria, 
 M. A. Robb, J. R. Cheeseman, G. Scalmani, V. Barone, 
 G. A. Petersson, H. Nakatsuji, X. Li, M. Caricato, A. V. Marenich, 
 J. Bloino, B. G. Janesko, R. Gomperts, B. Mennucci, H. P. Hratchian, 
 J. V. Ortiz, A. F. Izmaylov, J. L. Sonnenberg, D. Williams-Young, 
 F. Ding, F. Lipparini, F. Egidi, J. Goings, B. Peng, A. Petrone, 
 T. Henderson, D. Ranasinghe, V. G. Zakrzewski, J. Gao, N. Rega, 
 G. Zheng, W. Liang, M. Hada, M. Ehara, K. Toyota, R. Fukuda, 
 J. Hasegawa, M. Ishida, T. Nakajima, Y. Honda, O. Kitao, H. Nakai, 
 T. Vreven, K. Throssell, J. A. Montgomery, Jr., J. E. Peralta, 
 F. Ogliaro, M. J. Bearpark, J. J. Heyd, E. N. Brothers, K. N. Kudin, 
 V. N. Staroverov, T. A. Keith, R. Kobayashi, J. Normand, 
 K. Raghavachari, A. P. Rendell, J. C. Burant, S. S. Iyengar, 
 J. Tomasi, M. Cossi, J. M. Millam, M. Klene, C. Adamo, R. Cammi, 
 J. W. Ochterski, R. L. Martin, K. Morokuma, O. Farkas, 
 J. B. Foresman, and D. J. Fox, Gaussian, Inc., Wallingford CT, 2016.
 
 ******************************************
 Gaussian 16:  ES64L-G16RevB.01 20-Dec-2017
                 8-Dec-2025 
 ******************************************
 %mem=2GB
 %nprocshare=1
 Will use up to    1 processors via shared memory.
 %chk=geometry_chks/12_5ClBzAnionIntermediate.chk
 ---------------------------
 # opt am1 SCF(maxcyc=10000)
 ---------------------------
 1/18=20,19=15,26=1,38=1/1,3;
 2/9=110,12=2,17=6,18=5,40=1/2;
 3/5=2,25=1,41=700000,71=1/1,2,3;
 4/35=1/1;
 5/5=2,7=10000,35=1,38=5/2;
 6/7=2,8=2,9=2,10=2,28=1/1;
 7//1,2,3,16;
 1/18=20,19=15,26=1/3(2);
 2/9=110/2;
 99//99;
 2/9=110/2;
 3/5=2,25=1,41=700000,71=1,135=20/1,2,3;
 4/5=5,16=3,35=1/1;
 5/5=2,7=10000,35=1,38=5/2;
 7//1,2,3,16;
 1/18=20,19=15,26=1/3(-5);
 2/9=110/2;
 6/7=2,8=2,9=2,10=2,19=2,28=1/1;
 99/9=1/99;
 -----------------------------------
 Anion Intermediate (removed 4) 12_5
 -----------------------------------
 Symbolic Z-matrix:
 Charge = -1 Multiplicity = 1
 C                    -3.20928   0.19943   0. 
 C                    -2.0115    0.93555   0. 
 C                    -0.77511   0.2663    0. 
 C                    -0.7365   -1.13907   0. 
 C                    -1.93429  -1.87519   0. 
 C                    -3.17067  -1.20594   0. 
 Cl                   -4.67483  -2.13035   0. 
 Cl                   -4.76193   1.03987   0. 
 H                     0.81614  -1.97951   0. 
 Cl                   -2.05998   2.7004    0. 
 H                     0.72905   1.19071   0. 
 
 Add virtual bond connecting atoms H9         and C4         Dist= 3.34D+00.
 Add virtual bond connecting atoms H11        and C3         Dist= 3.34D+00.

 GradGradGradGradGradGradGradGradGradGradGradGradGradGradGradGradGradGrad
 Berny optimization.
 Initialization pass.
                           ----------------------------
                           !    Initial Parameters    !
                           ! (Angstroms and Degrees)  !
 --------------------------                            --------------------------
 ! Name  Definition              Value          Derivative Info.                !
 --------------------------------------------------------------------------------
 ! R1    R(1,2)                  1.4059         estimate D2E/DX2                !
 ! R2    R(1,6)                  1.4059         estimate D2E/DX2                !
 ! R3    R(1,8)                  1.7655         estimate D2E/DX2                !
 ! R4    R(2,3)                  1.4059         estimate D2E/DX2                !
 ! R5    R(2,10)                 1.7655         estimate D2E/DX2                !
 ! R6    R(3,4)                  1.4059         estimate D2E/DX2                !
 ! R7    R(3,11)                 1.7655         estimate D2E/DX2                !
 ! R8    R(4,5)                  1.4059         estimate D2E/DX2                !
 ! R9    R(4,9)                  1.7655         estimate D2E/DX2                !
 ! R10   R(5,6)                  1.4059         estimate D2E/DX2                !
 ! R11   R(6,7)                  1.7655         estimate D2E/DX2                !
 ! A1    A(2,1,6)              119.9999         estimate D2E/DX2                !
 ! A2    A(2,1,8)              119.9999         estimate D2E/DX2                !
 ! A3    A(6,1,8)              120.0001         estimate D2E/DX2                !
 ! A4    A(1,2,3)              120.0            estimate D2E/DX2                !
 ! A5    A(1,2,10)             120.0001         estimate D2E/DX2                !
 ! A6    A(3,2,10)             119.9999         estimate D2E/DX2                !
 ! A7    A(2,3,4)              120.0001         estimate D2E/DX2                !
 ! A8    A(2,3,11)             120.0            estimate D2E/DX2                !
 ! A9    A(4,3,11)             119.9999         estimate D2E/DX2                !
 ! A10   A(3,4,5)              119.9997         estimate D2E/DX2                !
 ! A11   A(3,4,9)              120.0003         estimate D2E/DX2                !
 ! A12   A(5,4,9)              120.0            estimate D2E/DX2                !
 ! A13   A(4,5,6)              120.0            estimate D2E/DX2                !
 ! A14   A(1,6,5)              120.0003         estimate D2E/DX2                !
 ! A15   A(1,6,7)              119.9999         estimate D2E/DX2                !
 ! A16   A(5,6,7)              119.9998         estimate D2E/DX2                !
 ! D1    D(6,1,2,3)              0.0            estimate D2E/DX2                !
 ! D2    D(6,1,2,10)           180.0            estimate D2E/DX2                !
 ! D3    D(8,1,2,3)            180.0            estimate D2E/DX2                !
 ! D4    D(8,1,2,10)             0.0            estimate D2E/DX2                !
 ! D5    D(2,1,6,5)              0.0            estimate D2E/DX2                !
 ! D6    D(2,1,6,7)            180.0            estimate D2E/DX2                !
 ! D7    D(8,1,6,5)            180.0            estimate D2E/DX2                !
 ! D8    D(8,1,6,7)              0.0            estimate D2E/DX2                !
 ! D9    D(1,2,3,4)              0.0            estimate D2E/DX2                !
 ! D10   D(1,2,3,11)           180.0            estimate D2E/DX2                !
 ! D11   D(10,2,3,4)           180.0            estimate D2E/DX2                !
 ! D12   D(10,2,3,11)            0.0            estimate D2E/DX2                !
 ! D13   D(2,3,4,5)              0.0            estimate D2E/DX2                !
 ! D14   D(2,3,4,9)            180.0            estimate D2E/DX2                !
 ! D15   D(11,3,4,5)           180.0            estimate D2E/DX2                !
 ! D16   D(11,3,4,9)             0.0            estimate D2E/DX2                !
 ! D17   D(3,4,5,6)              0.0            estimate D2E/DX2                !
 ! D18   D(9,4,5,6)            180.0            estimate D2E/DX2                !
 ! D19   D(4,5,6,1)              0.0            estimate D2E/DX2                !
 ! D20   D(4,5,6,7)            180.0            estimate D2E/DX2                !
 --------------------------------------------------------------------------------
 Trust Radius=3.00D-01 FncErr=1.00D-07 GrdErr=1.00D-07 EigMax=2.50D+02 EigMin=1.00D-04
 Number of steps in this run=     57 maximum allowed number of steps=    100.
 GradGradGradGradGradGradGradGradGradGradGradGradGradGradGradGradGradGrad

                          Input orientation:                          
 ---------------------------------------------------------------------
 Center     Atomic      Atomic             Coordinates (Angstroms)
 Number     Number       Type             X           Y           Z
 ---------------------------------------------------------------------
      1          6           0       -3.209280    0.199430    0.000000
      2          6           0       -2.011500    0.935550    0.000000
      3          6           0       -0.775110    0.266300    0.000000
      4          6           0       -0.736500   -1.139070    0.000000
      5          6           0       -1.934290   -1.875190    0.000000
      6          6           0       -3.170670   -1.205940    0.000000
      7         17           0       -4.674830   -2.130350    0.000000
      8         17           0       -4.761930    1.039870    0.000000
      9          1           0        0.816140   -1.979510    0.000000
     10         17           0       -2.059980    2.700400    0.000000
     11          1           0        0.729050    1.190710    0.000000
 ---------------------------------------------------------------------
                    Distance matrix (angstroms):
                    1          2          3          4          5
     1  C    0.000000
     2  C    1.405898   0.000000
     3  C    2.435088   1.405900   0.000000
     4  C    2.811801   2.435092   1.405900   0.000000
     5  C    2.435087   2.811800   2.435093   1.405907   0.000000
     6  C    1.405900   2.435088   2.811796   2.435088   1.405892
     7  Cl   2.752401   4.061166   4.577308   4.061167   2.752393
     8  Cl   1.765520   2.752408   4.061175   4.577321   4.061173
     9  H    4.577312   4.061173   2.752406   1.765511   2.752408
    10  Cl   2.752406   1.765516   2.752405   4.061173   4.577316
    11  H    4.061167   2.752403   1.765512   2.752401   4.061173
                    6          7          8          9         10
     6  C    0.000000
     7  Cl   1.765512   0.000000
     8  Cl   2.752412   3.171416   0.000000
     9  H    4.061165   5.493041   6.342832   0.000000
    10  Cl   4.061173   5.493049   3.171418   5.493052   0.000000
    11  H    4.577308   6.342819   5.493051   3.171416   3.171412
                   11
    11  H    0.000000
 Stoichiometry    C6H2Cl3(1-)
 Framework group  CS[SG(C6H2Cl3)]
 Deg. of freedom    19
 Full point group                 CS      NOp   2
 Largest Abelian subgroup         CS      NOp   2
 Largest concise Abelian subgroup C1      NOp   1
                         Standard orientation:                         
 ---------------------------------------------------------------------
 Center     Atomic      Atomic             Coordinates (Angstroms)
 Number     Number       Type             X           Y           Z
 ---------------------------------------------------------------------
      1          6           0        0.030860   -0.247798    0.000000
      2          6           0       -1.186684    0.455150    0.000000
      3          6           0       -1.186684    1.861050    0.000000
      4          6           0        0.030860    2.564002    0.000000
      5          6           0        1.248409    1.861046    0.000000
      6          6           0        1.248405    0.455154    0.000000
      7         17           0        2.777382   -0.427602    0.000000
      8         17           0        0.030860   -2.013318    0.000000
      9          1           0        0.030866    4.329514    0.000000
     10         17           0       -2.715667   -0.427606    0.000000
     11          1           0       -2.715661    2.743806    0.000000
 ---------------------------------------------------------------------
 Rotational constants (GHZ):           1.4523873           0.8332497           0.5294810
 Standard basis: VSTO-6G (5D, 7F)
 There are    29 symmetry adapted cartesian basis functions of A'  symmetry.
 There are     9 symmetry adapted cartesian basis functions of A"  symmetry.
 There are    29 symmetry adapted basis functions of A'  symmetry.
 There are     9 symmetry adapted basis functions of A"  symmetry.
    38 basis functions,   228 primitive gaussians,    38 cartesian basis functions
    24 alpha electrons       24 beta electrons
       nuclear repulsion energy       242.1155877757 Hartrees.
 Integral buffers will be    131072 words long.
 Regular integral format.
 Two-electron integral symmetry is turned off.
 Do NDO integrals.
 One-electron integrals computed using PRISM.
 NBasis=    38 RedAO= T EigKep=  1.00D+00  NBF=    29     9
 NBsUse=    38 1.00D-06 EigRej= -1.00D+00 NBFU=    29     9
 Simple Huckel Guess.
 Initial guess orbital symmetries:
       Occupied  (A') (A') (A') (A') (A') (A') (A') (A') (A') (A")
                 (A') (A') (A') (A') (A") (A") (A') (A") (A') (A')
                 (A') (A") (A") (A')
       Virtual   (A') (A") (A") (A') (A") (A') (A') (A') (A') (A')
                 (A') (A') (A') (A')
 The electronic state of the initial guess is 1-A'.
 Keep J ints in memory in canonical form, NReq=863588.
 Overlap will be assumed to be unity.
 Requested convergence on RMS density matrix=1.00D-08 within**** cycles.
 Requested convergence on MAX density matrix=1.00D-06.
 Requested convergence on             energy=1.00D-06.
 No special actions if energy rises.
 Fock symm off for IB=2 I1=    1 I=   30 J=   26 Cut=1.00D-07 Err=8.19D-03
 Fock matrix is not symmetric: symmetry in diagonalization turned off.
 SCF Done:  E(RAM1) =  0.277991316727     A.U. after   17 cycles
            NFock= 16  Conv=0.53D-08     -V/T= 1.0025

 **********************************************************************

            Population analysis using the SCF Density.

 **********************************************************************

 Orbital symmetries:
       Occupied  (A') (A') (A') (A') (A') (A') (A') (A') (A') (A')
                 (A') (A") (A') (A") (A") (A') (A') (A') (A') (A")
                 (A') (A") (A") (A')
       Virtual   (A') (A") (A') (A') (A") (A') (A') (A") (A') (A')
                 (A') (A') (A') (A')
 The electronic state is 1-A'.
 Alpha  occ. eigenvalues --   -1.26822  -1.22725  -1.21252  -1.18825  -0.94524
 Alpha  occ. eigenvalues --   -0.93164  -0.66155  -0.65272  -0.48868  -0.43986
 Alpha  occ. eigenvalues --   -0.40944  -0.39213  -0.37312  -0.33544  -0.31565
 Alpha  occ. eigenvalues --   -0.31155  -0.30334  -0.28623  -0.27967  -0.27906
 Alpha  occ. eigenvalues --   -0.22988  -0.19254  -0.17361  -0.12313
 Alpha virt. eigenvalues --    0.14768   0.16442   0.16599   0.17708   0.17831
 Alpha virt. eigenvalues --    0.19955   0.21468   0.27555   0.31323   0.31647
 Alpha virt. eigenvalues --    0.33228   0.34885   0.36971   0.39784
          Condensed to atoms (all electrons):
               1          2          3          4          5          6
     1  C    4.041078   0.000000   0.000000   0.000000   0.000000   0.000000
     2  C    0.000000   4.117663   0.000000   0.000000   0.000000   0.000000
     3  C    0.000000   0.000000   4.105882   0.000000   0.000000   0.000000
     4  C    0.000000   0.000000   0.000000   4.115828   0.000000   0.000000
     5  C    0.000000   0.000000   0.000000   0.000000   4.344809   0.000000
     6  C    0.000000   0.000000   0.000000   0.000000   0.000000   4.049599
     7  Cl   0.000000   0.000000   0.000000   0.000000   0.000000   0.000000
     8  Cl   0.000000   0.000000   0.000000   0.000000   0.000000   0.000000
     9  H    0.000000   0.000000   0.000000   0.000000   0.000000   0.000000
    10  Cl   0.000000   0.000000   0.000000   0.000000   0.000000   0.000000
    11  H    0.000000   0.000000   0.000000   0.000000   0.000000   0.000000
               7          8          9         10         11
     1  C    0.000000   0.000000   0.000000   0.000000   0.000000
     2  C    0.000000   0.000000   0.000000   0.000000   0.000000
     3  C    0.000000   0.000000   0.000000   0.000000   0.000000
     4  C    0.000000   0.000000   0.000000   0.000000   0.000000
     5  C    0.000000   0.000000   0.000000   0.000000   0.000000
     6  C    0.000000   0.000000   0.000000   0.000000   0.000000
     7  Cl   7.110067   0.000000   0.000000   0.000000   0.000000
     8  Cl   0.000000   7.105607   0.000000   0.000000   0.000000
     9  H    0.000000   0.000000   0.956653   0.000000   0.000000
    10  Cl   0.000000   0.000000   0.000000   7.105402   0.000000
    11  H    0.000000   0.000000   0.000000   0.000000   0.947412
 Mulliken charges:
               1
     1  C   -0.041078
     2  C   -0.117663
     3  C   -0.105882
     4  C   -0.115828
     5  C   -0.344809
     6  C   -0.049599
     7  Cl  -0.110067
     8  Cl  -0.105607
     9  H    0.043347
    10  Cl  -0.105402
    11  H    0.052588
 Sum of Mulliken charges =  -1.00000
 Mulliken charges with hydrogens summed into heavy atoms:
               1
     1  C   -0.041078
     2  C   -0.117663
     3  C   -0.053294
     4  C   -0.072481
     5  C   -0.344809
     6  C   -0.049599
     7  Cl  -0.110067
     8  Cl  -0.105607
    10  Cl  -0.105402
 Charge=             -1.0000 electrons
 Dipole moment (field-independent basis, Debye):
    X=             -3.4537    Y=             -4.0207    Z=              0.0000  Tot=              5.3003
 N-N= 2.421155877757D+02 E-N=-3.441720554795D+02  KE=-1.134617689470D+02
 Symmetry A'   KE=-8.740460565905D+01
 Symmetry A"   KE=-2.605716328797D+01
 Calling FoFJK, ICntrl=      2127 FMM=F ISym2X=1 I1Cent= 0 IOpClX= 0 NMat=1 NMatS=1 NMatT=0.
 ***** Axes restored to original set *****
 -------------------------------------------------------------------
 Center     Atomic                   Forces (Hartrees/Bohr)
 Number     Number              X              Y              Z
 -------------------------------------------------------------------
      1        6          -0.019286504    0.005791143    0.000000000
      2        6           0.015561601    0.013348058    0.000000000
      3        6           0.076290198    0.015548199    0.000000000
      4        6           0.043643591   -0.013790144    0.000000000
      5        6           0.016906537    0.014245101    0.000000000
      6        6           0.016687254   -0.008711569   -0.000000000
      7       17           0.024512797    0.014085996   -0.000000000
      8       17           0.022849633   -0.009757718   -0.000000000
      9        1          -0.101745123    0.055367536   -0.000000000
     10       17           0.003358512   -0.028015619   -0.000000000
     11        1          -0.098778495   -0.058110983   -0.000000000
 -------------------------------------------------------------------
 Cartesian Forces:  Max     0.101745123 RMS     0.034196535

 GradGradGradGradGradGradGradGradGradGradGradGradGradGradGradGradGradGrad
 Berny optimization.
 FormGI is forming the generalized inverse of G from B-inverse, IUseBI=4.
 Internal  Forces:  Max     0.115834224 RMS     0.028080389
 Search for a local minimum.
 Step number   1 out of a maximum of   57
 All quantities printed in internal units (Hartrees-Bohrs-Radians)
 Mixed Optimization -- RFO/linear search
 Second derivative matrix not updated -- first step.
 ITU=  0
     Eigenvalues ---    0.02011   0.02011   0.02011   0.02011   0.02011
     Eigenvalues ---    0.02011   0.02011   0.02011   0.06524   0.06524
     Eigenvalues ---    0.16000   0.16000   0.22422   0.24427   0.25000
     Eigenvalues ---    0.25000   0.25000   0.25000   0.29033   0.29033
     Eigenvalues ---    0.29033   0.40957   0.41540   0.44656   0.44657
     Eigenvalues ---    0.44657   0.44657
 RFO step:  Lambda=-1.45905912D-01 EMin= 2.01067220D-02
 Linear search not attempted -- first point.
 Maximum step size (   0.300) exceeded in Quadratic search.
    -- Step size scaled by   0.376
 Iteration  1 RMS(Cart)=  0.04879722 RMS(Int)=  0.00114198
 Iteration  2 RMS(Cart)=  0.00105593 RMS(Int)=  0.00001987
 Iteration  3 RMS(Cart)=  0.00000025 RMS(Int)=  0.00001987
 ClnCor:  largest displacement from symmetrization is 1.12D-09 for atom     8.
 Variable       Old X    -DE/DX   Delta X   Delta X   Delta X     New X
                                 (Linear)    (Quad)   (Total)
    R1        2.65676  -0.01497   0.00000  -0.00878  -0.00881   2.64796
    R2        2.65677  -0.00933   0.00000  -0.00499  -0.00502   2.65174
    R3        3.33635  -0.02474   0.00000  -0.02135  -0.02135   3.31500
    R4        2.65677  -0.03332   0.00000  -0.02138  -0.02137   2.63540
    R5        3.33634  -0.02810   0.00000  -0.02424  -0.02424   3.31210
    R6        2.65677  -0.05185   0.00000  -0.03387  -0.03384   2.62293
    R7        3.33633  -0.11458   0.00000  -0.20425  -0.20425   3.13208
    R8        2.65678  -0.04577   0.00000  -0.02980  -0.02978   2.62700
    R9        3.33633  -0.11583   0.00000  -0.20649  -0.20649   3.12985
   R10        2.65675  -0.02899   0.00000  -0.01821  -0.01822   2.63853
   R11        3.33633  -0.02826   0.00000  -0.02438  -0.02438   3.31195
    A1        2.09439  -0.00934   0.00000  -0.00652  -0.00658   2.08782
    A2        2.09439   0.00084   0.00000  -0.00038  -0.00035   2.09404
    A3        2.09440   0.00850   0.00000   0.00690   0.00693   2.10133
    A4        2.09439  -0.00845   0.00000  -0.00742  -0.00743   2.08696
    A5        2.09440   0.00854   0.00000   0.00781   0.00782   2.10222
    A6        2.09439  -0.00009   0.00000  -0.00039  -0.00039   2.09401
    A7        2.09440   0.00576   0.00000   0.00385   0.00389   2.09828
    A8        2.09440  -0.00657   0.00000  -0.00646  -0.00648   2.08791
    A9        2.09439   0.00081   0.00000   0.00262   0.00260   2.09699
   A10        2.09439   0.01915   0.00000   0.01675   0.01681   2.11120
   A11        2.09440  -0.01000   0.00000  -0.00890  -0.00893   2.08547
   A12        2.09440  -0.00914   0.00000  -0.00785  -0.00787   2.08652
   A13        2.09439  -0.01526   0.00000  -0.01597  -0.01595   2.07845
   A14        2.09440   0.00814   0.00000   0.00931   0.00927   2.10367
   A15        2.09439  -0.00268   0.00000  -0.00333  -0.00331   2.09108
   A16        2.09439  -0.00546   0.00000  -0.00598  -0.00596   2.08844
    D1        0.00000  -0.00000   0.00000  -0.00000   0.00000   0.00000
    D2        3.14159  -0.00000   0.00000  -0.00000   0.00000   3.14159
    D3        3.14159   0.00000   0.00000   0.00000   0.00000   3.14159
    D4        0.00000  -0.00000   0.00000  -0.00000   0.00000   0.00000
    D5        0.00000   0.00000   0.00000   0.00000   0.00000   0.00000
    D6        3.14159   0.00000   0.00000   0.00000   0.00000   3.14159
    D7        3.14159  -0.00000   0.00000  -0.00000   0.00000   3.14159
    D8        0.00000  -0.00000   0.00000  -0.00000   0.00000   0.00000
    D9        0.00000  -0.00000   0.00000  -0.00000   0.00000   0.00000
   D10        3.14159  -0.00000   0.00000  -0.00000   0.00000   3.14159
   D11        3.14159   0.00000   0.00000   0.00000   0.00000   3.14159
   D12        0.00000   0.00000   0.00000   0.00000   0.00000   0.00000
   D13        0.00000   0.00000   0.00000   0.00000   0.00000   0.00000
   D14        3.14159  -0.00000   0.00000  -0.00000   0.00000   3.14159
   D15        3.14159   0.00000   0.00000   0.00000   0.00000   3.14159
   D16        0.00000   0.00000   0.00000   0.00000   0.00000   0.00000
   D17        0.00000   0.00000   0.00000   0.00000   0.00000   0.00000
   D18        3.14159   0.00000   0.00000   0.00000   0.00000   3.14159
   D19        0.00000  -0.00000   0.00000  -0.00000   0.00000   0.00000
   D20        3.14159  -0.00000   0.00000  -0.00000   0.00000   3.14159
         Item               Value     Threshold  Converged?
 Maximum Force            0.115834     0.000450     NO 
 RMS     Force            0.028080     0.000300     NO 
 Maximum Displacement     0.180021     0.001800     NO 
 RMS     Displacement     0.049784     0.001200     NO 
 Predicted change in Energy=-5.114801D-02
 GradGradGradGradGradGradGradGradGradGradGradGradGradGradGradGradGradGrad

                          Input orientation:                          
 ---------------------------------------------------------------------
 Center     Atomic      Atomic             Coordinates (Angstroms)
 Number     Number       Type             X           Y           Z
 ---------------------------------------------------------------------
      1          6           0       -3.189262    0.198683    0.000000
      2          6           0       -1.995760    0.932865    0.000000
      3          6           0       -0.774001    0.260412    0.000000
      4          6           0       -0.740222   -1.127171    0.000000
      5          6           0       -1.914520   -1.871171    0.000000
      6          6           0       -3.140909   -1.203726    0.000000
      7         17           0       -4.630683   -2.126879    0.000000
      8         17           0       -4.732035    1.033640    0.000000
      9          1           0        0.720877   -1.907128    0.000000
     10         17           0       -2.030920    2.685199    0.000000
     11          1           0        0.638535    1.127477    0.000000
 ---------------------------------------------------------------------
                    Distance matrix (angstroms):
                    1          2          3          4          5
     1  C    0.000000
     2  C    1.401239   0.000000
     3  C    2.416050   1.394593   0.000000
     4  C    2.784903   2.412493   1.387994   0.000000
     5  C    2.430897   2.805212   2.417525   1.390148   0.000000
     6  C    1.403242   2.424126   2.783156   2.401908   1.396250
     7  Cl   2.736044   4.037927   4.535765   4.016853   2.728174
     8  Cl   1.754225   2.738130   4.032855   4.539127   4.046767
     9  H    4.441129   3.930099   2.633038   1.656244   2.635642
    10  Cl   2.743086   1.752687   2.731197   4.024930   4.557856
    11  H    3.938868   2.641473   1.657425   2.642802   3.938270
                    6          7          8          9         10
     6  C    0.000000
     7  Cl   1.752609   0.000000
     8  Cl   2.745449   3.162144   0.000000
     9  H    3.925324   5.356070   6.195351   0.000000
    10  Cl   4.044232   5.469449   3.166018   5.353677   0.000000
    11  H    4.440574   6.193181   5.371389   3.035722   3.090710
                   11
    11  H    0.000000
 Stoichiometry    C6H2Cl3(1-)
 Framework group  CS[SG(C6H2Cl3)]
 Deg. of freedom    19
 Full point group                 CS      NOp   2
 Largest Abelian subgroup         CS      NOp   2
 Largest concise Abelian subgroup C1      NOp   1
                         Standard orientation:                         
 ---------------------------------------------------------------------
 Center     Atomic      Atomic             Coordinates (Angstroms)
 Number     Number       Type             X           Y           Z
 ---------------------------------------------------------------------
      1          6           0        0.000000   -0.253381    0.000000
      2          6           0       -1.120307    0.588273    0.000000
      3          6           0       -0.942078    1.971430    0.000000
      4          6           0        0.336707    2.511092    0.000000
      5          6           0        1.459116    1.690903    0.000000
      6          6           0        1.287243    0.305272    0.000000
      7         17           0        2.691905   -0.742852    0.000000
      8         17           0       -0.211863   -1.994765    0.000000
      9          1           0        0.527307    4.156332    0.000000
     10         17           0       -2.737991   -0.086271    0.000000
     11          1           0       -2.266259    2.968226    0.000000
 ---------------------------------------------------------------------
 Rotational constants (GHZ):           1.4791149           0.8416038           0.5363979
 Standard basis: VSTO-6G (5D, 7F)
 There are    29 symmetry adapted cartesian basis functions of A'  symmetry.
 There are     9 symmetry adapted cartesian basis functions of A"  symmetry.
 There are    29 symmetry adapted basis functions of A'  symmetry.
 There are     9 symmetry adapted basis functions of A"  symmetry.
    38 basis functions,   228 primitive gaussians,    38 cartesian basis functions
    24 alpha electrons       24 beta electrons
       nuclear repulsion energy       243.3779372191 Hartrees.
 Integral buffers will be    131072 words long.
 Regular integral format.
 Two-electron integral symmetry is turned off.
 Do NDO integrals.
 One-electron integrals computed using PRISM.
 NBasis=    38 RedAO= T EigKep=  1.00D+00  NBF=    29     9
 NBsUse=    38 1.00D-06 EigRej= -1.00D+00 NBFU=    29     9
 Initial guess from the checkpoint file:  "geometry_chks/12_5ClBzAnionIntermediate.chk"
 B after Tr=    -0.000000    0.000000    0.000000
         Rot=    0.998176    0.000000   -0.000000    0.060365 Ang=   6.92 deg.
 Initial guess orbital symmetries:
       Occupied  (A') (A') (A') (A') (A') (A') (A') (A') (A') (A')
                 (A') (A") (A') (A") (A") (A') (A') (A') (A') (A")
                 (A') (A") (A") (A')
       Virtual   (A') (A") (A') (A') (A") (A') (A') (A") (A') (A')
                 (A') (A') (A') (A')
 Keep J ints in memory in canonical form, NReq=863588.
 Overlap will be assumed to be unity.
 Requested convergence on RMS density matrix=1.00D-08 within**** cycles.
 Requested convergence on MAX density matrix=1.00D-06.
 Requested convergence on             energy=1.00D-06.
 No special actions if energy rises.
 Fock symm off for IB=2 I1=    1 I=   30 J=    7 Cut=1.00D-07 Err=1.26D-03
 Fock matrix is not symmetric: symmetry in diagonalization turned off.
 SCF Done:  E(RAM1) =  0.223450016588     A.U. after   14 cycles
            NFock= 13  Conv=0.31D-08     -V/T= 1.0020
 Calling FoFJK, ICntrl=      2127 FMM=F ISym2X=1 I1Cent= 0 IOpClX= 0 NMat=1 NMatS=1 NMatT=0.
 ***** Axes restored to original set *****
 -------------------------------------------------------------------
 Center     Atomic                   Forces (Hartrees/Bohr)
 Number     Number              X              Y              Z
 -------------------------------------------------------------------
      1        6          -0.021589799    0.005941377    0.000000000
      2        6           0.008996402    0.018301327    0.000000000
      3        6           0.094661962    0.035538201    0.000000000
      4        6           0.072714511   -0.031572190    0.000000000
      5        6           0.009257298    0.002187163   -0.000000000
      6        6           0.007152194   -0.008057475    0.000000000
      7       17           0.017465666    0.010347616   -0.000000000
      8       17           0.017944882   -0.007580341   -0.000000000
      9        1          -0.105997846    0.056959681   -0.000000000
     10       17           0.002454540   -0.021234026   -0.000000000
     11        1          -0.103059810   -0.060831333   -0.000000000
 -------------------------------------------------------------------
 Cartesian Forces:  Max     0.105997846 RMS     0.038012016

 GradGradGradGradGradGradGradGradGradGradGradGradGradGradGradGradGradGrad
 Berny optimization.
 Using GEDIIS/GDIIS optimizer.
 FormGI is forming the generalized inverse of G from B-inverse, IUseBI=4.
 Internal  Forces:  Max     0.120332200 RMS     0.026282081
 Search for a local minimum.
 Step number   2 out of a maximum of   57
 All quantities printed in internal units (Hartrees-Bohrs-Radians)
 Mixed Optimization -- RFO/linear search
 Update second derivatives using D2CorX and points    1    2
 DE= -5.45D-02 DEPred=-5.11D-02 R= 1.07D+00
 TightC=F SS=  1.41D+00  RLast= 3.00D-01 DXNew= 5.0454D-01 9.0000D-01
 Trust test= 1.07D+00 RLast= 3.00D-01 DXMaxT set to 5.05D-01
 ITU=  1  0
 Use linear search instead of GDIIS.
 Linear search step of   0.600 exceeds DXMaxT=   0.505 but not scaled.
 Quartic linear search produced a step of  2.00000.
 Iteration  1 RMS(Cart)=  0.06161621 RMS(Int)=  0.04349661
 Iteration  2 RMS(Cart)=  0.03822671 RMS(Int)=  0.00229046
 Iteration  3 RMS(Cart)=  0.00212736 RMS(Int)=  0.00012130
 Iteration  4 RMS(Cart)=  0.00000006 RMS(Int)=  0.00012130
 ClnCor:  largest displacement from symmetrization is 8.44D-15 for atom     9.
 Variable       Old X    -DE/DX   Delta X   Delta X   Delta X     New X
                                 (Linear)    (Quad)   (Total)
    R1        2.64796  -0.00397  -0.01761   0.00000  -0.01775   2.63021
    R2        2.65174  -0.00157  -0.01005   0.00000  -0.01025   2.64150
    R3        3.31500  -0.01939  -0.04269   0.00000  -0.04269   3.27231
    R4        2.63540  -0.01532  -0.04274   0.00000  -0.04267   2.59272
    R5        3.31210  -0.02128  -0.04848   0.00000  -0.04848   3.26361
    R6        2.62293  -0.02819  -0.06768   0.00000  -0.06748   2.55545
    R7        3.13208  -0.11966  -0.40851   0.00000  -0.40851   2.72357
    R8        2.62700  -0.02311  -0.05956   0.00000  -0.05941   2.56759
    R9        3.12985  -0.12033  -0.41297   0.00000  -0.41297   2.71688
   R10        2.63853  -0.01423  -0.03644   0.00000  -0.03650   2.60203
   R11        3.31195  -0.02030  -0.04876   0.00000  -0.04876   3.26319
    A1        2.08782  -0.00630  -0.01316   0.00000  -0.01351   2.07431
    A2        2.09404   0.00004  -0.00070   0.00000  -0.00053   2.09351
    A3        2.10133   0.00626   0.01386   0.00000   0.01403   2.11536
    A4        2.08696  -0.00587  -0.01487   0.00000  -0.01496   2.07201
    A5        2.10222   0.00629   0.01564   0.00000   0.01569   2.11791
    A6        2.09401  -0.00042  -0.00077   0.00000  -0.00073   2.09328
    A7        2.09828   0.00356   0.00777   0.00000   0.00802   2.10631
    A8        2.08791  -0.00502  -0.01296   0.00000  -0.01309   2.07483
    A9        2.09699   0.00146   0.00519   0.00000   0.00507   2.10205
   A10        2.11120   0.01312   0.03361   0.00000   0.03394   2.14513
   A11        2.08547  -0.00708  -0.01786   0.00000  -0.01803   2.06744
   A12        2.08652  -0.00604  -0.01575   0.00000  -0.01591   2.07061
   A13        2.07845  -0.01114  -0.03189   0.00000  -0.03177   2.04667
   A14        2.10367   0.00663   0.01853   0.00000   0.01828   2.12194
   A15        2.09108  -0.00265  -0.00662   0.00000  -0.00649   2.08459
   A16        2.08844  -0.00399  -0.01191   0.00000  -0.01178   2.07665
    D1        0.00000  -0.00000   0.00000   0.00000   0.00000   0.00000
    D2        3.14159  -0.00000   0.00000   0.00000   0.00000   3.14159
    D3        3.14159   0.00000   0.00000   0.00000   0.00000   3.14159
    D4        0.00000  -0.00000   0.00000   0.00000   0.00000   0.00000
    D5        0.00000  -0.00000   0.00000   0.00000   0.00000   0.00000
    D6        3.14159   0.00000   0.00000   0.00000   0.00000   3.14159
    D7        3.14159  -0.00000   0.00000   0.00000   0.00000   3.14159
    D8        0.00000  -0.00000   0.00000   0.00000   0.00000   0.00000
    D9        0.00000   0.00000   0.00000   0.00000   0.00000   0.00000
   D10        3.14159  -0.00000   0.00000   0.00000   0.00000   3.14159
   D11        3.14159   0.00000   0.00000   0.00000   0.00000   3.14159
   D12        0.00000   0.00000   0.00000   0.00000   0.00000   0.00000
   D13        0.00000   0.00000   0.00000   0.00000   0.00000   0.00000
   D14        3.14159  -0.00000   0.00000   0.00000   0.00000   3.14159
   D15        3.14159   0.00000   0.00000   0.00000   0.00000   3.14159
   D16        0.00000   0.00000   0.00000   0.00000   0.00000   0.00000
   D17        0.00000  -0.00000   0.00000   0.00000   0.00000   0.00000
   D18        3.14159   0.00000   0.00000   0.00000   0.00000   3.14159
   D19        0.00000   0.00000   0.00000   0.00000   0.00000   0.00000
   D20        3.14159  -0.00000   0.00000   0.00000   0.00000   3.14159
         Item               Value     Threshold  Converged?
 Maximum Force            0.120332     0.000450     NO 
 RMS     Force            0.026282     0.000300     NO 
 Maximum Displacement     0.362369     0.001800     NO 
 RMS     Displacement     0.099504     0.001200     NO 
 Predicted change in Energy=-1.054239D-01
 GradGradGradGradGradGradGradGradGradGradGradGradGradGradGradGradGradGrad

                          Input orientation:                          
 ---------------------------------------------------------------------
 Center     Atomic      Atomic             Coordinates (Angstroms)
 Number     Number       Type             X           Y           Z
 ---------------------------------------------------------------------
      1          6           0       -3.149234    0.197246    0.000000
      2          6           0       -1.964337    0.927486    0.000000
      3          6           0       -0.771827    0.249007    0.000000
      4          6           0       -0.747173   -1.103055    0.000000
      5          6           0       -1.874233   -1.861885    0.000000
      6          6           0       -3.081053   -1.198910    0.000000
      7         17           0       -4.541716   -2.119950    0.000000
      8         17           0       -4.672384    1.020999    0.000000
      9          1           0        0.529120   -1.764934    0.000000
     10         17           0       -1.973321    2.654493    0.000000
     11          1           0        0.457259    1.001703    0.000000
 ---------------------------------------------------------------------
                    Distance matrix (angstroms):
                    1          2          3          4          5
     1  C    0.000000
     2  C    1.391845   0.000000
     3  C    2.377970   1.372011   0.000000
     4  C    2.731424   2.367400   1.352286   0.000000
     5  C    2.421910   2.790827   2.381421   1.358708   0.000000
     6  C    1.397820   2.401794   2.725616   2.335847   1.376935
     7  Cl   2.703406   3.991209   4.452417   3.928439   2.679937
     8  Cl   1.731633   2.709661   3.976219   4.463058   4.017545
     9  H    4.168985   3.669666   2.397586   1.437709   2.405308
    10  Cl   2.724120   1.727030   2.688857   3.952544   4.517465
    11  H    3.695124   2.422733   1.441251   2.425008   3.692695
                    6          7          8          9         10
     6  C    0.000000
     7  Cl   1.726804   0.000000
     8  Cl   2.731360   3.143665   0.000000
     9  H    3.654275   5.083248   5.900598   0.000000
    10  Cl   4.009461   5.421435   3.154876   5.078734   0.000000
    11  H    4.166815   5.893596   5.129679   2.767569   2.939292
                   11
    11  H    0.000000
 Stoichiometry    C6H2Cl3(1-)
 Framework group  CS[SG(C6H2Cl3)]
 Deg. of freedom    19
 Full point group                 CS      NOp   2
 Largest Abelian subgroup         CS      NOp   2
 Largest concise Abelian subgroup C1      NOp   1
                         Standard orientation:                         
 ---------------------------------------------------------------------
 Center     Atomic      Atomic             Coordinates (Angstroms)
 Number     Number       Type             X           Y           Z
 ---------------------------------------------------------------------
      1          6           0        0.000000   -0.260816    0.000000
      2          6           0       -1.117826    0.568459    0.000000
      3          6           0       -0.930360    1.927602    0.000000
      4          6           0        0.315996    2.452268    0.000000
      5          6           0        1.438907    1.687311    0.000000
      6          6           0        1.271148    0.320634    0.000000
      7         17           0        2.668490   -0.693905    0.000000
      8         17           0       -0.199658   -1.980900    0.000000
      9          1           0        0.456953    3.883051    0.000000
     10         17           0       -2.718166   -0.080805    0.000000
     11          1           0       -2.085438    2.789576    0.000000
 ---------------------------------------------------------------------
 Rotational constants (GHZ):           1.5342836           0.8588232           0.5506141
 Standard basis: VSTO-6G (5D, 7F)
 There are    29 symmetry adapted cartesian basis functions of A'  symmetry.
 There are     9 symmetry adapted cartesian basis functions of A"  symmetry.
 There are    29 symmetry adapted basis functions of A'  symmetry.
 There are     9 symmetry adapted basis functions of A"  symmetry.
    38 basis functions,   228 primitive gaussians,    38 cartesian basis functions
    24 alpha electrons       24 beta electrons
       nuclear repulsion energy       246.0304991520 Hartrees.
 Integral buffers will be    131072 words long.
 Regular integral format.
 Two-electron integral symmetry is turned off.
 Do NDO integrals.
 One-electron integrals computed using PRISM.
 NBasis=    38 RedAO= T EigKep=  1.00D+00  NBF=    29     9
 NBsUse=    38 1.00D-06 EigRej= -1.00D+00 NBFU=    29     9
 Initial guess from the checkpoint file:  "geometry_chks/12_5ClBzAnionIntermediate.chk"
 B after Tr=     0.000000   -0.000000    0.000000
         Rot=    0.999995   -0.000000   -0.000000   -0.003026 Ang=  -0.35 deg.
 Initial guess orbital symmetries:
       Occupied  (A') (A') (A') (A') (A') (A') (A') (A') (A') (A')
                 (A') (A") (A') (A") (A") (A') (A') (A') (A") (A')
                 (A') (A") (A") (A')
       Virtual   (A') (A") (A') (A") (A') (A') (A') (A") (A') (A')
                 (A') (A') (A') (A')
 Keep J ints in memory in canonical form, NReq=863588.
 Overlap will be assumed to be unity.
 Requested convergence on RMS density matrix=1.00D-08 within**** cycles.
 Requested convergence on MAX density matrix=1.00D-06.
 Requested convergence on             energy=1.00D-06.
 No special actions if energy rises.
 Fock symm off for IB=2 I1=    1 I=   30 J=    5 Cut=1.00D-07 Err=3.06D-03
 Fock matrix is not symmetric: symmetry in diagonalization turned off.
 SCF Done:  E(RAM1) =  0.124357496406     A.U. after   14 cycles
            NFock= 13  Conv=0.52D-08     -V/T= 1.0011
 Calling FoFJK, ICntrl=      2127 FMM=F ISym2X=1 I1Cent= 0 IOpClX= 0 NMat=1 NMatS=1 NMatT=0.
 ***** Axes restored to original set *****
 -------------------------------------------------------------------
 Center     Atomic                   Forces (Hartrees/Bohr)
 Number     Number              X              Y              Z
 -------------------------------------------------------------------
      1        6          -0.026700135    0.006378890    0.000000000
      2        6          -0.008276652    0.029591335    0.000000000
      3        6           0.120574300    0.074993124   -0.000000000
      4        6           0.121557689   -0.065570910    0.000000000
      5        6          -0.009479764   -0.025644228    0.000000000
      6        6          -0.014259014   -0.006610231   -0.000000000
      7       17           0.002110712    0.001994115   -0.000000000
      8       17           0.007270819   -0.002895962   -0.000000000
      9        1          -0.097722048    0.051082313   -0.000000000
     10       17           0.000654783   -0.006225997   -0.000000000
     11        1          -0.095730691   -0.057092450   -0.000000000
 -------------------------------------------------------------------
 Cartesian Forces:  Max     0.121557689 RMS     0.044931591

 GradGradGradGradGradGradGradGradGradGradGradGradGradGradGradGradGradGrad
 Berny optimization.
 Using GEDIIS/GDIIS optimizer.
 FormGI is forming the generalized inverse of G from B-inverse, IUseBI=4.
 Internal  Forces:  Max     0.111454938 RMS     0.024468814
 Search for a local minimum.
 Step number   3 out of a maximum of   57
 All quantities printed in internal units (Hartrees-Bohrs-Radians)
 Mixed Optimization -- RFO/linear search
 Update second derivatives using D2CorX and points    2    3
 ITU=  0  1  0
 Use linear search instead of GDIIS.
 Linear search step of   0.766 exceeds DXMaxT=   0.505 but not scaled.
 Quartic linear search produced a step of  1.27601.
 Iteration  1 RMS(Cart)=  0.06919954 RMS(Int)=  0.06689360
 Iteration  2 RMS(Cart)=  0.03817417 RMS(Int)=  0.02564091
 Iteration  3 RMS(Cart)=  0.02375337 RMS(Int)=  0.00024261
 Iteration  4 RMS(Cart)=  0.00001257 RMS(Int)=  0.00024238
 Iteration  5 RMS(Cart)=  0.00000000 RMS(Int)=  0.00024238
 ClnCor:  largest displacement from symmetrization is 6.97D-15 for atom     9.
 Variable       Old X    -DE/DX   Delta X   Delta X   Delta X     New X
                                 (Linear)    (Quad)   (Total)
    R1        2.63021   0.02026  -0.02265   0.00000  -0.02293   2.60728
    R2        2.64150   0.01542  -0.01307   0.00000  -0.01348   2.62802
    R3        3.27231  -0.00777  -0.05447   0.00000  -0.05447   3.21784
    R4        2.59272   0.02669  -0.05445   0.00000  -0.05431   2.53842
    R5        3.26361  -0.00623  -0.06187   0.00000  -0.06187   3.20175
    R6        2.55545   0.02944  -0.08610   0.00000  -0.08569   2.46976
    R7        2.72357  -0.11145  -0.52126   0.00000  -0.52126   2.20231
    R8        2.56759   0.02871  -0.07581   0.00000  -0.07551   2.49208
    R9        2.71688  -0.11027  -0.52696   0.00000  -0.52696   2.18992
   R10        2.60203   0.01834  -0.04657   0.00000  -0.04671   2.55532
   R11        3.26319  -0.00285  -0.06222   0.00000  -0.06222   3.20096
    A1        2.07431   0.00156  -0.01723   0.00000  -0.01793   2.05638
    A2        2.09351  -0.00227  -0.00068   0.00000  -0.00033   2.09319
    A3        2.11536   0.00071   0.01791   0.00000   0.01826   2.13362
    A4        2.07201   0.00080  -0.01908   0.00000  -0.01924   2.05277
    A5        2.11791   0.00062   0.02002   0.00000   0.02009   2.13800
    A6        2.09328  -0.00141  -0.00093   0.00000  -0.00085   2.09242
    A7        2.10631  -0.00299   0.01024   0.00000   0.01074   2.11705
    A8        2.07483  -0.00029  -0.01670   0.00000  -0.01695   2.05787
    A9        2.10205   0.00328   0.00646   0.00000   0.00621   2.10826
   A10        2.14513  -0.00239   0.04330   0.00000   0.04394   2.18907
   A11        2.06744   0.00071  -0.02300   0.00000  -0.02332   2.04412
   A12        2.07061   0.00168  -0.02030   0.00000  -0.02062   2.04999
   A13        2.04667  -0.00075  -0.04054   0.00000  -0.04031   2.00636
   A14        2.12194   0.00377   0.02332   0.00000   0.02280   2.14474
   A15        2.08459  -0.00280  -0.00828   0.00000  -0.00802   2.07656
   A16        2.07665  -0.00097  -0.01503   0.00000  -0.01477   2.06188
    D1        0.00000   0.00000   0.00000   0.00000   0.00000   0.00000
    D2        3.14159  -0.00000   0.00000   0.00000   0.00000   3.14159
    D3        3.14159   0.00000   0.00000   0.00000   0.00000   3.14159
    D4        0.00000  -0.00000   0.00000   0.00000   0.00000   0.00000
    D5        0.00000   0.00000   0.00000   0.00000   0.00000   0.00000
    D6        3.14159   0.00000   0.00000   0.00000   0.00000   3.14159
    D7        3.14159  -0.00000   0.00000   0.00000   0.00000   3.14159
    D8        0.00000  -0.00000   0.00000   0.00000   0.00000   0.00000
    D9        0.00000  -0.00000   0.00000   0.00000   0.00000   0.00000
   D10        3.14159  -0.00000   0.00000   0.00000   0.00000   3.14159
   D11        3.14159   0.00000   0.00000   0.00000   0.00000   3.14159
   D12        0.00000  -0.00000   0.00000   0.00000   0.00000   0.00000
   D13        0.00000   0.00000   0.00000   0.00000   0.00000   0.00000
   D14        3.14159  -0.00000   0.00000   0.00000   0.00000   3.14159
   D15        3.14159   0.00000   0.00000   0.00000   0.00000   3.14159
   D16        0.00000  -0.00000   0.00000   0.00000   0.00000   0.00000
   D17        0.00000   0.00000   0.00000   0.00000   0.00000   0.00000
   D18        3.14159   0.00000   0.00000   0.00000   0.00000   3.14159
   D19        0.00000  -0.00000   0.00000   0.00000   0.00000   0.00000
   D20        3.14159  -0.00000   0.00000   0.00000   0.00000   3.14159
         Item               Value     Threshold  Converged?
 Maximum Force            0.111455     0.000450     NO 
 RMS     Force            0.024469     0.000300     NO 
 Maximum Displacement     0.466886     0.001800     NO 
 RMS     Displacement     0.126829     0.001200     NO 
 Predicted change in Energy=-9.173370D-02
 GradGradGradGradGradGradGradGradGradGradGradGradGradGradGradGradGradGrad

                          Input orientation:                          
 ---------------------------------------------------------------------
 Center     Atomic      Atomic             Coordinates (Angstroms)
 Number     Number       Type             X           Y           Z
 ---------------------------------------------------------------------
      1          6           0       -3.098192    0.195516    0.000000
      2          6           0       -1.924385    0.920623    0.000000
      3          6           0       -0.769128    0.235228    0.000000
      4          6           0       -0.755032   -1.071637    0.000000
      5          6           0       -1.821347   -1.847573    0.000000
      6          6           0       -3.004008   -1.191977    0.000000
      7         17           0       -4.426834   -2.111098    0.000000
      8         17           0       -4.596571    1.004473    0.000000
      9          1           0        0.282054   -1.588743    0.000000
     10         17           0       -1.900934    2.614752    0.000000
     11          1           0        0.225476    0.842637    0.000000
 ---------------------------------------------------------------------
                    Distance matrix (angstroms):
                    1          2          3          4          5
     1  C    0.000000
     2  C    1.379711   0.000000
     3  C    2.329402   1.343274   0.000000
     4  C    2.663846   2.310083   1.306941   0.000000
     5  C    2.409262   2.770112   2.333500   1.318751   0.000000
     6  C    1.390686   2.372480   2.651717   2.252193   1.352217
     7  Cl   2.661909   3.931104   4.345579   3.816099   2.618780
     8  Cl   1.702807   2.673501   3.903980   4.366652   3.979451
     9  H    3.822257   3.341451   2.105197   1.158856   2.119266
    10  Cl   2.699283   1.694291   2.634980   3.860382   4.463034
    11  H    3.386080   2.151275   1.165411   2.150777   3.380342
                    6          7          8          9         10
     6  C    0.000000
     7  Cl   1.693877   0.000000
     8  Cl   2.713052   3.120190   0.000000
     9  H    3.309929   4.737772   5.525012   0.000000
    10  Cl   3.963326   5.358528   3.139978   4.736540   0.000000
    11  H    3.816965   5.510766   4.824762   2.432038   2.768034
                   11
    11  H    0.000000
 Stoichiometry    C6H2Cl3(1-)
 Framework group  CS[SG(C6H2Cl3)]
 Deg. of freedom    19
 Full point group                 CS      NOp   2
 Largest Abelian subgroup         CS      NOp   2
 Largest concise Abelian subgroup C1      NOp   1
                         Standard orientation:                         
 ---------------------------------------------------------------------
 Center     Atomic      Atomic             Coordinates (Angstroms)
 Number     Number       Type             X           Y           Z
 ---------------------------------------------------------------------
      1          6           0       -0.000000   -0.270488    0.000000
      2          6           0       -1.113842    0.543735    0.000000
      3          6           0       -0.914084    1.872073    0.000000
      4          6           0        0.291216    2.377392    0.000000
      5          6           0        1.411653    1.681890    0.000000
      6          6           0        1.249822    0.339392    0.000000
      7         17           0        2.637187   -0.632430    0.000000
      8         17           0       -0.184974   -1.963218    0.000000
      9          1           0        0.379592    3.532874    0.000000
     10         17           0       -2.692025   -0.072675    0.000000
     11          1           0       -1.851396    2.564626    0.000000
 ---------------------------------------------------------------------
 Rotational constants (GHZ):           1.6079957           0.8818677           0.5695250
 Standard basis: VSTO-6G (5D, 7F)
 There are    29 symmetry adapted cartesian basis functions of A'  symmetry.
 There are     9 symmetry adapted cartesian basis functions of A"  symmetry.
 There are    29 symmetry adapted basis functions of A'  symmetry.
 There are     9 symmetry adapted basis functions of A"  symmetry.
    38 basis functions,   228 primitive gaussians,    38 cartesian basis functions
    24 alpha electrons       24 beta electrons
       nuclear repulsion energy       249.7098719709 Hartrees.
 Integral buffers will be    131072 words long.
 Regular integral format.
 Two-electron integral symmetry is turned off.
 Do NDO integrals.
 One-electron integrals computed using PRISM.
 NBasis=    38 RedAO= T EigKep=  1.00D+00  NBF=    29     9
 NBsUse=    38 1.00D-06 EigRej= -1.00D+00 NBFU=    29     9
 Initial guess from the checkpoint file:  "geometry_chks/12_5ClBzAnionIntermediate.chk"
 B after Tr=     0.000000   -0.000000    0.000000
         Rot=    0.999993   -0.000000   -0.000000   -0.003718 Ang=  -0.43 deg.
 Initial guess orbital symmetries:
       Occupied  (A') (A') (A') (A') (A') (A') (A') (A') (A') (A')
                 (A') (A") (A') (A") (A') (A") (A') (A') (A") (A')
                 (A') (A") (A") (A')
       Virtual   (A") (A') (A") (A') (A') (A') (A') (A") (A') (A')
                 (A') (A') (A') (A')
 Keep J ints in memory in canonical form, NReq=863588.
 Overlap will be assumed to be unity.
 Requested convergence on RMS density matrix=1.00D-08 within**** cycles.
 Requested convergence on MAX density matrix=1.00D-06.
 Requested convergence on             energy=1.00D-06.
 No special actions if energy rises.
 Fock symm off for IB=2 I1=    1 I=   30 J=    1 Cut=1.00D-07 Err=6.11D-03
 Fock matrix is not symmetric: symmetry in diagonalization turned off.
 SCF Done:  E(RAM1) =  0.620913600701E-01 A.U. after   14 cycles
            NFock= 13  Conv=0.60D-08     -V/T= 1.0005
 Calling FoFJK, ICntrl=      2127 FMM=F ISym2X=1 I1Cent= 0 IOpClX= 0 NMat=1 NMatS=1 NMatT=0.
 ***** Axes restored to original set *****
 -------------------------------------------------------------------
 Center     Atomic                   Forces (Hartrees/Bohr)
 Number     Number              X              Y              Z
 -------------------------------------------------------------------
      1        6          -0.034324038    0.007143642    0.000000000
      2        6          -0.039958832    0.047870217    0.000000000
      3        6           0.105766521    0.110332366    0.000000000
      4        6           0.134858703   -0.093247756   -0.000000000
      5        6          -0.041672722   -0.071034928   -0.000000000
      6        6          -0.045818856   -0.004322823    0.000000000
      7       17          -0.020007437   -0.010553181   -0.000000000
      8       17          -0.008091479    0.003778769   -0.000000000
      9        1          -0.022506125    0.010981920   -0.000000000
     10       17          -0.001608741    0.016085295   -0.000000000
     11        1          -0.026636993   -0.017033520   -0.000000000
 -------------------------------------------------------------------
 Cartesian Forces:  Max     0.134858703 RMS     0.044971173

 GradGradGradGradGradGradGradGradGradGradGradGradGradGradGradGradGradGrad
 Berny optimization.
 Using GEDIIS/GDIIS optimizer.
 FormGI is forming the generalized inverse of G from B-inverse, IUseBI=4.
 Internal  Forces:  Max     0.127222953 RMS     0.033005123
 Search for a local minimum.
 Step number   4 out of a maximum of   57
 All quantities printed in internal units (Hartrees-Bohrs-Radians)
 Mixed Optimization -- RFO/linear search
 Update second derivatives using D2CorX and points    3    4
 ITU=  0  0  1  0
 Use linear search instead of GDIIS.
     Eigenvalues ---    0.02011   0.02011   0.02011   0.02011   0.02011
     Eigenvalues ---    0.02011   0.02011   0.02011   0.06518   0.11246
     Eigenvalues ---    0.15996   0.16001   0.22395   0.24634   0.24946
     Eigenvalues ---    0.25000   0.25000   0.25022   0.28334   0.29033
     Eigenvalues ---    0.29057   0.41081   0.41514   0.44643   0.44656
     Eigenvalues ---    0.44657   0.61297
 RFO step:  Lambda=-9.80432022D-02 EMin= 2.01067218D-02
 Quartic linear search produced a step of -0.03346.
 Maximum step size (   0.505) exceeded in Quadratic search.
    -- Step size scaled by   0.962
 Iteration  1 RMS(Cart)=  0.06412575 RMS(Int)=  0.00763029
 Iteration  2 RMS(Cart)=  0.00681600 RMS(Int)=  0.00059007
 Iteration  3 RMS(Cart)=  0.00001806 RMS(Int)=  0.00058991
 Iteration  4 RMS(Cart)=  0.00000000 RMS(Int)=  0.00058991
 ClnCor:  largest displacement from symmetrization is 9.55D-09 for atom     7.
 Variable       Old X    -DE/DX   Delta X   Delta X   Delta X     New X
                                 (Linear)    (Quad)   (Total)
    R1        2.60728   0.05595   0.00077   0.08526   0.08545   2.69273
    R2        2.62802   0.04063   0.00045   0.05911   0.05860   2.68661
    R3        3.21784   0.00892   0.00182   0.01896   0.02078   3.23862
    R4        2.53842   0.09357   0.00182   0.14871   0.15093   2.68935
    R5        3.20175   0.01606   0.00207   0.03448   0.03655   3.23830
    R6        2.46976   0.12722   0.00287   0.20293   0.20677   2.67653
    R7        2.20231  -0.03161   0.01744  -0.26497  -0.24753   1.95478
    R8        2.49208   0.10948   0.00253   0.17511   0.17822   2.67030
    R9        2.18992  -0.02504   0.01763  -0.23276  -0.21512   1.97480
   R10        2.55532   0.06612   0.00156   0.10231   0.10346   2.65878
   R11        3.20096   0.02253   0.00208   0.04891   0.05099   3.25195
    A1        2.05638   0.01621   0.00060   0.02497   0.02396   2.08034
    A2        2.09319  -0.00727   0.00001  -0.01063  -0.00981   2.08337
    A3        2.13362  -0.00894  -0.00061  -0.01434  -0.01415   2.11947
    A4        2.05277   0.01223   0.00064   0.02807   0.02851   2.08128
    A5        2.13800  -0.00904  -0.00067  -0.02086  -0.02143   2.11657
    A6        2.09242  -0.00318   0.00003  -0.00722  -0.00709   2.08533
    A7        2.11705  -0.01662  -0.00036  -0.02873  -0.02770   2.08935
    A8        2.05787   0.00903   0.00057   0.01600   0.01587   2.07375
    A9        2.10826   0.00759  -0.00021   0.01273   0.01183   2.12009
   A10        2.18907  -0.02953  -0.00147  -0.06049  -0.06041   2.12866
   A11        2.04412   0.01500   0.00078   0.03067   0.03067   2.07479
   A12        2.04999   0.01453   0.00069   0.02983   0.02974   2.07973
   A13        2.00636   0.01623   0.00135   0.04348   0.04509   2.05145
   A14        2.14474   0.00149  -0.00076  -0.00730  -0.00946   2.13529
   A15        2.07656  -0.00393   0.00027  -0.00416  -0.00319   2.07337
   A16        2.06188   0.00244   0.00049   0.01146   0.01265   2.07453
    D1        0.00000  -0.00000   0.00000   0.00000   0.00000   0.00000
    D2        3.14159  -0.00000   0.00000  -0.00000   0.00000   3.14159
    D3        3.14159   0.00000   0.00000   0.00000   0.00000   3.14159
    D4        0.00000  -0.00000   0.00000  -0.00000   0.00000   0.00000
    D5        0.00000   0.00000   0.00000   0.00000   0.00000   0.00000
    D6        3.14159   0.00000   0.00000   0.00000   0.00000   3.14159
    D7        3.14159  -0.00000   0.00000  -0.00000   0.00000   3.14159
    D8        0.00000  -0.00000   0.00000  -0.00000   0.00000   0.00000
    D9        0.00000  -0.00000   0.00000  -0.00000   0.00000   0.00000
   D10        3.14159  -0.00000   0.00000  -0.00000   0.00000   3.14159
   D11        3.14159   0.00000   0.00000   0.00000   0.00000   3.14159
   D12        0.00000   0.00000   0.00000  -0.00000   0.00000   0.00000
   D13        0.00000   0.00000   0.00000   0.00000   0.00000   0.00000
   D14        3.14159  -0.00000   0.00000  -0.00000   0.00000   3.14159
   D15        3.14159   0.00000   0.00000   0.00000   0.00000   3.14159
   D16        0.00000   0.00000   0.00000   0.00000   0.00000   0.00000
   D17        0.00000   0.00000   0.00000   0.00000   0.00000   0.00000
   D18        3.14159   0.00000   0.00000   0.00000   0.00000   3.14159
   D19        0.00000  -0.00000   0.00000  -0.00000   0.00000   0.00000
   D20        3.14159  -0.00000   0.00000  -0.00000   0.00000   3.14159
         Item               Value     Threshold  Converged?
 Maximum Force            0.127223     0.000450     NO 
 RMS     Force            0.033005     0.000300     NO 
 Maximum Displacement     0.225633     0.001800     NO 
 RMS     Displacement     0.064120     0.001200     NO 
 Predicted change in Energy=-6.074262D-02
 GradGradGradGradGradGradGradGradGradGradGradGradGradGradGradGradGradGrad

                          Input orientation:                          
 ---------------------------------------------------------------------
 Center     Atomic      Atomic             Coordinates (Angstroms)
 Number     Number       Type             X           Y           Z
 ---------------------------------------------------------------------
      1          6           0       -3.121232    0.203920    0.000000
      2          6           0       -1.916096    0.964230    0.000000
      3          6           0       -0.665462    0.285078    0.000000
      4          6           0       -0.635633   -1.130966    0.000000
      5          6           0       -1.818435   -1.904093    0.000000
      6          6           0       -3.045522   -1.215757    0.000000
      7         17           0       -4.507306   -2.123803    0.000000
      8         17           0       -4.629002    1.018630    0.000000
      9          1           0        0.289875   -1.616249    0.000000
     10         17           0       -1.945308    2.677613    0.000000
     11          1           0        0.205221    0.843597    0.000000
 ---------------------------------------------------------------------
                    Distance matrix (angstroms):
                    1          2          3          4          5
     1  C    0.000000
     2  C    1.424929   0.000000
     3  C    2.457111   1.423141   0.000000
     4  C    2.821370   2.455490   1.416358   0.000000
     5  C    2.478104   2.869985   2.474231   1.413063   0.000000
     6  C    1.421695   2.455188   2.813751   2.411381   1.406965
     7  Cl   2.709151   4.031168   4.534587   3.996947   2.697832
     8  Cl   1.713803   2.713452   4.030849   4.535169   4.054824
     9  H    3.866350   3.394875   2.127842   1.045018   2.127869
    10  Cl   2.738969   1.713632   2.713343   4.027471   4.583462
    11  H    3.387400   2.124744   1.034424   2.146144   3.412475
                    6          7          8          9         10
     6  C    0.000000
     7  Cl   1.720860   0.000000
     8  Cl   2.738593   3.144789   0.000000
     9  H    3.359355   4.823956   5.580138   0.000000
    10  Cl   4.045837   5.442190   3.155065   4.840795   0.000000
    11  H    3.848152   5.568965   4.837391   2.461302   2.826374
                   11
    11  H    0.000000
 Stoichiometry    C6H2Cl3(1-)
 Framework group  CS[SG(C6H2Cl3)]
 Deg. of freedom    19
 Full point group                 CS      NOp   2
 Largest Abelian subgroup         CS      NOp   2
 Largest concise Abelian subgroup C1      NOp   1
                         Standard orientation:                         
 ---------------------------------------------------------------------
 Center     Atomic      Atomic             Coordinates (Angstroms)
 Number     Number       Type             X           Y           Z
 ---------------------------------------------------------------------
      1          6           0        0.000000   -0.274093    0.000000
      2          6           0       -1.150391    0.566755    0.000000
      3          6           0       -0.979040    1.979543    0.000000
      4          6           0        0.326692    2.528299    0.000000
      5          6           0        1.480784    1.712935    0.000000
      6          6           0        1.292230    0.318662    0.000000
      7         17           0        2.674425   -0.706471    0.000000
      8         17           0       -0.202788   -1.975856    0.000000
      9          1           0        0.437401    3.567436    0.000000
     10         17           0       -2.732831   -0.090831    0.000000
     11          1           0       -1.818738    2.583646    0.000000
 ---------------------------------------------------------------------
 Rotational constants (GHZ):           1.5120088           0.8489451           0.5436838
 Standard basis: VSTO-6G (5D, 7F)
 There are    29 symmetry adapted cartesian basis functions of A'  symmetry.
 There are     9 symmetry adapted cartesian basis functions of A"  symmetry.
 There are    29 symmetry adapted basis functions of A'  symmetry.
 There are     9 symmetry adapted basis functions of A"  symmetry.
    38 basis functions,   228 primitive gaussians,    38 cartesian basis functions
    24 alpha electrons       24 beta electrons
       nuclear repulsion energy       245.7268949541 Hartrees.
 Integral buffers will be    131072 words long.
 Regular integral format.
 Two-electron integral symmetry is turned off.
 Do NDO integrals.
 One-electron integrals computed using PRISM.
 NBasis=    38 RedAO= T EigKep=  1.00D+00  NBF=    29     9
 NBsUse=    38 1.00D-06 EigRej= -1.00D+00 NBFU=    29     9
 Initial guess from the checkpoint file:  "geometry_chks/12_5ClBzAnionIntermediate.chk"
 B after Tr=    -0.000000    0.000000    0.000000
         Rot=    0.999991    0.000000    0.000000    0.004181 Ang=   0.48 deg.
 Initial guess orbital symmetries:
       Occupied  (A') (A') (A') (A') (A') (A') (A') (A') (A') (A')
                 (A') (A") (A') (A') (A") (A") (A') (A') (A") (A')
                 (A') (A") (A") (A')
       Virtual   (A") (A') (A") (A') (A') (A') (A") (A') (A') (A')
                 (A') (A') (A') (A')
 Keep J ints in memory in canonical form, NReq=863588.
 Overlap will be assumed to be unity.
 Requested convergence on RMS density matrix=1.00D-08 within**** cycles.
 Requested convergence on MAX density matrix=1.00D-06.
 Requested convergence on             energy=1.00D-06.
 No special actions if energy rises.
 Fock symm off for IB=2 I1=    1 I=   30 J=   23 Cut=1.00D-07 Err=2.02D-03
 Fock matrix is not symmetric: symmetry in diagonalization turned off.
 SCF Done:  E(RAM1) =  0.375362158042E-01 A.U. after   15 cycles
            NFock= 14  Conv=0.28D-08     -V/T= 1.0003
 Calling FoFJK, ICntrl=      2127 FMM=F ISym2X=1 I1Cent= 0 IOpClX= 0 NMat=1 NMatS=1 NMatT=0.
 ***** Axes restored to original set *****
 -------------------------------------------------------------------
 Center     Atomic                   Forces (Hartrees/Bohr)
 Number     Number              X              Y              Z
 -------------------------------------------------------------------
      1        6           0.021313902   -0.006794199    0.000000000
      2        6          -0.001816632   -0.034095413    0.000000000
      3        6          -0.062652997   -0.035095923    0.000000000
      4        6          -0.056867909    0.033173950    0.000000000
      5        6          -0.001739322    0.022294875    0.000000000
      6        6           0.020304458    0.015063792   -0.000000000
      7       17           0.002770344    0.001431842   -0.000000000
      8       17           0.001369425   -0.000266650   -0.000000000
      9        1           0.035025969   -0.018435269   -0.000000000
     10       17           0.000498349   -0.003107423   -0.000000000
     11        1           0.041794411    0.025830418   -0.000000000
 -------------------------------------------------------------------
 Cartesian Forces:  Max     0.062652997 RMS     0.022224301

 GradGradGradGradGradGradGradGradGradGradGradGradGradGradGradGradGradGrad
 Berny optimization.
 Using GEDIIS/GDIIS optimizer.
 FormGI is forming the generalized inverse of G from B-inverse, IUseBI=4.
 Internal  Forces:  Max     0.049125386 RMS     0.013342300
 Search for a local minimum.
 Step number   5 out of a maximum of   57
 All quantities printed in internal units (Hartrees-Bohrs-Radians)
 Mixed Optimization -- RFO/linear search
 Update second derivatives using D2CorX and points    4    5
 DE= -2.46D-02 DEPred=-6.07D-02 R= 4.04D-01
 Trust test= 4.04D-01 RLast= 4.92D-01 DXMaxT set to 5.05D-01
 ITU=  0  0  0  1  0
 Use linear search instead of GDIIS.
     Eigenvalues ---    0.02011   0.02011   0.02011   0.02011   0.02011
     Eigenvalues ---    0.02011   0.02011   0.02011   0.06539   0.15993
     Eigenvalues ---    0.15999   0.19388   0.22446   0.24476   0.24975
     Eigenvalues ---    0.24999   0.25001   0.25043   0.28423   0.29032
     Eigenvalues ---    0.29057   0.40775   0.41554   0.44648   0.44656
     Eigenvalues ---    0.44670   0.73154
 RFO step:  Lambda=-8.87402504D-03 EMin= 2.01067219D-02
 Quartic linear search produced a step of -0.32350.
 Iteration  1 RMS(Cart)=  0.03325925 RMS(Int)=  0.00550910
 Iteration  2 RMS(Cart)=  0.00522579 RMS(Int)=  0.00018975
 Iteration  3 RMS(Cart)=  0.00000030 RMS(Int)=  0.00018975
 ClnCor:  largest displacement from symmetrization is 1.27D-09 for atom     8.
 Variable       Old X    -DE/DX   Delta X   Delta X   Delta X     New X
                                 (Linear)    (Quad)   (Total)
    R1        2.69273  -0.03069  -0.02764  -0.00872  -0.03616   2.65657
    R2        2.68661  -0.02664  -0.01896  -0.01435  -0.03300   2.65362
    R3        3.23862  -0.00133  -0.00672   0.00863   0.00190   3.24052
    R4        2.68935  -0.02819  -0.04883   0.02324  -0.02569   2.66366
    R5        3.23830  -0.00312  -0.01182   0.01149  -0.00033   3.23797
    R6        2.67653  -0.02682  -0.06689   0.04907  -0.01814   2.65839
    R7        1.95478   0.04913   0.08008   0.15766   0.23774   2.19251
    R8        2.67030  -0.02346  -0.05766   0.04380  -0.01406   2.65624
    R9        1.97480   0.03958   0.06959   0.08270   0.15229   2.12709
   R10        2.65878  -0.02410  -0.03347   0.01079  -0.02256   2.63622
   R11        3.25195  -0.00311  -0.01650   0.01790   0.00140   3.25336
    A1        2.08034  -0.00288  -0.00775   0.00175  -0.00546   2.07488
    A2        2.08337   0.00077   0.00317  -0.00133   0.00158   2.08495
    A3        2.11947   0.00212   0.00458  -0.00043   0.00388   2.12336
    A4        2.08128   0.00505  -0.00922   0.02465   0.01553   2.09681
    A5        2.11657  -0.00180   0.00693  -0.01372  -0.00684   2.10973
    A6        2.08533  -0.00325   0.00229  -0.01093  -0.00868   2.07665
    A7        2.08935  -0.00224   0.00896  -0.01757  -0.00903   2.08031
    A8        2.07375   0.00193  -0.00514   0.01267   0.00775   2.08150
    A9        2.12009   0.00032  -0.00383   0.00490   0.00129   2.12138
   A10        2.12866   0.00036   0.01954  -0.02397  -0.00494   2.12373
   A11        2.07479  -0.00012  -0.00992   0.01199   0.00232   2.07711
   A12        2.07973  -0.00024  -0.00962   0.01198   0.00261   2.08234
   A13        2.05145  -0.00189  -0.01459   0.01640   0.00168   2.05313
   A14        2.13529   0.00161   0.00306  -0.00126   0.00223   2.13751
   A15        2.07337  -0.00041   0.00103  -0.00192  -0.00110   2.07227
   A16        2.07453  -0.00121  -0.00409   0.00318  -0.00113   2.07340
    D1        0.00000   0.00000   0.00000   0.00000   0.00000   0.00000
    D2        3.14159  -0.00000   0.00000  -0.00000   0.00000   3.14159
    D3        3.14159   0.00000   0.00000   0.00000   0.00000   3.14159
    D4        0.00000   0.00000   0.00000   0.00000   0.00000   0.00000
    D5        0.00000   0.00000   0.00000   0.00000   0.00000   0.00000
    D6        3.14159   0.00000   0.00000   0.00000   0.00000   3.14159
    D7        3.14159  -0.00000   0.00000  -0.00000   0.00000   3.14159
    D8        0.00000  -0.00000   0.00000  -0.00000   0.00000   0.00000
    D9        0.00000  -0.00000   0.00000  -0.00000   0.00000   0.00000
   D10        3.14159  -0.00000   0.00000  -0.00000   0.00000   3.14159
   D11        3.14159   0.00000   0.00000   0.00000   0.00000   3.14159
   D12        0.00000   0.00000   0.00000  -0.00000   0.00000   0.00000
   D13        0.00000   0.00000   0.00000   0.00000   0.00000   0.00000
   D14        3.14159  -0.00000   0.00000  -0.00000   0.00000   3.14159
   D15        3.14159   0.00000   0.00000   0.00000   0.00000   3.14159
   D16        0.00000  -0.00000   0.00000  -0.00000   0.00000   0.00000
   D17        0.00000   0.00000   0.00000   0.00000   0.00000   0.00000
   D18        3.14159   0.00000   0.00000   0.00000   0.00000   3.14159
   D19        0.00000  -0.00000   0.00000  -0.00000   0.00000   0.00000
   D20        3.14159  -0.00000   0.00000  -0.00000   0.00000   3.14159
         Item               Value     Threshold  Converged?
 Maximum Force            0.049125     0.000450     NO 
 RMS     Force            0.013342     0.000300     NO 
 Maximum Displacement     0.154598     0.001800     NO 
 RMS     Displacement     0.037274     0.001200     NO 
 Predicted change in Energy=-1.066480D-02
 GradGradGradGradGradGradGradGradGradGradGradGradGradGradGradGradGradGrad

                          Input orientation:                          
 ---------------------------------------------------------------------
 Center     Atomic      Atomic             Coordinates (Angstroms)
 Number     Number       Type             X           Y           Z
 ---------------------------------------------------------------------
      1          6           0       -3.127081    0.196724    0.000000
      2          6           0       -1.933457    0.939371    0.000000
      3          6           0       -0.688588    0.278221    0.000000
      4          6           0       -0.658627   -1.128221    0.000000
      5          6           0       -1.838802   -1.891741    0.000000
      6          6           0       -3.053413   -1.205576    0.000000
      7         17           0       -4.517543   -2.111244    0.000000
      8         17           0       -4.631908    1.018959    0.000000
      9          1           0        0.337161   -1.653006    0.000000
     10         17           0       -1.963673    2.652562    0.000000
     11          1           0        0.287031    0.906152    0.000000
 ---------------------------------------------------------------------
                    Distance matrix (angstroms):
                    1          2          3          4          5
     1  C    0.000000
     2  C    1.405796   0.000000
     3  C    2.439855   1.409546   0.000000
     4  C    2.801561   2.429018   1.406761   0.000000
     5  C    2.453843   2.832694   2.455957   1.405623   0.000000
     6  C    1.404234   2.419731   2.791782   2.396035   1.395027
     7  Cl   2.694458   3.997968   4.513362   3.982156   2.687719
     8  Cl   1.714810   2.699624   4.012290   4.516342   4.034057
     9  H    3.927146   3.446176   2.186732   1.125607   2.189020
    10  Cl   2.717473   1.713457   2.695058   3.999683   4.546018
    11  H    3.487040   2.220737   1.160228   2.243423   3.513883
                    6          7          8          9         10
     6  C    0.000000
     7  Cl   1.721602   0.000000
     8  Cl   2.727674   3.132292   0.000000
     9  H    3.419968   4.876282   5.641901   0.000000
    10  Cl   4.009085   5.405192   3.128600   4.881777   0.000000
    11  H    3.951956   5.673501   4.920232   2.559650   2.848791
                   11
    11  H    0.000000
 Stoichiometry    C6H2Cl3(1-)
 Framework group  CS[SG(C6H2Cl3)]
 Deg. of freedom    19
 Full point group                 CS      NOp   2
 Largest Abelian subgroup         CS      NOp   2
 Largest concise Abelian subgroup C1      NOp   1
                         Standard orientation:                         
 ---------------------------------------------------------------------
 Center     Atomic      Atomic             Coordinates (Angstroms)
 Number     Number       Type             X           Y           Z
 ---------------------------------------------------------------------
      1          6           0        0.000000   -0.267613    0.000000
      2          6           0       -1.123457    0.577435    0.000000
      3          6           0       -0.956276    1.977032    0.000000
      4          6           0        0.344513    2.512685    0.000000
      5          6           0        1.482581    1.687714    0.000000
      6          6           0        1.281148    0.307306    0.000000
      7         17           0        2.654285   -0.731158    0.000000
      8         17           0       -0.223562   -1.967788    0.000000
      9          1           0        0.474441    3.630769    0.000000
     10         17           0       -2.710219   -0.069190    0.000000
     11          1           0       -1.894055    2.660185    0.000000
 ---------------------------------------------------------------------
 Rotational constants (GHZ):           1.5208023           0.8606745           0.5496236
 Standard basis: VSTO-6G (5D, 7F)
 There are    29 symmetry adapted cartesian basis functions of A'  symmetry.
 There are     9 symmetry adapted cartesian basis functions of A"  symmetry.
 There are    29 symmetry adapted basis functions of A'  symmetry.
 There are     9 symmetry adapted basis functions of A"  symmetry.
    38 basis functions,   228 primitive gaussians,    38 cartesian basis functions
    24 alpha electrons       24 beta electrons
       nuclear repulsion energy       246.1458141469 Hartrees.
 Integral buffers will be    131072 words long.
 Regular integral format.
 Two-electron integral symmetry is turned off.
 Do NDO integrals.
 One-electron integrals computed using PRISM.
 NBasis=    38 RedAO= T EigKep=  1.00D+00  NBF=    29     9
 NBsUse=    38 1.00D-06 EigRej= -1.00D+00 NBFU=    29     9
 Initial guess from the checkpoint file:  "geometry_chks/12_5ClBzAnionIntermediate.chk"
 B after Tr=     0.000000    0.000000   -0.000000
         Rot=    0.999990    0.000000   -0.000000    0.004453 Ang=   0.51 deg.
 Initial guess orbital symmetries:
       Occupied  (A') (A') (A') (A') (A') (A') (A') (A') (A') (A')
[...]
      1        6          -0.000058238    0.000104896    0.000000000
      2        6          -0.000062717   -0.000022075    0.000000000
      3        6           0.000012544    0.000004350   -0.000000000
      4        6          -0.000017848   -0.000097279    0.000000000
      5        6          -0.000000212    0.000068731    0.000000000
      6        6           0.000029758   -0.000113712    0.000000000
      7       17           0.000000256    0.000026719    0.000000000
      8       17           0.000049025   -0.000026477   -0.000000000
      9        1           0.000023274   -0.000008921   -0.000000000
     10       17          -0.000012488    0.000038076   -0.000000000
     11        1           0.000036648    0.000025693   -0.000000000
 -------------------------------------------------------------------
 Cartesian Forces:  Max     0.000113712 RMS     0.000040959

 GradGradGradGradGradGradGradGradGradGradGradGradGradGradGradGradGradGrad
 Berny optimization.
 Using GEDIIS/GDIIS optimizer.
 FormGI is forming the generalized inverse of G from B-inverse, IUseBI=4.
 Internal  Forces:  Max     0.000071634 RMS     0.000024349
 Search for a local minimum.
 Step number  11 out of a maximum of   57
 All quantities printed in internal units (Hartrees-Bohrs-Radians)
 Mixed Optimization -- En-DIIS/RFO-DIIS
 Swapping is turned off.
 Update second derivatives using D2CorX and points    4    5    6    8    7
                                                      9   10   11
 DE= -2.24D-06 DEPred=-2.27D-06 R= 9.87D-01
 TightC=F SS=  1.41D+00  RLast= 2.95D-03 DXNew= 4.2426D-01 8.8369D-03
 Trust test= 9.87D-01 RLast= 2.95D-03 DXMaxT set to 2.52D-01
 ITU=  1  1  1 -1  1  0  0  0  0  1  0
     Eigenvalues ---    0.02011   0.02011   0.02011   0.02011   0.02011
     Eigenvalues ---    0.02011   0.02011   0.02011   0.15763   0.15984
     Eigenvalues ---    0.19571   0.22106   0.24713   0.24960   0.25015
     Eigenvalues ---    0.25256   0.27827   0.28631   0.29121   0.32419
     Eigenvalues ---    0.34463   0.42170   0.43519   0.44655   0.45976
     Eigenvalues ---    0.59107   0.78473
 En-DIIS/RFO-DIIS/Sim-DIIS IScMMF=       -3 using points:    11   10    9
 RFO step:  Lambda=-6.79263656D-08.
 DidBck=F Rises=F RFO-DIIS coefs:    0.99105    0.00879    0.00016
 Iteration  1 RMS(Cart)=  0.00007988 RMS(Int)=  0.00000000
 Iteration  2 RMS(Cart)=  0.00000000 RMS(Int)=  0.00000000
 ClnCor:  largest displacement from symmetrization is 5.72D-13 for atom     8.
 Variable       Old X    -DE/DX   Delta X   Delta X   Delta X     New X
                                 (Linear)    (Quad)   (Total)
    R1        2.64962  -0.00002  -0.00001  -0.00004  -0.00006   2.64956
    R2        2.65343   0.00006  -0.00001   0.00015   0.00014   2.65356
    R3        3.23916  -0.00006  -0.00001  -0.00018  -0.00019   3.23897
    R4        2.64569   0.00007   0.00000   0.00012   0.00012   2.64581
    R5        3.24481   0.00004  -0.00000   0.00015   0.00015   3.24495
    R6        2.63367   0.00007   0.00000   0.00010   0.00011   2.63378
    R7        2.07673   0.00004   0.00001   0.00008   0.00009   2.07682
    R8        2.63070  -0.00003   0.00000  -0.00010  -0.00010   2.63060
    R9        2.07698   0.00002  -0.00001   0.00008   0.00007   2.07705
   R10        2.61971  -0.00002   0.00000  -0.00008  -0.00008   2.61962
   R11        3.25370  -0.00001  -0.00000  -0.00005  -0.00005   3.25366
    A1        2.06407  -0.00001   0.00000  -0.00007  -0.00006   2.06400
    A2        2.09055   0.00000  -0.00000   0.00004   0.00003   2.09058
    A3        2.12857   0.00000  -0.00000   0.00003   0.00003   2.12860
    A4        2.10046  -0.00000   0.00000   0.00003   0.00003   2.10049
    A5        2.11310  -0.00002  -0.00000  -0.00007  -0.00008   2.11303
    A6        2.06962   0.00002   0.00000   0.00005   0.00005   2.06967
    A7        2.08226  -0.00000  -0.00000   0.00001   0.00001   2.08227
    A8        2.08410   0.00000   0.00000  -0.00002  -0.00001   2.08409
    A9        2.11683   0.00000   0.00000   0.00000   0.00000   2.11683
   A10        2.12541  -0.00003  -0.00000  -0.00010  -0.00010   2.12531
   A11        2.07743   0.00001   0.00000   0.00003   0.00003   2.07746
   A12        2.08034   0.00002  -0.00000   0.00007   0.00007   2.08042
   A13        2.05731   0.00003  -0.00000   0.00013   0.00013   2.05744
   A14        2.13686   0.00000   0.00000  -0.00000  -0.00000   2.13686
   A15        2.07442  -0.00004  -0.00000  -0.00014  -0.00014   2.07427
   A16        2.07191   0.00003   0.00000   0.00015   0.00015   2.07205
    D1        0.00000   0.00000   0.00000   0.00000   0.00000   0.00000
    D2        3.14159  -0.00000   0.00000  -0.00000   0.00000   3.14159
    D3        3.14159   0.00000   0.00000   0.00000   0.00000   3.14159
    D4        0.00000   0.00000   0.00000   0.00000   0.00000   0.00000
    D5        0.00000  -0.00000   0.00000  -0.00000   0.00000   0.00000
    D6        3.14159   0.00000   0.00000   0.00000   0.00000   3.14159
    D7        3.14159  -0.00000   0.00000  -0.00000   0.00000   3.14159
    D8        0.00000  -0.00000   0.00000  -0.00000   0.00000   0.00000
    D9        0.00000  -0.00000   0.00000  -0.00000   0.00000   0.00000
   D10        3.14159  -0.00000   0.00000  -0.00000   0.00000   3.14159
   D11        3.14159   0.00000   0.00000   0.00000   0.00000   3.14159
   D12        0.00000   0.00000   0.00000   0.00000   0.00000   0.00000
   D13        0.00000   0.00000   0.00000   0.00000   0.00000   0.00000
   D14        3.14159  -0.00000   0.00000  -0.00000   0.00000   3.14159
   D15        3.14159   0.00000   0.00000   0.00000   0.00000   3.14159
   D16        0.00000  -0.00000   0.00000  -0.00000   0.00000   0.00000
   D17        0.00000  -0.00000   0.00000  -0.00000   0.00000   0.00000
   D18        3.14159   0.00000   0.00000   0.00000   0.00000   3.14159
   D19        0.00000  -0.00000   0.00000  -0.00000   0.00000   0.00000
   D20        3.14159  -0.00000   0.00000  -0.00000   0.00000   3.14159
         Item               Value     Threshold  Converged?
 Maximum Force            0.000072     0.000450     YES
 RMS     Force            0.000024     0.000300     YES
 Maximum Displacement     0.000284     0.001800     YES
 RMS     Displacement     0.000080     0.001200     YES
 Predicted change in Energy=-3.705288D-08
 Optimization completed.
    -- Stationary point found.
                           ----------------------------
                           !   Optimized Parameters   !
                           ! (Angstroms and Degrees)  !
 --------------------------                            --------------------------
 ! Name  Definition              Value          Derivative Info.                !
 --------------------------------------------------------------------------------
 ! R1    R(1,2)                  1.4021         -DE/DX =    0.0                 !
 ! R2    R(1,6)                  1.4041         -DE/DX =    0.0001              !
 ! R3    R(1,8)                  1.7141         -DE/DX =   -0.0001              !
 ! R4    R(2,3)                  1.4            -DE/DX =    0.0001              !
 ! R5    R(2,10)                 1.7171         -DE/DX =    0.0                 !
 ! R6    R(3,4)                  1.3937         -DE/DX =    0.0001              !
 ! R7    R(3,11)                 1.099          -DE/DX =    0.0                 !
 ! R8    R(4,5)                  1.3921         -DE/DX =    0.0                 !
 ! R9    R(4,9)                  1.0991         -DE/DX =    0.0                 !
 ! R10   R(5,6)                  1.3863         -DE/DX =    0.0                 !
 ! R11   R(6,7)                  1.7218         -DE/DX =    0.0                 !
 ! A1    A(2,1,6)              118.2623         -DE/DX =    0.0                 !
 ! A2    A(2,1,8)              119.7797         -DE/DX =    0.0                 !
 ! A3    A(6,1,8)              121.9579         -DE/DX =    0.0                 !
 ! A4    A(1,2,3)              120.3477         -DE/DX =    0.0                 !
 ! A5    A(1,2,10)             121.072          -DE/DX =    0.0                 !
 ! A6    A(3,2,10)             118.5804         -DE/DX =    0.0                 !
 ! A7    A(2,3,4)              119.3045         -DE/DX =    0.0                 !
 ! A8    A(2,3,11)             119.4102         -DE/DX =    0.0                 !
 ! A9    A(4,3,11)             121.2853         -DE/DX =    0.0                 !
 ! A10   A(3,4,5)              121.7771         -DE/DX =    0.0                 !
 ! A11   A(3,4,9)              119.0281         -DE/DX =    0.0                 !
 ! A12   A(5,4,9)              119.1949         -DE/DX =    0.0                 !
 ! A13   A(4,5,6)              117.8754         -DE/DX =    0.0                 !
 ! A14   A(1,6,5)              122.4331         -DE/DX =    0.0                 !
 ! A15   A(1,6,7)              118.8554         -DE/DX =    0.0                 !
 ! A16   A(5,6,7)              118.7116         -DE/DX =    0.0                 !
 ! D1    D(6,1,2,3)              0.0            -DE/DX =    0.0                 !
 ! D2    D(6,1,2,10)           180.0            -DE/DX =    0.0                 !
 ! D3    D(8,1,2,3)            180.0            -DE/DX =    0.0                 !
 ! D4    D(8,1,2,10)             0.0            -DE/DX =    0.0                 !
 ! D5    D(2,1,6,5)              0.0            -DE/DX =    0.0                 !
 ! D6    D(2,1,6,7)            180.0            -DE/DX =    0.0                 !
 ! D7    D(8,1,6,5)            180.0            -DE/DX =    0.0                 !
 ! D8    D(8,1,6,7)              0.0            -DE/DX =    0.0                 !
 ! D9    D(1,2,3,4)              0.0            -DE/DX =    0.0                 !
 ! D10   D(1,2,3,11)           180.0            -DE/DX =    0.0                 !
 ! D11   D(10,2,3,4)           180.0            -DE/DX =    0.0                 !
 ! D12   D(10,2,3,11)            0.0            -DE/DX =    0.0                 !
 ! D13   D(2,3,4,5)              0.0            -DE/DX =    0.0                 !
 ! D14   D(2,3,4,9)            180.0            -DE/DX =    0.0                 !
 ! D15   D(11,3,4,5)           180.0            -DE/DX =    0.0                 !
 ! D16   D(11,3,4,9)             0.0            -DE/DX =    0.0                 !
 ! D17   D(3,4,5,6)              0.0            -DE/DX =    0.0                 !
 ! D18   D(9,4,5,6)            180.0            -DE/DX =    0.0                 !
 ! D19   D(4,5,6,1)              0.0            -DE/DX =    0.0                 !
 ! D20   D(4,5,6,7)            180.0            -DE/DX =    0.0                 !
 --------------------------------------------------------------------------------
 GradGradGradGradGradGradGradGradGradGradGradGradGradGradGradGradGradGrad

                          Input orientation:                          
 ---------------------------------------------------------------------
 Center     Atomic      Atomic             Coordinates (Angstroms)
 Number     Number       Type             X           Y           Z
 ---------------------------------------------------------------------
      1          6           0       -3.121369    0.199544    0.000000
      2          6           0       -1.927098    0.934152    0.000000
      3          6           0       -0.691582    0.275660    0.000000
      4          6           0       -0.661223   -1.117690    0.000000
      5          6           0       -1.828407   -1.876400    0.000000
      6          6           0       -3.039716   -1.202212    0.000000
      7         17           0       -4.496854   -2.119435    0.000000
      8         17           0       -4.625962    1.020699    0.000000
      9          1           0        0.311192   -1.629949    0.000000
     10         17           0       -1.942804    2.651158    0.000000
     11          1           0        0.234924    0.866672    0.000000
 ---------------------------------------------------------------------
                    Distance matrix (angstroms):
                    1          2          3          4          5
     1  C    0.000000
     2  C    1.402117   0.000000
     3  C    2.430979   1.400039   0.000000
     4  C    2.790596   2.410912   1.393681   0.000000
     5  C    2.445669   2.812284   2.433872   1.392106   0.000000
     6  C    1.404133   2.408729   2.774498   2.379995   1.386290
     7  Cl   2.696224   3.990995   4.496284   3.964285   2.679492
     8  Cl   1.714087   2.700252   4.004301   4.504649   4.027344
     9  H    3.889669   3.403610   2.153347   1.099091   2.153746
    10  Cl   2.720188   1.717077   2.684873   3.980786   4.529002
    11  H    3.421953   2.163074   1.098958   2.177331   3.432459
                    6          7          8          9         10
     6  C    0.000000
     7  Cl   1.721786   0.000000
     8  Cl   2.730844   3.142787   0.000000
     9  H    3.378098   4.832898   5.603698   0.000000
    10  Cl   4.006455   5.411259   3.139703   4.838220   0.000000
    11  H    3.873442   5.595226   4.863325   2.497786   2.815472
                   11
    11  H    0.000000
 Stoichiometry    C6H2Cl3(1-)
 Framework group  CS[SG(C6H2Cl3)]
 Deg. of freedom    19
 Full point group                 CS      NOp   2
 Largest Abelian subgroup         CS      NOp   2
 Largest concise Abelian subgroup C1      NOp   1
                         Standard orientation:                         
 ---------------------------------------------------------------------
 Center     Atomic      Atomic             Coordinates (Angstroms)
 Number     Number       Type             X           Y           Z
 ---------------------------------------------------------------------
      1          6           0        0.000000   -0.272889    0.000000
      2          6           0       -1.119402    0.571428    0.000000
      3          6           0       -0.956592    1.961968    0.000000
      4          6           0        0.329820    2.498147    0.000000
      5          6           0        1.461792    1.687840    0.000000
      6          6           0        1.275544    0.314119    0.000000
      7         17           0        2.660817   -0.708411    0.000000
      8         17           0       -0.216195   -1.973288    0.000000
      9          1           0        0.452366    3.590385    0.000000
     10         17           0       -2.712543   -0.069087    0.000000
     11          1           0       -1.844673    2.609287    0.000000
 ---------------------------------------------------------------------
 Rotational constants (GHZ):           1.5309059           0.8608493           0.5510093

 **********************************************************************

            Population analysis using the SCF Density.

 **********************************************************************

 Orbital symmetries:
       Occupied  (A') (A') (A') (A') (A') (A') (A') (A') (A') (A')
                 (A') (A") (A') (A') (A") (A') (A") (A') (A') (A")
                 (A') (A") (A") (A')
       Virtual   (A") (A") (A') (A') (A') (A") (A') (A') (A') (A')
                 (A') (A') (A') (A')
 The electronic state is 1-A'.
 Alpha  occ. eigenvalues --   -1.28703  -1.23411  -1.21945  -1.19506  -0.97753
 Alpha  occ. eigenvalues --   -0.94535  -0.69494  -0.67224  -0.51174  -0.44713
 Alpha  occ. eigenvalues --   -0.44297  -0.39688  -0.39119  -0.35985  -0.33761
 Alpha  occ. eigenvalues --   -0.31839  -0.31544  -0.29711  -0.28772  -0.27552
 Alpha  occ. eigenvalues --   -0.26319  -0.18694  -0.16633  -0.11834
 Alpha virt. eigenvalues --    0.17058   0.18434   0.18621   0.20280   0.22700
 Alpha virt. eigenvalues --    0.28527   0.29522   0.31365   0.32743   0.33319
 Alpha virt. eigenvalues --    0.34496   0.35601   0.39022   0.40703
          Condensed to atoms (all electrons):
               1          2          3          4          5          6
     1  C    4.062542   0.000000   0.000000   0.000000   0.000000   0.000000
     2  C    0.000000   4.128803   0.000000   0.000000   0.000000   0.000000
     3  C    0.000000   0.000000   4.150168   0.000000   0.000000   0.000000
     4  C    0.000000   0.000000   0.000000   4.147089   0.000000   0.000000
     5  C    0.000000   0.000000   0.000000   0.000000   4.361529   0.000000
     6  C    0.000000   0.000000   0.000000   0.000000   0.000000   4.055107
     7  Cl   0.000000   0.000000   0.000000   0.000000   0.000000   0.000000
     8  Cl   0.000000   0.000000   0.000000   0.000000   0.000000   0.000000
     9  H    0.000000   0.000000   0.000000   0.000000   0.000000   0.000000
    10  Cl   0.000000   0.000000   0.000000   0.000000   0.000000   0.000000
    11  H    0.000000   0.000000   0.000000   0.000000   0.000000   0.000000
               7          8          9         10         11
     1  C    0.000000   0.000000   0.000000   0.000000   0.000000
     2  C    0.000000   0.000000   0.000000   0.000000   0.000000
     3  C    0.000000   0.000000   0.000000   0.000000   0.000000
     4  C    0.000000   0.000000   0.000000   0.000000   0.000000
     5  C    0.000000   0.000000   0.000000   0.000000   0.000000
     6  C    0.000000   0.000000   0.000000   0.000000   0.000000
     7  Cl   7.108228   0.000000   0.000000   0.000000   0.000000
     8  Cl   0.000000   7.082865   0.000000   0.000000   0.000000
     9  H    0.000000   0.000000   0.904216   0.000000   0.000000
    10  Cl   0.000000   0.000000   0.000000   7.098756   0.000000
    11  H    0.000000   0.000000   0.000000   0.000000   0.900696
 Mulliken charges:
               1
     1  C   -0.062542
     2  C   -0.128803
     3  C   -0.150168
     4  C   -0.147089
     5  C   -0.361529
     6  C   -0.055107
     7  Cl  -0.108228
     8  Cl  -0.082865
     9  H    0.095784
    10  Cl  -0.098756
    11  H    0.099304
 Sum of Mulliken charges =  -1.00000
 Mulliken charges with hydrogens summed into heavy atoms:
               1
     1  C   -0.062542
     2  C   -0.128803
     3  C   -0.050864
     4  C   -0.051305
     5  C   -0.361529
     6  C   -0.055107
     7  Cl  -0.108228
     8  Cl  -0.082865
    10  Cl  -0.098756
 Charge=             -1.0000 electrons
 Dipole moment (field-independent basis, Debye):
    X=             -4.3234    Y=             -3.3383    Z=              0.0000  Tot=              5.4622
 N-N= 2.466834233467D+02 E-N=-3.526293577459D+02  KE=-1.139947056207D+02
 Symmetry A'   KE=-8.794170069997D+01
 Symmetry A"   KE=-2.605300492073D+01
 1\1\GINC-SH02-06N11\FOpt\RAM1\ZDO\C6H2Cl3(1-)\JLAPIER\08-Dec-2025\0\\#
  opt am1 SCF(maxcyc=10000)\\Anion Intermediate (removed 4) 12_5\\-1,1\
 C,-3.1213691587,0.1995444903,0.\C,-1.9270978059,0.9341523627,0.\C,-0.6
 915824569,0.2756601659,0.\C,-0.6612229634,-1.1176897291,0.\C,-1.828406
 7344,-1.876399605,0.\C,-3.0397161321,-1.2022124593,0.\Cl,-4.4968540041
 ,-2.1194348826,0.\Cl,-4.6259620951,1.0206990085,0.\H,0.3111918733,-1.6
 299494036,0.\Cl,-1.9428040268,2.6511577096,0.\H,0.2349235041,0.8666723
 426,0.\\Version=ES64L-G16RevB.01\State=1-A'\HF=0.0293202\RMSD=2.153e-0
 9\RMSF=4.096e-05\Dipole=-0.602968,2.0626867,0.\PG=CS [SG(C6H2Cl3)]\\@


 FROM WHENCE IT HAPPENS, THAT THEY WHICH TRUST TO BOOKS, DO AS THEY THAT CAST UP MANY LITTLE SUMMS INTO GREATER,
 WITHOUT CONSIDERING WETHER THOSE LITTLE SUMMES WERE RIGHTLY CAST UP OR NOT...
 AND AT LAST FINDING THE ERROUR VISIBLE, AND NOT MISTRUSTING THEIR FIRST GROUNDS,
 KNOW NOT WHICH WAY TO CLEERE THEMSELVES...
 BUT SPEND TIME IN FLUTTERING OVER THEIR BOOKES....
 AS BIRDS THAT ENTERING BY THE CHIMNEY, AND FINDING THEMSELVES INCLOSED IN A CHAMBER,
 FLUTTER AT THE FALSE LIGHT OF A GLASSE WINDOW,
 FOR WANT OF WIT TO CONSIDER WHICH WAY THEY CAME IN....
           LEVIATHAN
 Job cpu time:       0 days  0 hours  0 minutes  7.5 seconds.
 Elapsed time:       0 days  0 hours  0 minutes 27.7 seconds.
 File lengths (MBytes):  RWF=     10 Int=      0 D2E=      0 Chk=      2 Scr=      1
 Normal termination of Gaussian 16 at Mon Dec  8 17:09:02 2025.
