 Entering Gaussian System, Link 0=g16
 Initial command:
 /share/software/user/restricted/gaussian/g16.B01/l1.exe "/home/users/jlapier/Chloroaromatics/Gau-12076.inp" -scrdir="/home/users/jlapier/Chloroaromatics/"
 Entering Link 1 = /share/software/user/restricted/gaussian/g16.B01/l1.exe PID=     12079.
  
 Copyright (c) 1988-2017, Gaussian, Inc.  All Rights Reserved.
  
 This is part of the Gaussian(R) 16 program.  It is based on
 the Gaussian(R) 09 system (copyright 2009, Gaussian, Inc.),
 the Gaussian(R) 03 system (copyright 2003, Gaussian, Inc.),
 the Gaussian(R) 98 system (copyright 1998, Gaussian, Inc.),
 the Gaussian(R) 94 system (copyright 1995, Gaussian, Inc.),
 the Gaussian 92(TM) system (copyright 1992, Gaussian, Inc.),
 the Gaussian 90(TM) system (copyright 1990, Gaussian, Inc.),
 the Gaussian 88(TM) system (copyright 1988, Gaussian, Inc.),
 the Gaussian 86(TM) system (copyright 1986, Carnegie Mellon
 University), and the Gaussian 82(TM) system (copyright 1983,
 Carnegie Mellon University). Gaussian is a federally registered
 trademark of Gaussian, Inc.
  
 This software contains proprietary and confidential information,
 including trade secrets, belonging to Gaussian, Inc.
  
 This software is provided under written license and may be
 used, copied, transmitted, or stored only in accord with that
 written license.
  
 The following legend is applicable only to US Government
 contracts under FAR:
  
                    RESTRICTED RIGHTS LEGEND
  
 Use, reproduction and disclosure by the US Government is
 subject to restrictions as set forth in subparagraphs (a)
 and (c) of the Commercial Computer Software - Restricted
 Rights clause in FAR 52.227-19.
  
 Gaussian, Inc.
 340 Quinnipiac St., Bldg. 40, Wallingford CT 06492
  
  
 ---------------------------------------------------------------
 Warning -- This program may not be used in any manner that
 competes with the business of Gaussian, Inc. or will provide
 assistance to any competitor of Gaussian, Inc.  The licensee
 of this program is prohibited from giving any competitor of
 Gaussian, Inc. access to this program.  By using this program,
 the user acknowledges that Gaussian, Inc. is engaged in the
 business of creating and licensing software in the field of
 computational chemistry and represents and warrants to the
 licensee that it is not a competitor of Gaussian, Inc. and that
 it will not use this program in any manner prohibited above.
 ---------------------------------------------------------------
  

 Cite this work as:
 Gaussian 16, Revision B.01,
 M. J. Frisch, G. W. Trucks, H. B. Schlegel, G. E. Scuseria, 
 M. A. Robb, J. R. Cheeseman, G. Scalmani, V. Barone, 
 G. A. Petersson, H. Nakatsuji, X. Li, M. Caricato, A. V. Marenich, 
 J. Bloino, B. G. Janesko, R. Gomperts, B. Mennucci, H. P. Hratchian, 
 J. V. Ortiz, A. F. Izmaylov, J. L. Sonnenberg, D. Williams-Young, 
 F. Ding, F. Lipparini, F. Egidi, J. Goings, B. Peng, A. Petrone, 
 T. Henderson, D. Ranasinghe, V. G. Zakrzewski, J. Gao, N. Rega, 
 G. Zheng, W. Liang, M. Hada, M. Ehara, K. Toyota, R. Fukuda, 
 J. Hasegawa, M. Ishida, T. Nakajima, Y. Honda, O. Kitao, H. Nakai, 
 T. Vreven, K. Throssell, J. A. Montgomery, Jr., J. E. Peralta, 
 F. Ogliaro, M. J. Bearpark, J. J. Heyd, E. N. Brothers, K. N. Kudin, 
 V. N. Staroverov, T. A. Keith, R. Kobayashi, J. Normand, 
 K. Raghavachari, A. P. Rendell, J. C. Burant, S. S. Iyengar, 
 J. Tomasi, M. Cossi, J. M. Millam, M. Klene, C. Adamo, R. Cammi, 
 J. W. Ochterski, R. L. Martin, K. Morokuma, O. Farkas, 
 J. B. Foresman, and D. J. Fox, Gaussian, Inc., Wallingford CT, 2016.
 
 ******************************************
 Gaussian 16:  ES64L-G16RevB.01 20-Dec-2017
                 9-Dec-2025 
 ******************************************
 %mem=2GB
 %nprocshare=1
 Will use up to    1 processors via shared memory.
 %chk=geometry_chks/12_ClBzNeutralRadical.chk
 -----------------
 # opt am1 SCF=XQC
 -----------------
 1/18=20,19=15,26=1,38=1/1,3;
 2/9=110,12=2,17=6,18=5,40=1/2;
 3/5=2,25=1,41=700000,71=1/1,2,3;
 4/35=1/1;
 5/5=2,8=3,13=1,35=1,38=5/2,8;
 6/7=2,8=2,9=2,10=2,28=1/1;
 7//1,2,3,16;
 1/18=20,19=15,26=1/3(2);
 2/9=110/2;
 99//99;
 2/9=110/2;
 3/5=2,25=1,41=700000,71=1,135=20/1,2,3;
 4/5=5,16=3,35=1/1;
 5/5=2,8=3,13=1,35=1,38=5/2,8;
 7//1,2,3,16;
 1/18=20,19=15,26=1/3(-5);
 2/9=110/2;
 6/7=2,8=2,9=2,10=2,19=2,28=1/1;
 99/9=1/99;
 -------------------------------
 Neutral Radical (removed 4) 12_
 -------------------------------
 Symbolic Z-matrix:
 Charge =  0 Multiplicity = 2
 C                    -3.20928   0.19943   0. 
 C                    -2.0115    0.93555   0. 
 C                    -0.77511   0.2663    0. 
 C                    -0.7365   -1.13907   0. 
 C                    -1.93429  -1.87519   0. 
 C                    -3.17067  -1.20594   0. 
 Cl                   -4.67483  -2.13035   0. 
 Cl                   -4.76193   1.03987   0. 
 H                     0.81614  -1.97951   0. 
 H                    -2.05998   2.7004    0. 
 H                     0.72905   1.19071   0. 
 
 Add virtual bond connecting atoms H9         and C4         Dist= 3.34D+00.
 Add virtual bond connecting atoms H11        and C3         Dist= 3.34D+00.
 Add virtual bond connecting atoms H10        and C2         Dist= 3.34D+00.

 GradGradGradGradGradGradGradGradGradGradGradGradGradGradGradGradGradGrad
 Berny optimization.
 Initialization pass.
                           ----------------------------
                           !    Initial Parameters    !
                           ! (Angstroms and Degrees)  !
 --------------------------                            --------------------------
 ! Name  Definition              Value          Derivative Info.                !
 --------------------------------------------------------------------------------
 ! R1    R(1,2)                  1.4059         estimate D2E/DX2                !
 ! R2    R(1,6)                  1.4059         estimate D2E/DX2                !
 ! R3    R(1,8)                  1.7655         estimate D2E/DX2                !
 ! R4    R(2,3)                  1.4059         estimate D2E/DX2                !
 ! R5    R(2,10)                 1.7655         estimate D2E/DX2                !
 ! R6    R(3,4)                  1.4059         estimate D2E/DX2                !
 ! R7    R(3,11)                 1.7655         estimate D2E/DX2                !
 ! R8    R(4,5)                  1.4059         estimate D2E/DX2                !
 ! R9    R(4,9)                  1.7655         estimate D2E/DX2                !
 ! R10   R(5,6)                  1.4059         estimate D2E/DX2                !
 ! R11   R(6,7)                  1.7655         estimate D2E/DX2                !
 ! A1    A(2,1,6)              119.9999         estimate D2E/DX2                !
 ! A2    A(2,1,8)              119.9999         estimate D2E/DX2                !
 ! A3    A(6,1,8)              120.0001         estimate D2E/DX2                !
 ! A4    A(1,2,3)              120.0            estimate D2E/DX2                !
 ! A5    A(1,2,10)             120.0001         estimate D2E/DX2                !
 ! A6    A(3,2,10)             119.9999         estimate D2E/DX2                !
 ! A7    A(2,3,4)              120.0001         estimate D2E/DX2                !
 ! A8    A(2,3,11)             120.0            estimate D2E/DX2                !
 ! A9    A(4,3,11)             119.9999         estimate D2E/DX2                !
 ! A10   A(3,4,5)              119.9997         estimate D2E/DX2                !
 ! A11   A(3,4,9)              120.0003         estimate D2E/DX2                !
 ! A12   A(5,4,9)              120.0            estimate D2E/DX2                !
 ! A13   A(4,5,6)              120.0            estimate D2E/DX2                !
 ! A14   A(1,6,5)              120.0003         estimate D2E/DX2                !
 ! A15   A(1,6,7)              119.9999         estimate D2E/DX2                !
 ! A16   A(5,6,7)              119.9998         estimate D2E/DX2                !
 ! D1    D(6,1,2,3)              0.0            estimate D2E/DX2                !
 ! D2    D(6,1,2,10)           180.0            estimate D2E/DX2                !
 ! D3    D(8,1,2,3)            180.0            estimate D2E/DX2                !
 ! D4    D(8,1,2,10)             0.0            estimate D2E/DX2                !
 ! D5    D(2,1,6,5)              0.0            estimate D2E/DX2                !
 ! D6    D(2,1,6,7)            180.0            estimate D2E/DX2                !
 ! D7    D(8,1,6,5)            180.0            estimate D2E/DX2                !
 ! D8    D(8,1,6,7)              0.0            estimate D2E/DX2                !
 ! D9    D(1,2,3,4)              0.0            estimate D2E/DX2                !
 ! D10   D(1,2,3,11)           180.0            estimate D2E/DX2                !
 ! D11   D(10,2,3,4)           180.0            estimate D2E/DX2                !
 ! D12   D(10,2,3,11)            0.0            estimate D2E/DX2                !
 ! D13   D(2,3,4,5)              0.0            estimate D2E/DX2                !
 ! D14   D(2,3,4,9)            180.0            estimate D2E/DX2                !
 ! D15   D(11,3,4,5)           180.0            estimate D2E/DX2                !
 ! D16   D(11,3,4,9)             0.0            estimate D2E/DX2                !
 ! D17   D(3,4,5,6)              0.0            estimate D2E/DX2                !
 ! D18   D(9,4,5,6)            180.0            estimate D2E/DX2                !
 ! D19   D(4,5,6,1)              0.0            estimate D2E/DX2                !
 ! D20   D(4,5,6,7)            180.0            estimate D2E/DX2                !
 --------------------------------------------------------------------------------
 Trust Radius=3.00D-01 FncErr=1.00D-07 GrdErr=1.00D-07 EigMax=2.50D+02 EigMin=1.00D-04
 Number of steps in this run=     57 maximum allowed number of steps=    100.
 GradGradGradGradGradGradGradGradGradGradGradGradGradGradGradGradGradGrad

                          Input orientation:                          
 ---------------------------------------------------------------------
 Center     Atomic      Atomic             Coordinates (Angstroms)
 Number     Number       Type             X           Y           Z
 ---------------------------------------------------------------------
      1          6           0       -3.209280    0.199430    0.000000
      2          6           0       -2.011500    0.935550    0.000000
      3          6           0       -0.775110    0.266300    0.000000
      4          6           0       -0.736500   -1.139070    0.000000
      5          6           0       -1.934290   -1.875190    0.000000
      6          6           0       -3.170670   -1.205940    0.000000
      7         17           0       -4.674830   -2.130350    0.000000
      8         17           0       -4.761930    1.039870    0.000000
      9          1           0        0.816140   -1.979510    0.000000
     10          1           0       -2.059980    2.700400    0.000000
     11          1           0        0.729050    1.190710    0.000000
 ---------------------------------------------------------------------
                    Distance matrix (angstroms):
                    1          2          3          4          5
     1  C    0.000000
     2  C    1.405898   0.000000
     3  C    2.435088   1.405900   0.000000
     4  C    2.811801   2.435092   1.405900   0.000000
     5  C    2.435087   2.811800   2.435093   1.405907   0.000000
     6  C    1.405900   2.435088   2.811796   2.435088   1.405892
     7  Cl   2.752401   4.061166   4.577308   4.061167   2.752393
     8  Cl   1.765520   2.752408   4.061175   4.577321   4.061173
     9  H    4.577312   4.061173   2.752406   1.765511   2.752408
    10  H    2.752406   1.765516   2.752405   4.061173   4.577316
    11  H    4.061167   2.752403   1.765512   2.752401   4.061173
                    6          7          8          9         10
     6  C    0.000000
     7  Cl   1.765512   0.000000
     8  Cl   2.752412   3.171416   0.000000
     9  H    4.061165   5.493041   6.342832   0.000000
    10  H    4.061173   5.493049   3.171418   5.493052   0.000000
    11  H    4.577308   6.342819   5.493051   3.171416   3.171412
                   11
    11  H    0.000000
 Stoichiometry    C6H3Cl2(2)
 Framework group  CS[SG(C6H3Cl2)]
 Deg. of freedom    19
 Full point group                 CS      NOp   2
 Largest Abelian subgroup         CS      NOp   2
 Largest concise Abelian subgroup C1      NOp   1
                         Standard orientation:                         
 ---------------------------------------------------------------------
 Center     Atomic      Atomic             Coordinates (Angstroms)
 Number     Number       Type             X           Y           Z
 ---------------------------------------------------------------------
      1          6           0       -0.564354   -0.341520    0.000000
      2          6           0       -1.781898    0.361428    0.000000
      3          6           0       -1.781898    1.767328    0.000000
      4          6           0       -0.564354    2.470281    0.000000
      5          6           0        0.653195    1.767324    0.000000
      6          6           0        0.653190    0.361432    0.000000
      7         17           0        2.182168   -0.521324    0.000000
      8         17           0       -0.564355   -2.107040    0.000000
      9          1           0       -0.564349    4.235792    0.000000
     10          1           0       -3.310881   -0.521327    0.000000
     11          1           0       -3.310876    2.650084    0.000000
 ---------------------------------------------------------------------
 Rotational constants (GHZ):           1.9289608           1.3512439           0.7946140
 Standard basis: VSTO-6G (5D, 7F)
 There are    27 symmetry adapted cartesian basis functions of A'  symmetry.
 There are     8 symmetry adapted cartesian basis functions of A"  symmetry.
 There are    27 symmetry adapted basis functions of A'  symmetry.
 There are     8 symmetry adapted basis functions of A"  symmetry.
    35 basis functions,   210 primitive gaussians,    35 cartesian basis functions
    21 alpha electrons       20 beta electrons
       nuclear repulsion energy       192.9559667337 Hartrees.
 Integral buffers will be    131072 words long.
 Regular integral format.
 Two-electron integral symmetry is turned off.
 Do NDO integrals.
 One-electron integrals computed using PRISM.
 NBasis=    35 RedAO= T EigKep=  1.00D+00  NBF=    27     8
 NBsUse=    35 1.00D-06 EigRej= -1.00D+00 NBFU=    27     8
 Simple Huckel Guess.
 Initial guess orbital symmetries:
 Alpha Orbitals:
       Occupied  (A') (A') (A') (A') (A') (A') (A') (A') (A') (A")
                 (A') (A') (A') (A") (A") (A') (A') (A") (A') (A")
                 (A')
       Virtual   (A') (A") (A") (A') (A') (A") (A') (A') (A') (A')
                 (A') (A') (A') (A')
 Beta  Orbitals:
       Occupied  (A') (A') (A') (A') (A') (A') (A') (A') (A') (A")
                 (A') (A') (A') (A") (A") (A') (A') (A") (A') (A")
       Virtual   (A') (A') (A") (A") (A') (A') (A") (A') (A') (A')
                 (A') (A') (A') (A') (A')
 The electronic state of the initial guess is 2-A'.
 Initial guess <Sx>= 0.0000 <Sy>= 0.0000 <Sz>= 0.5000 <S**2>= 0.7500 S= 0.5000
 Keep J ints in memory in canonical form, NReq=862793.
 Overlap will be assumed to be unity.
 Requested convergence on RMS density matrix=1.00D-08 within  32 cycles.
 Requested convergence on MAX density matrix=1.00D-06.
 Requested convergence on             energy=1.00D-06.
 No special actions if energy rises.
 Fock symm off for IB=2 I1=    1 I=   28 J=   23 Cut=1.00D-07 Err=5.63D-03
 Fock matrix is not symmetric: symmetry in diagonalization turned off.
 Rare condition: small coef for last iteration:  0.000D+00
 Rare condition: small coef for last iteration:  0.000D+00
 Rare condition: small coef for last iteration:  0.000D+00
 Rare condition: small coef for last iteration:  0.000D+00
 Rare condition: small coef for last iteration:  0.000D+00
 Rare condition: small coef for last iteration:  0.000D+00
 >>>>>>>>>> Convergence criterion not met.
 SCF Done:  E(UAM1) =  0.480820363932     A.U. after   33 cycles
            NFock= 32  Conv=0.21D-05     -V/T= 1.0053
 <Sx>= 0.0000 <Sy>= 0.0000 <Sz>= 0.5000 <S**2>= 1.0955 S= 0.6600
 <L.S>=  0.00000000000    
 Annihilation of the first spin contaminant:
 S**2 before annihilation     1.0955,   after     0.8509
 Keep J ints in memory in canonical form, NReq=863193.
 LinEq1:  Iter=  0 NonCon=     1 RMS=7.41D-08 Max=7.49D-07 NDo=     1
 AX will form     1 AO Fock derivatives at one time.
 LinEq1:  Iter=  1 NonCon=     1 RMS=1.16D-08 Max=8.54D-08 NDo=     1
 LinEq1:  Iter=  2 NonCon=     1 RMS=3.34D-09 Max=2.40D-08 NDo=     1
 LinEq1:  Iter=  3 NonCon=     1 RMS=1.09D-09 Max=7.70D-09 NDo=     1
 LinEq1:  Iter=  4 NonCon=     1 RMS=3.08D-10 Max=3.10D-09 NDo=     1
 LinEq1:  Iter=  5 NonCon=     1 RMS=8.39D-11 Max=6.77D-10 NDo=     1
 LinEq1:  Iter=  6 NonCon=     1 RMS=2.59D-11 Max=1.87D-10 NDo=     1
 LinEq1:  Iter=  7 NonCon=     0 RMS=7.33D-12 Max=6.38D-11 NDo=     1
 Linear equations converged to 8.621D-12 8.621D-11 after     7 iterations.
 SCF Done:  E(UAM1) =  0.480820363829     a.u. after    2 cycles
            Convg  =    0.1644D-06                     9 Fock formations.
              S**2 =  1.0955                  -V/T =  1.0053
 <Sx>= 0.0000 <Sy>= 0.0000 <Sz>= 0.5000 <S**2>= 1.0955 S= 0.6600
 <L.S>=  0.00000000000    
 Annihilation of the first spin contaminant:
 S**2 before annihilation     1.0955,   after     0.8509

 **********************************************************************

            Population analysis using the SCF Density.

 **********************************************************************

 Orbital symmetries:
 Alpha Orbitals:
       Occupied  (A') (A') (A') (A') (A') (A') (A') (A') (A') (A')
                 (A") (A') (A") (A') (A") (A') (A') (A') (A') (A")
                 (A")
       Virtual   (A") (A') (A") (A') (A') (A') (A') (A") (A') (A')
                 (A') (A') (A') (A')
 Beta  Orbitals:
       Occupied  (A') (A') (A') (A') (A') (A') (A') (A') (A') (A')
                 (A") (A') (A") (A") (A') (A') (A') (A') (A") (A")
       Virtual   (A') (A') (A") (A') (A") (A') (A') (A') (A") (A')
                 (A') (A') (A') (A') (A')
 The electronic state is 2-A'.
 Alpha  occ. eigenvalues --   -1.42689  -1.36683  -1.35583  -1.11449  -1.10949
 Alpha  occ. eigenvalues --   -0.82610  -0.81826  -0.62314  -0.59936  -0.56266
 Alpha  occ. eigenvalues --   -0.53882  -0.47880  -0.46379  -0.44974  -0.44726
 Alpha  occ. eigenvalues --   -0.44594  -0.43468  -0.40239  -0.37658  -0.36788
 Alpha  occ. eigenvalues --   -0.34942
 Alpha virt. eigenvalues --   -0.00518  -0.00509   0.00354   0.00930   0.01793
 Alpha virt. eigenvalues --    0.03660   0.05018   0.08897   0.14218   0.14512
 Alpha virt. eigenvalues --    0.16352   0.17076   0.17850   0.19715
  Beta  occ. eigenvalues --   -1.42068  -1.36576  -1.35289  -1.11402  -1.08575
  Beta  occ. eigenvalues --   -0.82400  -0.79675  -0.61236  -0.59074  -0.55787
  Beta  occ. eigenvalues --   -0.53619  -0.47360  -0.46294  -0.44590  -0.44429
  Beta  occ. eigenvalues --   -0.43601  -0.40945  -0.39526  -0.35704  -0.34792
  Beta virt. eigenvalues --   -0.02876  -0.01125  -0.00591   0.01313   0.01807
  Beta virt. eigenvalues --    0.02631   0.04637   0.05098   0.09589   0.14721
  Beta virt. eigenvalues --    0.15098   0.17185   0.18206   0.18458   0.20549
          Condensed to atoms (all electrons):
               1          2          3          4          5          6
     1  C    4.040673   0.000000   0.000000   0.000000   0.000000   0.000000
     2  C    0.000000   4.147364   0.000000   0.000000   0.000000   0.000000
     3  C    0.000000   0.000000   4.109241   0.000000   0.000000   0.000000
     4  C    0.000000   0.000000   0.000000   4.154134   0.000000   0.000000
     5  C    0.000000   0.000000   0.000000   0.000000   3.995299   0.000000
     6  C    0.000000   0.000000   0.000000   0.000000   0.000000   4.067279
     7  Cl   0.000000   0.000000   0.000000   0.000000   0.000000   0.000000
     8  Cl   0.000000   0.000000   0.000000   0.000000   0.000000   0.000000
     9  H    0.000000   0.000000   0.000000   0.000000   0.000000   0.000000
    10  H    0.000000   0.000000   0.000000   0.000000   0.000000   0.000000
    11  H    0.000000   0.000000   0.000000   0.000000   0.000000   0.000000
               7          8          9         10         11
     1  C    0.000000   0.000000   0.000000   0.000000   0.000000
     2  C    0.000000   0.000000   0.000000   0.000000   0.000000
     3  C    0.000000   0.000000   0.000000   0.000000   0.000000
     4  C    0.000000   0.000000   0.000000   0.000000   0.000000
     5  C    0.000000   0.000000   0.000000   0.000000   0.000000
     6  C    0.000000   0.000000   0.000000   0.000000   0.000000
     7  Cl   7.006606   0.000000   0.000000   0.000000   0.000000
     8  Cl   0.000000   7.018498   0.000000   0.000000   0.000000
     9  H    0.000000   0.000000   0.807463   0.000000   0.000000
    10  H    0.000000   0.000000   0.000000   0.803114   0.000000
    11  H    0.000000   0.000000   0.000000   0.000000   0.850330
          Atomic-Atomic Spin Densities.
               1          2          3          4          5          6
     1  C   -0.113286   0.000000   0.000000   0.000000   0.000000   0.000000
     2  C    0.000000   0.385927   0.000000   0.000000   0.000000   0.000000
     3  C    0.000000   0.000000  -0.522287   0.000000   0.000000   0.000000
     4  C    0.000000   0.000000   0.000000   0.303287   0.000000   0.000000
     5  C    0.000000   0.000000   0.000000   0.000000   0.900273   0.000000
     6  C    0.000000   0.000000   0.000000   0.000000   0.000000   0.066660
     7  Cl   0.000000   0.000000   0.000000   0.000000   0.000000   0.000000
     8  Cl   0.000000   0.000000   0.000000   0.000000   0.000000   0.000000
     9  H    0.000000   0.000000   0.000000   0.000000   0.000000   0.000000
    10  H    0.000000   0.000000   0.000000   0.000000   0.000000   0.000000
    11  H    0.000000   0.000000   0.000000   0.000000   0.000000   0.000000
               7          8          9         10         11
     1  C    0.000000   0.000000   0.000000   0.000000   0.000000
     2  C    0.000000   0.000000   0.000000   0.000000   0.000000
     3  C    0.000000   0.000000   0.000000   0.000000   0.000000
     4  C    0.000000   0.000000   0.000000   0.000000   0.000000
     5  C    0.000000   0.000000   0.000000   0.000000   0.000000
     6  C    0.000000   0.000000   0.000000   0.000000   0.000000
     7  Cl   0.007632   0.000000   0.000000   0.000000   0.000000
     8  Cl   0.000000   0.010120   0.000000   0.000000   0.000000
     9  H    0.000000   0.000000  -0.211927   0.000000   0.000000
    10  H    0.000000   0.000000   0.000000  -0.260656   0.000000
    11  H    0.000000   0.000000   0.000000   0.000000   0.434258
 Mulliken charges and spin densities:
               1          2
     1  C   -0.040673  -0.113286
     2  C   -0.147364   0.385927
     3  C   -0.109241  -0.522287
     4  C   -0.154134   0.303287
     5  C    0.004701   0.900273
     6  C   -0.067279   0.066660
     7  Cl  -0.006606   0.007632
     8  Cl  -0.018498   0.010120
     9  H    0.192537  -0.211927
    10  H    0.196886  -0.260656
    11  H    0.149670   0.434258
 Sum of Mulliken charges =  -0.00000   1.00000
 Mulliken charges and spin densities with hydrogens summed into heavy atoms:
               1          2
     1  C   -0.040673  -0.113286
     2  C    0.049522   0.125271
     3  C    0.040429  -0.088030
     4  C    0.038404   0.091360
     5  C    0.004701   0.900273
     6  C   -0.067279   0.066660
     7  Cl  -0.006606   0.007632
     8  Cl  -0.018498   0.010120
 Charge=              0.0000 electrons
 Dipole moment (field-independent basis, Debye):
    X=             -3.2069    Y=              2.1379    Z=              0.0000  Tot=              3.8542
 N-N= 1.929559667337D+02 E-N=-2.663807089235D+02  KE=-8.998178105168D+01
 Symmetry A'   KE=-6.954612175681D+01
 Symmetry A"   KE=-2.043565929488D+01
 Symmetry A'   SP= 1.000000000000D+00
 Symmetry A"   SP= 1.665334536938D-16
 Calling FoFJK, ICntrl=      2127 FMM=F ISym2X=1 I1Cent= 0 IOpClX= 1 NMat=1 NMatS=1 NMatT=0.
 ***** Axes restored to original set *****
 -------------------------------------------------------------------
 Center     Atomic                   Forces (Hartrees/Bohr)
 Number     Number              X              Y              Z
 -------------------------------------------------------------------
      1        6          -0.007049468    0.028426807    0.000000000
      2        6           0.016878078    0.065790034    0.000000000
      3        6           0.037743593    0.023679260    0.000000000
      4        6           0.062741039   -0.042359852    0.000000000
      5        6           0.016012398    0.073320715   -0.000000000
      6        6          -0.011458706   -0.040621746    0.000000000
      7       17           0.033608779    0.017782195    0.000000000
      8       17           0.034267795   -0.015858900    0.000000000
      9        1          -0.099982099    0.053363873   -0.000000000
     10        1           0.002127819   -0.111293504   -0.000000000
     11        1          -0.084889228   -0.052228883   -0.000000000
 -------------------------------------------------------------------
 Cartesian Forces:  Max     0.111293504 RMS     0.042154580

 GradGradGradGradGradGradGradGradGradGradGradGradGradGradGradGradGradGrad
 Berny optimization.
 FormGI is forming the generalized inverse of G from B-inverse, IUseBI=4.
 Internal  Forces:  Max     0.113329964 RMS     0.032645291
 Search for a local minimum.
 Step number   1 out of a maximum of   57
 All quantities printed in internal units (Hartrees-Bohrs-Radians)
 Mixed Optimization -- RFO/linear search
 Second derivative matrix not updated -- first step.
 ITU=  0
     Eigenvalues ---    0.02011   0.02011   0.02011   0.02011   0.02011
     Eigenvalues ---    0.02011   0.02011   0.02011   0.06524   0.06524
     Eigenvalues ---    0.06524   0.16000   0.16000   0.16000   0.22076
     Eigenvalues ---    0.23330   0.24905   0.25000   0.25000   0.29033
     Eigenvalues ---    0.29033   0.40955   0.41390   0.44656   0.44657
     Eigenvalues ---    0.44657   0.44657
 RFO step:  Lambda=-1.73727151D-01 EMin= 2.01067220D-02
 Linear search not attempted -- first point.
 Maximum step size (   0.300) exceeded in Quadratic search.
    -- Step size scaled by   0.368
 Iteration  1 RMS(Cart)=  0.04886592 RMS(Int)=  0.00007009
 Iteration  2 RMS(Cart)=  0.00010893 RMS(Int)=  0.00001102
 Iteration  3 RMS(Cart)=  0.00000001 RMS(Int)=  0.00001102
 ClnCor:  largest displacement from symmetrization is 1.56D-10 for atom    10.
 Variable       Old X    -DE/DX   Delta X   Delta X   Delta X     New X
                                 (Linear)    (Quad)   (Total)
    R1        2.65676  -0.03118   0.00000  -0.01811  -0.01813   2.63863
    R2        2.65677  -0.01056   0.00000  -0.00563  -0.00564   2.65113
    R3        3.33635  -0.03769   0.00000  -0.02989  -0.02989   3.30646
    R4        2.65677  -0.04717   0.00000  -0.02824  -0.02825   2.62852
    R5        3.33634  -0.11131   0.00000  -0.17146  -0.17146   3.16488
    R6        2.65677  -0.05087   0.00000  -0.03083  -0.03082   2.62595
    R7        3.33633  -0.09967   0.00000  -0.15353  -0.15353   3.18280
    R8        2.65678  -0.05754   0.00000  -0.03454  -0.03452   2.62226
    R9        3.33633  -0.11333   0.00000  -0.17457  -0.17457   3.16176
   R10        2.65675  -0.03951   0.00000  -0.02320  -0.02319   2.63356
   R11        3.33633  -0.03794   0.00000  -0.03010  -0.03010   3.30624
    A1        2.09439  -0.00935   0.00000  -0.00659  -0.00661   2.08778
    A2        2.09439   0.00073   0.00000  -0.00014  -0.00012   2.09427
    A3        2.09440   0.00862   0.00000   0.00672   0.00673   2.10113
    A4        2.09439   0.00613   0.00000   0.00597   0.00594   2.10033
    A5        2.09440  -0.00462   0.00000  -0.00469  -0.00468   2.08972
    A6        2.09439  -0.00152   0.00000  -0.00128  -0.00126   2.09313
    A7        2.09440   0.00507   0.00000   0.00332   0.00331   2.09771
    A8        2.09440  -0.00245   0.00000  -0.00157  -0.00157   2.09283
    A9        2.09439  -0.00262   0.00000  -0.00175  -0.00175   2.09264
   A10        2.09439  -0.00668   0.00000  -0.00790  -0.00788   2.08651
   A11        2.09440   0.00445   0.00000   0.00517   0.00516   2.09956
   A12        2.09440   0.00223   0.00000   0.00273   0.00271   2.09711
   A13        2.09439   0.02202   0.00000   0.01880   0.01884   2.11324
   A14        2.09440  -0.01718   0.00000  -0.01361  -0.01361   2.08079
   A15        2.09439   0.01267   0.00000   0.01035   0.01035   2.10474
   A16        2.09439   0.00451   0.00000   0.00326   0.00326   2.09765
    D1        0.00000  -0.00000   0.00000  -0.00000   0.00000   0.00000
    D2        3.14159  -0.00000   0.00000  -0.00000   0.00000   3.14159
    D3        3.14159   0.00000   0.00000  -0.00000   0.00000   3.14159
    D4        0.00000  -0.00000   0.00000  -0.00000   0.00000   0.00000
    D5        0.00000  -0.00000   0.00000  -0.00000   0.00000   0.00000
    D6        3.14159   0.00000   0.00000   0.00000   0.00000   3.14159
    D7        3.14159  -0.00000   0.00000   0.00000   0.00000   3.14159
    D8        0.00000   0.00000   0.00000   0.00000   0.00000   0.00000
    D9        0.00000   0.00000   0.00000   0.00000   0.00000   0.00000
   D10        3.14159  -0.00000   0.00000  -0.00000   0.00000   3.14159
   D11        3.14159   0.00000   0.00000   0.00000   0.00000   3.14159
   D12        0.00000   0.00000   0.00000   0.00000   0.00000   0.00000
   D13        0.00000  -0.00000   0.00000  -0.00000   0.00000   0.00000
   D14        3.14159  -0.00000   0.00000  -0.00000   0.00000   3.14159
   D15        3.14159   0.00000   0.00000   0.00000   0.00000   3.14159
   D16        0.00000  -0.00000   0.00000  -0.00000   0.00000   0.00000
   D17        0.00000  -0.00000   0.00000  -0.00000   0.00000   0.00000
   D18        3.14159   0.00000   0.00000   0.00000   0.00000   3.14159
   D19        0.00000   0.00000   0.00000   0.00000   0.00000   0.00000
   D20        3.14159  -0.00000   0.00000   0.00000   0.00000   3.14159
         Item               Value     Threshold  Converged?
 Maximum Force            0.113330     0.000450     NO 
 RMS     Force            0.032645     0.000300     NO 
 Maximum Displacement     0.181277     0.001800     NO 
 RMS     Displacement     0.048887     0.001200     NO 
 Predicted change in Energy=-5.999677D-02
 GradGradGradGradGradGradGradGradGradGradGradGradGradGradGradGradGradGrad

                          Input orientation:                          
 ---------------------------------------------------------------------
 Center     Atomic      Atomic             Coordinates (Angstroms)
 Number     Number       Type             X           Y           Z
 ---------------------------------------------------------------------
      1          6           0       -3.193507    0.206595    0.000000
      2          6           0       -1.999358    0.930251    0.000000
      3          6           0       -0.776316    0.267746    0.000000
      4          6           0       -0.733972   -1.121201    0.000000
      5          6           0       -1.919722   -1.841995    0.000000
      6          6           0       -3.154461   -1.195777    0.000000
      7         17           0       -4.635148   -2.127772    0.000000
      8         17           0       -4.726912    1.049283    0.000000
      9          1           0        0.735710   -1.920829    0.000000
     10          1           0       -2.042728    2.604472    0.000000
     11          1           0        0.657513    1.151426    0.000000
 ---------------------------------------------------------------------
                    Distance matrix (angstroms):
                    1          2          3          4          5
     1  C    0.000000
     2  C    1.396305   0.000000
     3  C    2.417964   1.390951   0.000000
     4  C    2.795059   2.410323   1.389592   0.000000
     5  C    2.412312   2.773389   2.399663   1.387640   0.000000
     6  C    1.402916   2.419558   2.792396   2.421638   1.393621
     7  Cl   2.743647   4.037189   4.541925   4.028940   2.730423
     8  Cl   1.749701   2.730150   4.027159   4.544730   4.029864
     9  H    4.468185   3.950855   2.660091   1.673132   2.656602
    10  H    2.659719   1.674783   2.657836   3.948858   4.448168
    11  H    3.965231   2.666061   1.684268   2.664782   3.950026
                    6          7          8          9         10
     6  C    0.000000
     7  Cl   1.749585   0.000000
     8  Cl   2.740967   3.178380   0.000000
     9  H    3.957162   5.374843   6.217862   0.000000
    10  H    3.959526   5.395811   3.102170   5.310186   0.000000
    11  H    4.476663   6.226186   5.385394   3.073250   3.066373
                   11
    11  H    0.000000
 Stoichiometry    C6H3Cl2(2)
 Framework group  CS[SG(C6H3Cl2)]
 Deg. of freedom    19
 Full point group                 CS      NOp   2
 Largest Abelian subgroup         CS      NOp   2
 Largest concise Abelian subgroup C1      NOp   1
                         Standard orientation:                         
 ---------------------------------------------------------------------
 Center     Atomic      Atomic             Coordinates (Angstroms)
 Number     Number       Type             X           Y           Z
 ---------------------------------------------------------------------
      1          6           0        0.000000   -0.660004    0.000000
      2          6           0       -1.232245   -1.316694    0.000000
      3          6           0       -2.416884   -0.587738    0.000000
      4          6           0       -2.382554    0.801429    0.000000
      5          6           0       -1.158853    1.455724    0.000000
      6          6           0        0.038364    0.742387    0.000000
      7         17           0        1.568202    1.591294    0.000000
      8         17           0        1.484592   -1.585987    0.000000
      9          1           0       -3.805894    1.680903    0.000000
     10          1           0       -1.281285   -2.990759    0.000000
     11          1           0       -3.897271   -1.390989    0.000000
 ---------------------------------------------------------------------
 Rotational constants (GHZ):           1.9424061           1.3799062           0.8067689
 Standard basis: VSTO-6G (5D, 7F)
 There are    27 symmetry adapted cartesian basis functions of A'  symmetry.
 There are     8 symmetry adapted cartesian basis functions of A"  symmetry.
 There are    27 symmetry adapted basis functions of A'  symmetry.
 There are     8 symmetry adapted basis functions of A"  symmetry.
    35 basis functions,   210 primitive gaussians,    35 cartesian basis functions
    21 alpha electrons       20 beta electrons
       nuclear repulsion energy       194.1485500820 Hartrees.
 Integral buffers will be    131072 words long.
 Regular integral format.
 Two-electron integral symmetry is turned off.
 Do NDO integrals.
 One-electron integrals computed using PRISM.
 NBasis=    35 RedAO= T EigKep=  1.00D+00  NBF=    27     8
 NBsUse=    35 1.00D-06 EigRej= -1.00D+00 NBFU=    27     8
 Initial guess from the checkpoint file:  "geometry_chks/12_ClBzNeutralRadical.chk"
 B after Tr=    -0.000000   -0.000000    0.000000
         Rot=    0.872601   -0.000000   -0.000000   -0.488433 Ang= -58.48 deg.
 Initial guess orbital symmetries:
 Alpha Orbitals:
       Occupied  (A') (A') (A') (A') (A') (A') (A') (A') (A') (A')
                 (A") (A') (A") (A') (A") (A') (A') (A') (A') (A")
                 (A")
       Virtual   (A") (A') (A") (A') (A') (A') (A') (A") (A') (A')
                 (A') (A') (A') (A')
 Beta  Orbitals:
       Occupied  (A') (A') (A') (A') (A') (A') (A') (A') (A') (A')
                 (A") (A') (A") (A") (A') (A') (A') (A') (A") (A")
       Virtual   (A') (A') (A") (A') (A") (A') (A') (A') (A") (A')
                 (A') (A') (A') (A') (A')
 Initial guess <Sx>= 0.0000 <Sy>= 0.0000 <Sz>= 0.5000 <S**2>= 1.0955 S= 0.6600
 Keep J ints in memory in canonical form, NReq=862793.
 Overlap will be assumed to be unity.
 Requested convergence on RMS density matrix=1.00D-08 within  32 cycles.
 Requested convergence on MAX density matrix=1.00D-06.
 Requested convergence on             energy=1.00D-06.
 No special actions if energy rises.
 Fock symm off for IB=2 I1=    1 I=   28 J=   12 Cut=1.00D-07 Err=2.15D-03
 Fock matrix is not symmetric: symmetry in diagonalization turned off.
 Rare condition: small coef for last iteration:  0.000D+00
 Rare condition: small coef for last iteration:  0.000D+00
 Rare condition: small coef for last iteration:  0.000D+00
 Rare condition: small coef for last iteration:  0.000D+00
 Rare condition: small coef for last iteration:  0.000D+00
 Rare condition: small coef for last iteration:  0.000D+00
 Rare condition: small coef for last iteration:  0.000D+00
 Rare condition: small coef for last iteration:  0.000D+00
 Rare condition: small coef for last iteration:  0.000D+00
 Rare condition: small coef for last iteration:  0.000D+00
 >>>>>>>>>> Convergence criterion not met.
 SCF Done:  E(UAM1) =  0.415371017639     A.U. after   33 cycles
            NFock= 32  Conv=0.23D-03     -V/T= 1.0046
 <Sx>= 0.0000 <Sy>= 0.0000 <Sz>= 0.5000 <S**2>= 0.9064 S= 0.5754
 <L.S>=  0.00000000000    
 Annihilation of the first spin contaminant:
 S**2 before annihilation     0.9064,   after     0.7716
 Keep J ints in memory in canonical form, NReq=863193.
 LinEq1:  Iter=  0 NonCon=     1 RMS=4.26D-04 Max=5.21D-03 NDo=     1
 AX will form     1 AO Fock derivatives at one time.
 LinEq1:  Iter=  1 NonCon=     1 RMS=5.38D-05 Max=4.14D-04 NDo=     1
 LinEq1:  Iter=  2 NonCon=     1 RMS=1.78D-05 Max=1.46D-04 NDo=     1
 LinEq1:  Iter=  3 NonCon=     1 RMS=3.93D-06 Max=2.87D-05 NDo=     1
 LinEq1:  Iter=  4 NonCon=     1 RMS=9.44D-07 Max=5.76D-06 NDo=     1
 LinEq1:  Iter=  5 NonCon=     1 RMS=3.23D-07 Max=2.15D-06 NDo=     1
 LinEq1:  Iter=  6 NonCon=     1 RMS=7.05D-08 Max=4.58D-07 NDo=     1
 LinEq1:  Iter=  7 NonCon=     1 RMS=1.38D-08 Max=1.22D-07 NDo=     1
 LinEq1:  Iter=  8 NonCon=     1 RMS=3.47D-09 Max=3.23D-08 NDo=     1
 LinEq1:  Iter=  9 NonCon=     0 RMS=9.70D-10 Max=7.98D-09 NDo=     1
 Linear equations converged to 2.437D-09 2.437D-08 after     9 iterations.
 Incorrect curvature in search direction -- initial direction reversed.
 LinEq1:  Iter=  0 NonCon=     1 RMS=7.08D-04 Max=8.80D-03 NDo=     1
 LinEq1:  Iter=  1 NonCon=     1 RMS=8.64D-05 Max=5.87D-04 NDo=     1
 LinEq1:  Iter=  2 NonCon=     1 RMS=2.15D-05 Max=1.91D-04 NDo=     1
 LinEq1:  Iter=  3 NonCon=     1 RMS=5.96D-06 Max=5.85D-05 NDo=     1
 LinEq1:  Iter=  4 NonCon=     1 RMS=1.48D-06 Max=9.63D-06 NDo=     1
 LinEq1:  Iter=  5 NonCon=     1 RMS=4.76D-07 Max=3.90D-06 NDo=     1
 LinEq1:  Iter=  6 NonCon=     1 RMS=1.06D-07 Max=9.47D-07 NDo=     1
 LinEq1:  Iter=  7 NonCon=     1 RMS=2.43D-08 Max=2.37D-07 NDo=     1
 LinEq1:  Iter=  8 NonCon=     1 RMS=5.30D-09 Max=3.17D-08 NDo=     1
 LinEq1:  Iter=  9 NonCon=     0 RMS=1.46D-09 Max=1.02D-08 NDo=     1
 Linear equations converged to 2.437D-09 2.437D-08 after     9 iterations.
 Incorrect curvature in search direction -- initial direction reversed.
 LinEq1:  Iter=  0 NonCon=     1 RMS=6.63D-04 Max=7.27D-03 NDo=     1
 LinEq1:  Iter=  1 NonCon=     1 RMS=9.08D-05 Max=8.17D-04 NDo=     1
 LinEq1:  Iter=  2 NonCon=     1 RMS=2.23D-05 Max=1.55D-04 NDo=     1
 LinEq1:  Iter=  3 NonCon=     1 RMS=6.05D-06 Max=5.24D-05 NDo=     1
 LinEq1:  Iter=  4 NonCon=     1 RMS=1.69D-06 Max=1.16D-05 NDo=     1
 LinEq1:  Iter=  5 NonCon=     1 RMS=4.72D-07 Max=4.00D-06 NDo=     1
 LinEq1:  Iter=  6 NonCon=     1 RMS=9.08D-08 Max=9.29D-07 NDo=     1
 LinEq1:  Iter=  7 NonCon=     1 RMS=2.16D-08 Max=1.79D-07 NDo=     1
 LinEq1:  Iter=  8 NonCon=     1 RMS=5.97D-09 Max=4.23D-08 NDo=     1
 LinEq1:  Iter=  9 NonCon=     0 RMS=1.55D-09 Max=1.03D-08 NDo=     1
 Linear equations converged to 2.437D-09 2.437D-08 after     9 iterations.
 LinEq1:  Iter=  0 NonCon=     1 RMS=2.68D-04 Max=2.96D-03 NDo=     1
 LinEq1:  Iter=  1 NonCon=     1 RMS=6.22D-05 Max=5.28D-04 NDo=     1
 LinEq1:  Iter=  2 NonCon=     1 RMS=1.49D-05 Max=1.06D-04 NDo=     1
 LinEq1:  Iter=  3 NonCon=     1 RMS=3.84D-06 Max=2.63D-05 NDo=     1
 LinEq1:  Iter=  4 NonCon=     1 RMS=8.25D-07 Max=6.06D-06 NDo=     1
 LinEq1:  Iter=  5 NonCon=     1 RMS=2.21D-07 Max=2.22D-06 NDo=     1
 LinEq1:  Iter=  6 NonCon=     1 RMS=4.87D-08 Max=5.30D-07 NDo=     1
 LinEq1:  Iter=  7 NonCon=     1 RMS=1.08D-08 Max=5.82D-08 NDo=     1
 LinEq1:  Iter=  8 NonCon=     1 RMS=2.96D-09 Max=1.86D-08 NDo=     1
 LinEq1:  Iter=  9 NonCon=     0 RMS=7.44D-10 Max=5.24D-09 NDo=     1
 Linear equations converged to 2.437D-09 2.437D-08 after     9 iterations.
     Accept linear search using points  1 and  2.
 LinEq1:  Iter=  0 NonCon=     1 RMS=2.52D-05 Max=1.92D-04 NDo=     1
 LinEq1:  Iter=  1 NonCon=     1 RMS=4.42D-06 Max=2.76D-05 NDo=     1
 LinEq1:  Iter=  2 NonCon=     1 RMS=1.04D-06 Max=6.58D-06 NDo=     1
 LinEq1:  Iter=  3 NonCon=     1 RMS=3.51D-07 Max=2.31D-06 NDo=     1
 LinEq1:  Iter=  4 NonCon=     1 RMS=7.17D-08 Max=4.66D-07 NDo=     1
 LinEq1:  Iter=  5 NonCon=     1 RMS=1.18D-08 Max=1.27D-07 NDo=     1
 LinEq1:  Iter=  6 NonCon=     1 RMS=2.68D-09 Max=2.79D-08 NDo=     1
 LinEq1:  Iter=  7 NonCon=     0 RMS=6.76D-10 Max=6.41D-09 NDo=     1
 Linear equations converged to 2.437D-09 2.437D-08 after     7 iterations.
     Accept linear search using points  1 and  2.
     Minimum is close to point  2 DX= -2.22D-04 DF= -2.05D-14 DXR=  2.22D-04 DFR=  4.93D-08 which will be used.
 LinEq1:  Iter=  0 NonCon=     1 RMS=2.35D-07 Max=2.28D-06 NDo=     1
 LinEq1:  Iter=  1 NonCon=     1 RMS=7.87D-08 Max=7.64D-07 NDo=     1
 LinEq1:  Iter=  2 NonCon=     1 RMS=1.81D-08 Max=1.44D-07 NDo=     1
 LinEq1:  Iter=  3 NonCon=     1 RMS=3.83D-09 Max=2.55D-08 NDo=     1
 LinEq1:  Iter=  4 NonCon=     1 RMS=8.85D-10 Max=7.23D-09 NDo=     1
 LinEq1:  Iter=  5 NonCon=     1 RMS=2.29D-10 Max=1.61D-09 NDo=     1
 LinEq1:  Iter=  6 NonCon=     1 RMS=5.70D-11 Max=4.51D-10 NDo=     1
 LinEq1:  Iter=  7 NonCon=     0 RMS=1.11D-11 Max=6.58D-11 NDo=     1
 Linear equations converged to 3.184D-11 3.184D-10 after     7 iterations.
 SCF Done:  E(UAM1) =  0.406571686766     a.u. after    7 cycles
            Convg  =    0.1034D-06                    64 Fock formations.
              S**2 =  1.5078                  -V/T =  1.0045
 <Sx>= 0.0000 <Sy>= 0.0000 <Sz>= 0.5000 <S**2>= 1.5078 S= 0.8258
 <L.S>=  0.00000000000    
 Annihilation of the first spin contaminant:
 S**2 before annihilation     1.5078,   after     1.4601
 Calling FoFJK, ICntrl=      2127 FMM=F ISym2X=1 I1Cent= 0 IOpClX= 1 NMat=1 NMatS=1 NMatT=0.
 ***** Axes restored to original set *****
 -------------------------------------------------------------------
 Center     Atomic                   Forces (Hartrees/Bohr)
 Number     Number              X              Y              Z
 -------------------------------------------------------------------
      1        6          -0.021229858    0.028788328    0.000000000
      2        6           0.011304420    0.096975490    0.000000000
      3        6           0.081143014    0.052502894    0.000000000
      4        6           0.083656574   -0.058363556    0.000000000
      5        6           0.015169897    0.043438958   -0.000000000
      6        6          -0.026480478   -0.041837320    0.000000000
      7       17           0.027544853    0.015330682    0.000000000
      8       17           0.028028823   -0.013550405    0.000000000
      9        1          -0.101614296    0.054333917   -0.000000000
     10        1           0.002088378   -0.116098602   -0.000000000
     11        1          -0.099611328   -0.061520387   -0.000000000
 -------------------------------------------------------------------
 Cartesian Forces:  Max     0.116098602 RMS     0.048478881

 GradGradGradGradGradGradGradGradGradGradGradGradGradGradGradGradGradGrad
 Berny optimization.
 Using GEDIIS/GDIIS optimizer.
 FormGI is forming the generalized inverse of G from B-inverse, IUseBI=4.
 Internal  Forces:  Max     0.117077592 RMS     0.031023621
 Search for a local minimum.
 Step number   2 out of a maximum of   57
 All quantities printed in internal units (Hartrees-Bohrs-Radians)
 Mixed Optimization -- RFO/linear search
 Update second derivatives using D2CorX and points    1    2
 DE= -7.42D-02 DEPred=-6.00D-02 R= 1.24D+00
 TightC=F SS=  1.41D+00  RLast= 3.00D-01 DXNew= 5.0454D-01 9.0000D-01
 Trust test= 1.24D+00 RLast= 3.00D-01 DXMaxT set to 5.05D-01
 ITU=  1  0
 Use linear search instead of GDIIS.
     Eigenvalues ---    0.00026   0.02011   0.02011   0.02011   0.02011
     Eigenvalues ---    0.02011   0.02011   0.02011   0.02011   0.06524
     Eigenvalues ---    0.07394   0.15998   0.16000   0.16001   0.22127
     Eigenvalues ---    0.23415   0.24789   0.25000   0.25031   0.28798
     Eigenvalues ---    0.29033   0.40757   0.41245   0.44570   0.44657
     Eigenvalues ---    0.44657   7.83949
 RFO step:  Lambda=-4.34931771D-03 EMin= 2.56772837D-04
 Quartic linear search produced a step of  0.61332.
 Iteration  1 RMS(Cart)=  0.06765548 RMS(Int)=  0.02777532
 Iteration  2 RMS(Cart)=  0.02628866 RMS(Int)=  0.00011007
 Iteration  3 RMS(Cart)=  0.00000397 RMS(Int)=  0.00011003
 Iteration  4 RMS(Cart)=  0.00000000 RMS(Int)=  0.00011003
 ClnCor:  largest displacement from symmetrization is 8.02D-09 for atom     8.
 Variable       Old X    -DE/DX   Delta X   Delta X   Delta X     New X
                                 (Linear)    (Quad)   (Total)
    R1        2.63863  -0.00609  -0.01112  -0.00832  -0.01958   2.61905
    R2        2.65113   0.00668  -0.00346   0.01596   0.01252   2.66365
    R3        3.30646  -0.03109  -0.01833  -0.07002  -0.08835   3.21810
    R4        2.62852  -0.01865  -0.01733  -0.03347  -0.05095   2.57756
    R5        3.16488  -0.11611  -0.10516  -0.12834  -0.23350   2.93139
    R6        2.62595  -0.01961  -0.01890  -0.03584  -0.05476   2.57119
    R7        3.18280  -0.11708  -0.09416  -0.29325  -0.38742   2.79539
    R8        2.62226  -0.03029  -0.02117  -0.05757  -0.07859   2.54367
    R9        3.16176  -0.11523  -0.10707  -0.08991  -0.19698   2.96478
   R10        2.63356  -0.01431  -0.01422  -0.02548  -0.03954   2.59403
   R11        3.30624  -0.03148  -0.01846  -0.07106  -0.08952   3.21672
    A1        2.08778  -0.00623  -0.00406  -0.01105  -0.01526   2.07253
    A2        2.09427   0.00043  -0.00007   0.00021   0.00021   2.09448
    A3        2.10113   0.00580   0.00413   0.01084   0.01504   2.11617
    A4        2.10033   0.00543   0.00364   0.01461   0.01793   2.11826
    A5        2.08972  -0.00417  -0.00287  -0.01084  -0.01355   2.07617
    A6        2.09313  -0.00126  -0.00077  -0.00377  -0.00438   2.08876
    A7        2.09771   0.00095   0.00203  -0.00313  -0.00130   2.09641
    A8        2.09283  -0.00030  -0.00096   0.00231   0.00145   2.09428
    A9        2.09264  -0.00065  -0.00107   0.00082  -0.00015   2.09249
   A10        2.08651  -0.00445  -0.00483  -0.00849  -0.01322   2.07329
   A11        2.09956   0.00355   0.00317   0.00840   0.01152   2.11108
   A12        2.09711   0.00090   0.00167   0.00009   0.00170   2.09881
   A13        2.11324   0.01923   0.01156   0.04358   0.05555   2.16878
   A14        2.08079  -0.01493  -0.00834  -0.03552  -0.04370   2.03710
   A15        2.10474   0.01027   0.00635   0.02337   0.02963   2.13438
   A16        2.09765   0.00466   0.00200   0.01215   0.01406   2.11171
    D1        0.00000  -0.00000   0.00000  -0.00000   0.00000   0.00000
    D2        3.14159  -0.00000   0.00000  -0.00000   0.00000   3.14159
    D3        3.14159   0.00000   0.00000   0.00000   0.00000   3.14159
    D4        0.00000  -0.00000   0.00000  -0.00000   0.00000   0.00000
    D5        0.00000   0.00000   0.00000   0.00000   0.00000   0.00000
    D6        3.14159   0.00000   0.00000   0.00000   0.00000   3.14159
    D7        3.14159  -0.00000   0.00000  -0.00000   0.00000   3.14159
    D8        0.00000  -0.00000   0.00000  -0.00000   0.00000   0.00000
    D9        0.00000  -0.00000   0.00000  -0.00000   0.00000   0.00000
   D10        3.14159  -0.00000   0.00000  -0.00000   0.00000   3.14159
   D11        3.14159   0.00000   0.00000   0.00000   0.00000   3.14159
   D12        0.00000  -0.00000   0.00000  -0.00000   0.00000   0.00000
   D13        0.00000   0.00000   0.00000   0.00000   0.00000   0.00000
   D14        3.14159  -0.00000   0.00000  -0.00000   0.00000   3.14159
   D15        3.14159   0.00000   0.00000   0.00000   0.00000   3.14159
   D16        0.00000   0.00000   0.00000   0.00000   0.00000   0.00000
   D17        0.00000  -0.00000   0.00000  -0.00000   0.00000   0.00000
   D18        3.14159   0.00000   0.00000   0.00000   0.00000   3.14159
   D19        0.00000   0.00000   0.00000   0.00000   0.00000   0.00000
   D20        3.14159  -0.00000   0.00000  -0.00000   0.00000   3.14159
         Item               Value     Threshold  Converged?
 Maximum Force            0.117078     0.000450     NO 
 RMS     Force            0.031024     0.000300     NO 
 Maximum Displacement     0.330320     0.001800     NO 
 RMS     Displacement     0.085360     0.001200     NO 
 Predicted change in Energy=-1.066845D-01
 GradGradGradGradGradGradGradGradGradGradGradGradGradGradGradGradGradGrad

                          Input orientation:                          
 ---------------------------------------------------------------------
 Center     Atomic      Atomic             Coordinates (Angstroms)
 Number     Number       Type             X           Y           Z
 ---------------------------------------------------------------------
      1          6           0       -3.173684    0.224782    0.000000
      2          6           0       -1.976842    0.923642    0.000000
      3          6           0       -0.776459    0.275920    0.000000
      4          6           0       -0.734567   -1.084049    0.000000
      5          6           0       -1.893704   -1.768340    0.000000
      6          6           0       -3.135938   -1.184253    0.000000
      7         17           0       -4.550031   -2.131811    0.000000
      8         17           0       -4.652721    1.068866    0.000000
      9          1           0        0.635066   -1.849250    0.000000
     10          1           0       -2.012735    2.474449    0.000000
     11          1           0        0.482715    1.052244    0.000000
 ---------------------------------------------------------------------
                    Distance matrix (angstroms):
                    1          2          3          4          5
     1  C    0.000000
     2  C    1.385943   0.000000
     3  C    2.397771   1.363988   0.000000
     4  C    2.768091   2.360946   1.360614   0.000000
     5  C    2.368731   2.693266   2.329643   1.346050   0.000000
     6  C    1.409540   2.405561   2.774751   2.403460   1.372699
     7  Cl   2.729077   3.994634   4.476273   3.956712   2.681080
     8  Cl   1.702947   2.679817   3.956535   4.470679   3.957514
     9  H    4.336841   3.809330   2.551226   1.568894   2.530064
    10  H    2.531562   1.551222   2.522281   3.781087   4.244458
    11  H    3.748860   2.462917   1.479256   2.458764   3.688233
                    6          7          8          9         10
     6  C    0.000000
     7  Cl   1.702213   0.000000
     8  Cl   2.716096   3.202325   0.000000
     9  H    3.829189   5.192791   6.039545   0.000000
    10  H    3.827229   5.258850   2.990851   5.070032   0.000000
    11  H    4.254006   5.955396   5.135463   2.905491   2.872270
                   11
    11  H    0.000000
 Stoichiometry    C6H3Cl2(2)
 Framework group  CS[SG(C6H3Cl2)]
 Deg. of freedom    19
 Full point group                 CS      NOp   2
 Largest Abelian subgroup         CS      NOp   2
 Largest concise Abelian subgroup C1      NOp   1
                         Standard orientation:                         
 ---------------------------------------------------------------------
 Center     Atomic      Atomic             Coordinates (Angstroms)
 Number     Number       Type             X           Y           Z
 ---------------------------------------------------------------------
      1          6           0        0.000000   -0.666524    0.000000
      2          6           0       -1.252579   -1.259721    0.000000
      3          6           0       -2.392724   -0.511034    0.000000
      4          6           0       -2.317346    0.847490    0.000000
      5          6           0       -1.103587    1.429420    0.000000
      6          6           0        0.083733    0.740527    0.000000
      7         17           0        1.574173    1.562791    0.000000
      8         17           0        1.400854   -1.634840    0.000000
      9          1           0       -3.615996    1.727795    0.000000
     10          1           0       -1.350368   -2.807858    0.000000
     11          1           0       -3.714074   -1.176040    0.000000
 ---------------------------------------------------------------------
 Rotational constants (GHZ):           1.9557559           1.4441313           0.8307241
 Standard basis: VSTO-6G (5D, 7F)
 There are    27 symmetry adapted cartesian basis functions of A'  symmetry.
 There are     8 symmetry adapted cartesian basis functions of A"  symmetry.
 There are    27 symmetry adapted basis functions of A'  symmetry.
 There are     8 symmetry adapted basis functions of A"  symmetry.
    35 basis functions,   210 primitive gaussians,    35 cartesian basis functions
    21 alpha electrons       20 beta electrons
       nuclear repulsion energy       196.4653992436 Hartrees.
 Integral buffers will be    131072 words long.
 Regular integral format.
 Two-electron integral symmetry is turned off.
 Do NDO integrals.
 One-electron integrals computed using PRISM.
 NBasis=    35 RedAO= T EigKep=  1.00D+00  NBF=    27     8
 NBsUse=    35 1.00D-06 EigRej= -1.00D+00 NBFU=    27     8
 Initial guess from the checkpoint file:  "geometry_chks/12_ClBzNeutralRadical.chk"
 B after Tr=     0.000000   -0.000000   -0.000000
         Rot=    0.999904    0.000000   -0.000000    0.013842 Ang=   1.59 deg.
 Initial guess orbital symmetries:
 Alpha Orbitals:
       Occupied  (A') (A') (A') (A') (A') (A') (A') (A') (A') (A')
                 (A") (A') (A") (A') (A") (A') (A') (A') (A') (A")
                 (A")
       Virtual   (A') (A") (A") (A') (A') (A') (A') (A") (A') (A')
                 (A') (A') (A') (A')
 Beta  Orbitals:
       Occupied  (A') (A') (A') (A') (A') (A') (A') (A') (A') (A')
                 (A") (A') (A") (A") (A') (A') (A') (A') (A") (A")
       Virtual   (A') (A") (A') (A') (A") (A') (A') (A') (A") (A')
                 (A') (A') (A') (A') (A')
 Initial guess <Sx>= 0.0000 <Sy>= 0.0000 <Sz>= 0.5000 <S**2>= 1.5078 S= 0.8258
 Keep J ints in memory in canonical form, NReq=862793.
 Overlap will be assumed to be unity.
 Requested convergence on RMS density matrix=1.00D-08 within  32 cycles.
 Requested convergence on MAX density matrix=1.00D-06.
 Requested convergence on             energy=1.00D-06.
 No special actions if energy rises.
 Fock symm off for IB=2 I1=    1 I=   28 J=    6 Cut=1.00D-07 Err=5.07D-03
 Fock matrix is not symmetric: symmetry in diagonalization turned off.
 SCF Done:  E(UAM1) =  0.303108378568     A.U. after   20 cycles
            NFock= 19  Conv=0.63D-08     -V/T= 1.0034
 <Sx>= 0.0000 <Sy>= 0.0000 <Sz>= 0.5000 <S**2>= 1.1652 S= 0.6896
 <L.S>=  0.00000000000    
 Annihilation of the first spin contaminant:
 S**2 before annihilation     1.1652,   after     0.9043
 QCSCF skips out because SCF is already converged.
 Calling FoFJK, ICntrl=      2127 FMM=F ISym2X=1 I1Cent= 0 IOpClX= 1 NMat=1 NMatS=1 NMatT=0.
 ***** Axes restored to original set *****
 -------------------------------------------------------------------
 Center     Atomic                   Forces (Hartrees/Bohr)
 Number     Number              X              Y              Z
 -------------------------------------------------------------------
      1        6          -0.018766129    0.012334497    0.000000000
      2        6          -0.008285070    0.131716565    0.000000000
      3        6           0.118846224    0.083130554    0.000000000
      4        6           0.130239077   -0.081629911    0.000000000
      5        6          -0.006046309   -0.004771541   -0.000000000
      6        6          -0.026239210   -0.019196641   -0.000000000
      7       17           0.006903945    0.005013995   -0.000000000
      8       17           0.005689569   -0.003452866   -0.000000000
      9        1          -0.104787626    0.057802792   -0.000000000
     10        1           0.001943492   -0.119826431   -0.000000000
     11        1          -0.099497964   -0.061121015   -0.000000000
 -------------------------------------------------------------------
 Cartesian Forces:  Max     0.131716565 RMS     0.056711869

 GradGradGradGradGradGradGradGradGradGradGradGradGradGradGradGradGradGrad
 Berny optimization.
 Using GEDIIS/GDIIS optimizer.
 FormGI is forming the generalized inverse of G from B-inverse, IUseBI=4.
 Internal  Forces:  Max     0.119839319 RMS     0.031014669
 Search for a local minimum.
 Step number   3 out of a maximum of   57
 All quantities printed in internal units (Hartrees-Bohrs-Radians)
 Mixed Optimization -- RFO/linear search
 Update second derivatives using D2CorX and points    2    3
 DE= -1.03D-01 DEPred=-1.07D-01 R= 9.70D-01
 TightC=F SS=  1.41D+00  RLast= 5.30D-01 DXNew= 8.4853D-01 1.5888D+00
 Trust test= 9.70D-01 RLast= 5.30D-01 DXMaxT set to 8.49D-01
 ITU=  1  1  0
 Use linear search instead of GDIIS.
     Eigenvalues ---    0.00134   0.02011   0.02011   0.02011   0.02011
     Eigenvalues ---    0.02011   0.02011   0.02011   0.02011   0.06517
     Eigenvalues ---    0.06588   0.15977   0.16000   0.16006   0.20485
     Eigenvalues ---    0.22593   0.24202   0.25000   0.25053   0.27008
     Eigenvalues ---    0.29050   0.40601   0.41475   0.44232   0.44657
     Eigenvalues ---    0.44884   8.39206
 RFO step:  Lambda=-9.82846464D-02 EMin= 1.33918265D-03
 Quartic linear search produced a step of  1.42545.
 Maximum step size (   0.849) exceeded in Quadratic search.
    -- Step size scaled by   0.942
 Iteration  1 RMS(Cart)=  0.07358035 RMS(Int)=  0.13962769
 Iteration  2 RMS(Cart)=  0.04592865 RMS(Int)=  0.09607435
 Iteration  3 RMS(Cart)=  0.04031152 RMS(Int)=  0.05518552
 Iteration  4 RMS(Cart)=  0.04031155 RMS(Int)=  0.01627429
 Iteration  5 RMS(Cart)=  0.01562741 RMS(Int)=  0.00011145
 Iteration  6 RMS(Cart)=  0.00000191 RMS(Int)=  0.00011144
 Iteration  7 RMS(Cart)=  0.00000000 RMS(Int)=  0.00011144
 ClnCor:  largest displacement from symmetrization is 1.12D-08 for atom     7.
 Variable       Old X    -DE/DX   Delta X   Delta X   Delta X     New X
                                 (Linear)    (Quad)   (Total)
    R1        2.61905   0.01654  -0.02791  -0.06447  -0.09256   2.52649
    R2        2.66365   0.01471   0.01784  -0.09496  -0.07713   2.58651
    R3        3.21810  -0.00665  -0.12594   0.12144  -0.00451   3.21360
    R4        2.57756   0.02225  -0.07263   0.00057  -0.07221   2.50536
    R5        2.93139  -0.11984  -0.33284  -0.48352  -0.81636   2.11503
    R6        2.57119   0.02807  -0.07806   0.00771  -0.07033   2.50086
    R7        2.79539  -0.11677  -0.55224   0.17431  -0.37793   2.41746
    R8        2.54367   0.02171  -0.11203   0.07163  -0.04023   2.50343
    R9        2.96478  -0.11967  -0.28079  -0.62957  -0.91035   2.05443
   R10        2.59403   0.01537  -0.05636  -0.02089  -0.07710   2.51693
   R11        3.21672  -0.00853  -0.12761   0.11866  -0.00895   3.20777
    A1        2.07253   0.00124  -0.02175   0.01007  -0.01189   2.06064
    A2        2.09448  -0.00033   0.00030   0.00076   0.00117   2.09565
    A3        2.11617  -0.00091   0.02144  -0.01082   0.01072   2.12690
    A4        2.11826   0.00517   0.02555  -0.01312   0.01211   2.13037
    A5        2.07617  -0.00380  -0.01932   0.00901  -0.01014   2.06603
    A6        2.08876  -0.00137  -0.00624   0.00411  -0.00197   2.08679
    A7        2.09641  -0.00475  -0.00185   0.02289   0.02090   2.11731
    A8        2.09428   0.00211   0.00207  -0.01584  -0.01370   2.08059
    A9        2.09249   0.00264  -0.00022  -0.00705  -0.00720   2.08529
   A10        2.07329  -0.00744  -0.01884  -0.02655  -0.04523   2.02806
   A11        2.11108   0.00468   0.01642   0.00462   0.02096   2.13204
   A12        2.09881   0.00276   0.00242   0.02193   0.02428   2.12309
   A13        2.16878   0.01007   0.07918  -0.05659   0.02300   2.19178
   A14        2.03710  -0.00429  -0.06229   0.06330   0.00112   2.03822
   A15        2.13438   0.00163   0.04224  -0.03905   0.00314   2.13752
   A16        2.11171   0.00266   0.02005  -0.02425  -0.00426   2.10745
    D1        0.00000  -0.00000   0.00000  -0.00000   0.00000   0.00000
    D2        3.14159  -0.00000   0.00000  -0.00000   0.00000   3.14159
    D3        3.14159   0.00000   0.00000   0.00000   0.00000   3.14159
    D4        0.00000  -0.00000   0.00000  -0.00000   0.00000   0.00000
    D5        0.00000   0.00000   0.00000   0.00000   0.00000   0.00000
    D6        3.14159   0.00000   0.00000   0.00000   0.00000   3.14159
    D7        3.14159  -0.00000   0.00000  -0.00000   0.00000   3.14159
    D8        0.00000  -0.00000   0.00000   0.00000   0.00000   0.00000
    D9        0.00000  -0.00000   0.00000   0.00000   0.00000   0.00000
   D10        3.14159  -0.00000   0.00000  -0.00000   0.00000   3.14159
   D11        3.14159   0.00000   0.00000   0.00000   0.00000   3.14159
   D12        0.00000   0.00000   0.00000   0.00000   0.00000   0.00000
   D13        0.00000   0.00000   0.00000   0.00000   0.00000   0.00000
   D14        3.14159  -0.00000   0.00000  -0.00000   0.00000   3.14159
   D15        3.14159   0.00000   0.00000   0.00000   0.00000   3.14159
   D16        0.00000   0.00000   0.00000  -0.00000   0.00000   0.00000
   D17        0.00000  -0.00000   0.00000  -0.00000   0.00000   0.00000
   D18        3.14159   0.00000   0.00000   0.00000   0.00000   3.14159
   D19        0.00000  -0.00000   0.00000  -0.00000   0.00000   0.00000
   D20        3.14159  -0.00000   0.00000  -0.00000   0.00000   3.14159
         Item               Value     Threshold  Converged?
 Maximum Force            0.119839     0.000450     NO 
 RMS     Force            0.031015     0.000300     NO 
 Maximum Displacement     0.851500     0.001800     NO 
 RMS     Displacement     0.197216     0.001200     NO 
 Predicted change in Energy=-2.395518D-01
 GradGradGradGradGradGradGradGradGradGradGradGradGradGradGradGradGradGrad

                          Input orientation:                          
 ---------------------------------------------------------------------
 Center     Atomic      Atomic             Coordinates (Angstroms)
 Number     Number       Type             X           Y           Z
 ---------------------------------------------------------------------
      1          6           0       -3.093794    0.239943    0.000000
      2          6           0       -1.933974    0.904990    0.000000
      3          6           0       -0.764562    0.280360    0.000000
      4          6           0       -0.690589   -1.040968    0.000000
      5          6           0       -1.844699   -1.691368    0.000000
      6          6           0       -3.051648   -1.128132    0.000000
      7         17           0       -4.455014   -2.083117    0.000000
      8         17           0       -4.565071    1.092737    0.000000
      9          1           0        0.260695   -1.567243    0.000000
     10          1           0       -1.962405    2.023855    0.000000
     11          1           0        0.312161    0.971141    0.000000
 ---------------------------------------------------------------------
                    Distance matrix (angstroms):
                    1          2          3          4          5
     1  C    0.000000
     2  C    1.336963   0.000000
     3  C    2.329582   1.325778   0.000000
     4  C    2.723256   2.309277   1.323397   0.000000
     5  C    2.300043   2.597893   2.248201   1.324761   0.000000
     6  C    1.368724   2.320082   2.686003   2.362668   1.331902
     7  Cl   2.692494   3.909530   4.382403   3.906017   2.639547
     8  Cl   1.700563   2.637786   3.886363   4.423155   3.892514
     9  H    3.810317   3.305830   2.113005   1.087155   2.109050
    10  H    2.112435   1.119225   2.115325   3.318230   3.717087
    11  H    3.483559   2.247109   1.279262   2.248131   3.426515
                    6          7          8          9         10
     6  C    0.000000
     7  Cl   1.697477   0.000000
     8  Cl   2.687509   3.177761   0.000000
     9  H    3.341323   4.743841   5.510309   0.000000
    10  H    3.334887   4.804197   2.764208   4.223524   0.000000
    11  H    3.965119   5.661665   4.878747   2.538906   2.506364
                   11
    11  H    0.000000
 Stoichiometry    C6H3Cl2(2)
 Framework group  CS[SG(C6H3Cl2)]
 Deg. of freedom    19
 Full point group                 CS      NOp   2
 Largest Abelian subgroup         CS      NOp   2
 Largest concise Abelian subgroup C1      NOp   1
                         Standard orientation:                         
 ---------------------------------------------------------------------
 Center     Atomic      Atomic             Coordinates (Angstroms)
 Number     Number       Type             X           Y           Z
 ---------------------------------------------------------------------
      1          6           0        0.000000   -0.652333    0.000000
      2          6           0       -1.197422   -1.247018    0.000000
      3          6           0       -2.327495   -0.553749    0.000000
      4          6           0       -2.322525    0.769638    0.000000
      5          6           0       -1.131676    1.350042    0.000000
      6          6           0        0.039530    0.715819    0.000000
      7         17           0        1.497358    1.585399    0.000000
      8         17           0        1.417791   -1.591366    0.000000
      9          1           0       -3.240725    1.351717    0.000000
     10          1           0       -1.235777   -2.365586    0.000000
     11          1           0       -3.443504   -1.179078    0.000000
 ---------------------------------------------------------------------
 Rotational constants (GHZ):           2.0388688           1.5116891           0.8680708
 Standard basis: VSTO-6G (5D, 7F)
 There are    27 symmetry adapted cartesian basis functions of A'  symmetry.
 There are     8 symmetry adapted cartesian basis functions of A"  symmetry.
 There are    27 symmetry adapted basis functions of A'  symmetry.
 There are     8 symmetry adapted basis functions of A"  symmetry.
    35 basis functions,   210 primitive gaussians,    35 cartesian basis functions
    21 alpha electrons       20 beta electrons
       nuclear repulsion energy       200.7609935124 Hartrees.
 Integral buffers will be    131072 words long.
 Regular integral format.
 Two-electron integral symmetry is turned off.
 Do NDO integrals.
 One-electron integrals computed using PRISM.
 NBasis=    35 RedAO= T EigKep=  1.00D+00  NBF=    27     8
 NBsUse=    35 1.00D-06 EigRej= -1.00D+00 NBFU=    27     8
 Initial guess from the checkpoint file:  "geometry_chks/12_ClBzNeutralRadical.chk"
 B after Tr=     0.000000    0.000000    0.000000
         Rot=    0.999915   -0.000000   -0.000000   -0.013023 Ang=  -1.49 deg.
 Initial guess orbital symmetries:
 Alpha Orbitals:
       Occupied  (A') (A') (A') (A') (A') (A') (A') (A') (A') (A')
                 (A") (A') (A") (A') (A") (A') (A') (A') (A') (A")
                 (A")
       Virtual   (A") (A") (A') (A') (A') (A') (A') (A") (A') (A')
                 (A') (A') (A') (A')
 Beta  Orbitals:
       Occupied  (A') (A') (A') (A') (A') (A') (A') (A') (A') (A')
                 (A") (A') (A") (A") (A') (A') (A') (A') (A") (A")
       Virtual   (A') (A") (A") (A') (A') (A') (A') (A') (A") (A')
                 (A') (A') (A') (A') (A')
 Initial guess <Sx>= 0.0000 <Sy>= 0.0000 <Sz>= 0.5000 <S**2>= 1.1652 S= 0.6896
 Keep J ints in memory in canonical form, NReq=862793.
 Overlap will be assumed to be unity.
 Requested convergence on RMS density matrix=1.00D-08 within  32 cycles.
 Requested convergence on MAX density matrix=1.00D-06.
 Requested convergence on             energy=1.00D-06.
 No special actions if energy rises.
 Fock symm off for IB=2 I1=    1 I=   28 J=   13 Cut=1.00D-07 Err=2.79D-03
 Fock matrix is not symmetric: symmetry in diagonalization turned off.
 SCF Done:  E(UAM1) =  0.147570698835     A.U. after   18 cycles
            NFock= 17  Conv=0.90D-08     -V/T= 1.0016
 <Sx>= 0.0000 <Sy>= 0.0000 <Sz>= 0.5000 <S**2>= 0.9316 S= 0.5870
 <L.S>=  0.00000000000    
 Annihilation of the first spin contaminant:
 S**2 before annihilation     0.9316,   after     0.7743
 QCSCF skips out because SCF is already converged.
 Calling FoFJK, ICntrl=      2127 FMM=F ISym2X=1 I1Cent= 0 IOpClX= 1 NMat=1 NMatS=1 NMatT=0.
 ***** Axes restored to original set *****
 -------------------------------------------------------------------
 Center     Atomic                   Forces (Hartrees/Bohr)
 Number     Number              X              Y              Z
 -------------------------------------------------------------------
      1        6          -0.086669642    0.018181811    0.000000000
      2        6          -0.008554213    0.123351385    0.000000000
      3        6           0.155168942    0.106996927    0.000000000
      4        6           0.079508590   -0.079281127    0.000000000
      5        6          -0.008203332   -0.060560908    0.000000000
      6        6          -0.076168213   -0.053691213   -0.000000000
      7       17          -0.000957209   -0.000541398    0.000000000
      8       17          -0.001908913   -0.000725942    0.000000000
      9        1           0.011694726   -0.007401222   -0.000000000
     10        1           0.001434247   -0.004393021   -0.000000000
     11        1          -0.065344984   -0.041935294   -0.000000000
 -------------------------------------------------------------------
 Cartesian Forces:  Max     0.155168942 RMS     0.052202948

 GradGradGradGradGradGradGradGradGradGradGradGradGradGradGradGradGradGrad
 Berny optimization.
 Using GEDIIS/GDIIS optimizer.
 FormGI is forming the generalized inverse of G from B-inverse, IUseBI=4.
 Internal  Forces:  Max     0.120305349 RMS     0.037786264
 Search for a local minimum.
 Step number   4 out of a maximum of   57
 All quantities printed in internal units (Hartrees-Bohrs-Radians)
 Mixed Optimization -- RFO/linear search
 Update second derivatives using D2CorX and points    3    4
 DE= -1.56D-01 DEPred=-2.40D-01 R= 6.49D-01
 TightC=F SS=  1.41D+00  RLast= 1.29D+00 DXNew= 1.4270D+00 3.8829D+00
 Trust test= 6.49D-01 RLast= 1.29D+00 DXMaxT set to 1.43D+00
 ITU=  1  1  1  0
 Use linear search instead of GDIIS.
     Eigenvalues ---    0.02011   0.02011   0.02011   0.02011   0.02011
     Eigenvalues ---    0.02011   0.02011   0.02011   0.02195   0.06524
     Eigenvalues ---    0.14355   0.15969   0.16005   0.16007   0.20087
     Eigenvalues ---    0.23786   0.24201   0.25003   0.25122   0.27068
     Eigenvalues ---    0.29052   0.40873   0.41304   0.44185   0.44675
     Eigenvalues ---    0.44848   7.80941
 RFO step:  Lambda=-4.96288033D-02 EMin= 2.01067203D-02
 Quartic linear search produced a step of -0.03870.
 Iteration  1 RMS(Cart)=  0.07003947 RMS(Int)=  0.04920192
 Iteration  2 RMS(Cart)=  0.02832178 RMS(Int)=  0.01995519
 Iteration  3 RMS(Cart)=  0.01899228 RMS(Int)=  0.00089388
 Iteration  4 RMS(Cart)=  0.00001007 RMS(Int)=  0.00089384
 Iteration  5 RMS(Cart)=  0.00000000 RMS(Int)=  0.00089384
 ClnCor:  largest displacement from symmetrization is 9.14D-09 for atom     9.
 Variable       Old X    -DE/DX   Delta X   Delta X   Delta X     New X
                                 (Linear)    (Quad)   (Total)
    R1        2.52649   0.11125   0.00358   0.03306   0.03537   2.56187
    R2        2.58651   0.08135   0.00298   0.07486   0.07799   2.66451
    R3        3.21360   0.00129   0.00017  -0.18354  -0.18337   3.03023
    R4        2.50536   0.11290   0.00279   0.00177   0.00320   2.50856
    R5        2.11503  -0.00443   0.03159   0.02540   0.05699   2.17202
    R6        2.50086   0.12031   0.00272   0.01731   0.01984   2.52069
    R7        2.41746  -0.07764   0.01462  -0.55120  -0.53658   1.88088
    R8        2.50343   0.08813   0.00156  -0.06929  -0.06641   2.43703
    R9        2.05443   0.01382   0.03523   0.17146   0.20669   2.26112
   R10        2.51693   0.07874   0.00298  -0.06047  -0.05604   2.46089
   R11        3.20777   0.00110   0.00035  -0.19627  -0.19592   3.01185
    A1        2.06064   0.00772   0.00046  -0.02482  -0.02561   2.03503
    A2        2.09565  -0.00131  -0.00005   0.00358   0.00416   2.09981
    A3        2.12690  -0.00641  -0.00041   0.02124   0.02144   2.14834
    A4        2.13037  -0.00991  -0.00047   0.02705   0.02397   2.15434
    A5        2.06603   0.00635   0.00039  -0.01818  -0.01648   2.04955
    A6        2.08679   0.00356   0.00008  -0.00888  -0.00749   2.07929
    A7        2.11731  -0.00566  -0.00081   0.01267   0.01029   2.12760
    A8        2.08059   0.00284   0.00053  -0.00991  -0.00860   2.07199
    A9        2.08529   0.00282   0.00028  -0.00276  -0.00170   2.08359
   A10        2.02806  -0.00859   0.00175  -0.10354  -0.10086   1.92719
   A11        2.13204   0.00513  -0.00081   0.06103   0.05976   2.19179
   A12        2.12309   0.00346  -0.00094   0.04251   0.04111   2.16420
   A13        2.19178   0.01653  -0.00089   0.18839   0.19060   2.38239
   A14        2.03822  -0.00009  -0.00004  -0.09976  -0.09839   1.93982
   A15        2.13752  -0.00010  -0.00012   0.06497   0.06415   2.20166
   A16        2.10745   0.00019   0.00016   0.03478   0.03425   2.14170
    D1        0.00000  -0.00000   0.00000  -0.00000   0.00000   0.00000
    D2        3.14159  -0.00000   0.00000  -0.00000   0.00000   3.14159
    D3        3.14159   0.00000   0.00000  -0.00000   0.00000   3.14159
    D4        0.00000  -0.00000   0.00000  -0.00000   0.00000   0.00000
    D5        0.00000   0.00000   0.00000   0.00000   0.00000   0.00000
    D6        3.14159   0.00000   0.00000   0.00000   0.00000   3.14159
    D7        3.14159  -0.00000   0.00000   0.00000   0.00000   3.14159
    D8        0.00000  -0.00000   0.00000   0.00000   0.00000   0.00000
    D9        0.00000  -0.00000   0.00000   0.00000   0.00000   0.00000
   D10        3.14159  -0.00000   0.00000   0.00000   0.00000   3.14159
   D11        3.14159   0.00000   0.00000   0.00000   0.00000   3.14159
   D12        0.00000  -0.00000   0.00000   0.00000   0.00000   0.00000
   D13        0.00000   0.00000   0.00000  -0.00000   0.00000   0.00000
   D14        3.14159  -0.00000   0.00000  -0.00000   0.00000   3.14159
   D15        3.14159   0.00000   0.00000  -0.00000   0.00000   3.14159
   D16        0.00000   0.00000   0.00000  -0.00000   0.00000   0.00000
   D17        0.00000   0.00000   0.00000   0.00000   0.00000   0.00000
   D18        3.14159   0.00000   0.00000   0.00000   0.00000   3.14159
   D19        0.00000  -0.00000   0.00000  -0.00000   0.00000   0.00000
   D20        3.14159  -0.00000   0.00000  -0.00000   0.00000   3.14159
         Item               Value     Threshold  Converged?
 Maximum Force            0.120305     0.000450     NO 
 RMS     Force            0.037786     0.000300     NO 
 Maximum Displacement     0.453220     0.001800     NO 
 RMS     Displacement     0.101040     0.001200     NO 
 Predicted change in Energy=-3.735968D-02
 GradGradGradGradGradGradGradGradGradGradGradGradGradGradGradGradGradGrad

                          Input orientation:                          
 ---------------------------------------------------------------------
 Center     Atomic      Atomic             Coordinates (Angstroms)
 Number     Number       Type             X           Y           Z
 ---------------------------------------------------------------------
      1          6           0       -3.124060    0.276878    0.000000
      2          6           0       -1.931588    0.921767    0.000000
      3          6           0       -0.761253    0.295271    0.000000
      4          6           0       -0.674207   -1.035779    0.000000
      5          6           0       -1.850849   -1.563637    0.000000
      6          6           0       -3.079626   -1.132417    0.000000
      7         17           0       -4.336380   -2.112605    0.000000
      8         17           0       -4.494426    1.109585    0.000000
      9          1           0        0.342287   -1.666990    0.000000
     10          1           0       -1.951125    2.070982    0.000000
     11          1           0        0.072327    0.839146    0.000000
 ---------------------------------------------------------------------
                    Distance matrix (angstroms):
                    1          2          3          4          5
     1  C    0.000000
     2  C    1.355681   0.000000
     3  C    2.362879   1.327472   0.000000
     4  C    2.779361   2.326584   1.333893   0.000000
     5  C    2.237982   2.486715   2.154706   1.289620   0.000000
     6  C    1.409996   2.353224   2.722709   2.407359   1.302246
     7  Cl   2.679431   3.871749   4.310383   3.817206   2.545434
     8  Cl   1.603528   2.569711   3.820953   4.381399   3.759603
     9  H    3.974190   3.445601   2.251281   1.196531   2.195569
    10  H    2.143498   1.149381   2.137509   3.358941   3.636002
    11  H    3.245464   2.005618   0.995318   2.018083   3.077657
                    6          7          8          9         10
     6  C    0.000000
     7  Cl   1.593801   0.000000
     8  Cl   2.651081   3.226063   0.000000
     9  H    3.463416   4.699840   5.577020   0.000000
    10  H    3.396363   4.815791   2.718945   4.385450   0.000000
    11  H    3.717778   5.305614   4.574754   2.520634   2.368919
                   11
    11  H    0.000000
 Stoichiometry    C6H3Cl2(2)
 Framework group  CS[SG(C6H3Cl2)]
 Deg. of freedom    19
 Full point group                 CS      NOp   2
 Largest Abelian subgroup         CS      NOp   2
 Largest concise Abelian subgroup C1      NOp   1
                         Standard orientation:                         
 ---------------------------------------------------------------------
 Center     Atomic      Atomic             Coordinates (Angstroms)
 Number     Number       Type             X           Y           Z
 ---------------------------------------------------------------------
      1          6           0        0.000000   -0.685886    0.000000
      2          6           0       -1.278984   -1.135411    0.000000
      3          6           0       -2.336352   -0.332819    0.000000
      4          6           0       -2.213189    0.995376    0.000000
      5          6           0       -0.968227    1.331811    0.000000
      6          6           0        0.177538    0.712888    0.000000
      7         17           0        1.572686    1.483448    0.000000
      8         17           0        1.222516   -1.723555    0.000000
      9          1           0       -3.117886    1.778453    0.000000
[...]
 Variable       Old X    -DE/DX   Delta X   Delta X   Delta X     New X
                                 (Linear)    (Quad)   (Total)
    R1        2.66091  -0.00003   0.00000  -0.00004  -0.00004   2.66088
    R2        2.68232  -0.00020   0.00000  -0.00042  -0.00042   2.68190
    R3        3.19330  -0.00030  -0.00000  -0.00091  -0.00091   3.19239
    R4        2.64679   0.00002   0.00000  -0.00005  -0.00005   2.64674
    R5        2.08117  -0.00001  -0.00000   0.00003   0.00003   2.08120
    R6        2.66318   0.00004   0.00000   0.00002   0.00003   2.66321
    R7        2.07665   0.00001   0.00000  -0.00003  -0.00003   2.07663
    R8        2.58621   0.00014   0.00000   0.00035   0.00035   2.58656
    R9        2.07283  -0.00023   0.00000  -0.00067  -0.00067   2.07216
   R10        2.60091  -0.00008   0.00000  -0.00010  -0.00010   2.60081
   R11        3.17526  -0.00011  -0.00000  -0.00024  -0.00025   3.17501
    A1        2.08669   0.00010   0.00000   0.00031   0.00031   2.08700
    A2        2.08812  -0.00005  -0.00000  -0.00018  -0.00018   2.08794
    A3        2.10838  -0.00006  -0.00000  -0.00013  -0.00013   2.10824
    A4        2.12092  -0.00000  -0.00000   0.00007   0.00007   2.12099
    A5        2.07892  -0.00001   0.00000  -0.00010  -0.00010   2.07882
    A6        2.08334   0.00001   0.00000   0.00004   0.00004   2.08338
    A7        2.09658  -0.00011   0.00000  -0.00044  -0.00044   2.09614
    A8        2.09351   0.00005  -0.00000   0.00019   0.00019   2.09370
    A9        2.09310   0.00006   0.00000   0.00025   0.00025   2.09335
   A10        2.00481   0.00007  -0.00000   0.00043   0.00043   2.00525
   A11        2.13622   0.00000  -0.00000   0.00007   0.00007   2.13629
   A12        2.14215  -0.00007   0.00000  -0.00050  -0.00050   2.14165
   A13        2.25658  -0.00008   0.00000  -0.00033  -0.00033   2.25625
   A14        2.00079   0.00001  -0.00000  -0.00004  -0.00004   2.00075
   A15        2.14961   0.00003  -0.00000   0.00022   0.00022   2.14982
   A16        2.13279  -0.00004   0.00000  -0.00018  -0.00018   2.13262
    D1        0.00000  -0.00000   0.00000  -0.00000   0.00000   0.00000
    D2        3.14159  -0.00000   0.00000  -0.00000   0.00000   3.14159
    D3        3.14159   0.00000   0.00000   0.00000   0.00000   3.14159
    D4        0.00000   0.00000   0.00000   0.00000   0.00000   0.00000
    D5        0.00000   0.00000   0.00000   0.00000   0.00000   0.00000
    D6        3.14159   0.00000   0.00000   0.00000   0.00000   3.14159
    D7        3.14159  -0.00000   0.00000  -0.00000   0.00000   3.14159
    D8        0.00000  -0.00000   0.00000  -0.00000   0.00000   0.00000
    D9        0.00000  -0.00000   0.00000  -0.00000   0.00000   0.00000
   D10        3.14159  -0.00000   0.00000  -0.00000   0.00000   3.14159
   D11        3.14159   0.00000   0.00000   0.00000   0.00000   3.14159
   D12        0.00000   0.00000   0.00000   0.00000   0.00000   0.00000
   D13        0.00000   0.00000   0.00000   0.00000   0.00000   0.00000
   D14        3.14159  -0.00000   0.00000  -0.00000   0.00000   3.14159
   D15        3.14159   0.00000   0.00000   0.00000   0.00000   3.14159
   D16        0.00000  -0.00000   0.00000  -0.00000   0.00000   0.00000
   D17        0.00000  -0.00000   0.00000  -0.00000   0.00000   0.00000
   D18        3.14159   0.00000   0.00000   0.00000   0.00000   3.14159
   D19        0.00000  -0.00000   0.00000  -0.00000   0.00000   0.00000
   D20        3.14159  -0.00000   0.00000  -0.00000   0.00000   3.14159
         Item               Value     Threshold  Converged?
 Maximum Force            0.000295     0.000450     YES
 RMS     Force            0.000077     0.000300     YES
 Maximum Displacement     0.001207     0.001800     YES
 RMS     Displacement     0.000319     0.001200     YES
 Predicted change in Energy=-4.113140D-07
 Optimization completed.
    -- Stationary point found.
                           ----------------------------
                           !   Optimized Parameters   !
                           ! (Angstroms and Degrees)  !
 --------------------------                            --------------------------
 ! Name  Definition              Value          Derivative Info.                !
 --------------------------------------------------------------------------------
 ! R1    R(1,2)                  1.4081         -DE/DX =    0.0                 !
 ! R2    R(1,6)                  1.4194         -DE/DX =   -0.0002              !
 ! R3    R(1,8)                  1.6898         -DE/DX =   -0.0003              !
 ! R4    R(2,3)                  1.4006         -DE/DX =    0.0                 !
 ! R5    R(2,10)                 1.1013         -DE/DX =    0.0                 !
 ! R6    R(3,4)                  1.4093         -DE/DX =    0.0                 !
 ! R7    R(3,11)                 1.0989         -DE/DX =    0.0                 !
 ! R8    R(4,5)                  1.3686         -DE/DX =    0.0001              !
 ! R9    R(4,9)                  1.0969         -DE/DX =   -0.0002              !
 ! R10   R(5,6)                  1.3763         -DE/DX =   -0.0001              !
 ! R11   R(6,7)                  1.6803         -DE/DX =   -0.0001              !
 ! A1    A(2,1,6)              119.5585         -DE/DX =    0.0001              !
 ! A2    A(2,1,8)              119.6403         -DE/DX =    0.0                 !
 ! A3    A(6,1,8)              120.8012         -DE/DX =   -0.0001              !
 ! A4    A(1,2,3)              121.5199         -DE/DX =    0.0                 !
 ! A5    A(1,2,10)             119.1135         -DE/DX =    0.0                 !
 ! A6    A(3,2,10)             119.3666         -DE/DX =    0.0                 !
 ! A7    A(2,3,4)              120.125          -DE/DX =   -0.0001              !
 ! A8    A(2,3,11)             119.9493         -DE/DX =    0.0                 !
 ! A9    A(4,3,11)             119.9258         -DE/DX =    0.0001              !
 ! A10   A(3,4,5)              114.8674         -DE/DX =    0.0001              !
 ! A11   A(3,4,9)              122.3964         -DE/DX =    0.0                 !
 ! A12   A(5,4,9)              122.7362         -DE/DX =   -0.0001              !
 ! A13   A(4,5,6)              129.2925         -DE/DX =   -0.0001              !
 ! A14   A(1,6,5)              114.6367         -DE/DX =    0.0                 !
 ! A15   A(1,6,7)              123.1633         -DE/DX =    0.0                 !
 ! A16   A(5,6,7)              122.2            -DE/DX =    0.0                 !
 ! D1    D(6,1,2,3)              0.0            -DE/DX =    0.0                 !
 ! D2    D(6,1,2,10)           180.0            -DE/DX =    0.0                 !
 ! D3    D(8,1,2,3)            180.0            -DE/DX =    0.0                 !
 ! D4    D(8,1,2,10)             0.0            -DE/DX =    0.0                 !
 ! D5    D(2,1,6,5)              0.0            -DE/DX =    0.0                 !
 ! D6    D(2,1,6,7)            180.0            -DE/DX =    0.0                 !
 ! D7    D(8,1,6,5)            180.0            -DE/DX =    0.0                 !
 ! D8    D(8,1,6,7)              0.0            -DE/DX =    0.0                 !
 ! D9    D(1,2,3,4)              0.0            -DE/DX =    0.0                 !
 ! D10   D(1,2,3,11)           180.0            -DE/DX =    0.0                 !
 ! D11   D(10,2,3,4)           180.0            -DE/DX =    0.0                 !
 ! D12   D(10,2,3,11)            0.0            -DE/DX =    0.0                 !
 ! D13   D(2,3,4,5)              0.0            -DE/DX =    0.0                 !
 ! D14   D(2,3,4,9)            180.0            -DE/DX =    0.0                 !
 ! D15   D(11,3,4,5)           180.0            -DE/DX =    0.0                 !
 ! D16   D(11,3,4,9)             0.0            -DE/DX =    0.0                 !
 ! D17   D(3,4,5,6)              0.0            -DE/DX =    0.0                 !
 ! D18   D(9,4,5,6)            180.0            -DE/DX =    0.0                 !
 ! D19   D(4,5,6,1)              0.0            -DE/DX =    0.0                 !
 ! D20   D(4,5,6,7)            180.0            -DE/DX =    0.0                 !
 --------------------------------------------------------------------------------
 GradGradGradGradGradGradGradGradGradGradGradGradGradGradGradGradGradGrad

                          Input orientation:                          
 ---------------------------------------------------------------------
 Center     Atomic      Atomic             Coordinates (Angstroms)
 Number     Number       Type             X           Y           Z
 ---------------------------------------------------------------------
      1          6           0       -3.134196    0.260362    0.000000
      2          6           0       -1.925197    0.982202    0.000000
      3          6           0       -0.684423    0.332423    0.000000
      4          6           0       -0.623332   -1.075546    0.000000
      5          6           0       -1.838894   -1.704338    0.000000
      6          6           0       -3.102461   -1.158705    0.000000
      7         17           0       -4.488142   -2.109079    0.000000
      8         17           0       -4.604651    1.092988    0.000000
      9          1           0        0.327448   -1.622532    0.000000
     10          1           0       -1.958371    2.083008    0.000000
     11          1           0        0.243318    0.921418    0.000000
 ---------------------------------------------------------------------
                    Distance matrix (angstroms):
                    1          2          3          4          5
     1  C    0.000000
     2  C    1.408094   0.000000
     3  C    2.450833   1.400619   0.000000
     4  C    2.844132   2.434991   1.409294   0.000000
     5  C    2.353265   2.687926   2.341197   1.368566   0.000000
     6  C    1.419423   2.443243   2.840840   2.480524   1.376342
     7  Cl   2.728997   4.015558   4.519869   4.000619   2.679987
     8  Cl   1.689824   2.681743   3.993326   4.533591   3.933757
     9  H    3.940592   3.443697   2.201302   1.096893   2.167886
    10  H    2.169009   1.101306   2.165062   3.429110   3.789231
    11  H    3.441598   2.169367   1.098917   2.176913   3.351150
                    6          7          8          9         10
     6  C    0.000000
     7  Cl   1.680275   0.000000
     8  Cl   2.706787   3.204186   0.000000
     9  H    3.461128   4.840107   5.630244   0.000000
    10  H    3.437681   4.896258   2.825410   4.353849   0.000000
    11  H    3.939689   5.618775   4.851004   2.545341   2.489322
                   11
    11  H    0.000000
 Stoichiometry    C6H3Cl2(2)
 Framework group  CS[SG(C6H3Cl2)]
 Deg. of freedom    19
 Full point group                 CS      NOp   2
 Largest Abelian subgroup         CS      NOp   2
 Largest concise Abelian subgroup C1      NOp   1
                         Standard orientation:                         
 ---------------------------------------------------------------------
 Center     Atomic      Atomic             Coordinates (Angstroms)
 Number     Number       Type             X           Y           Z
 ---------------------------------------------------------------------
      1          6           0        0.000000   -0.675778    0.000000
      2          6           0       -1.275693   -1.271878    0.000000
      3          6           0       -2.444532   -0.500159    0.000000
      4          6           0       -2.363173    0.906785    0.000000
      5          6           0       -1.090342    1.409650    0.000000
      6          6           0        0.111686    0.739244    0.000000
      7         17           0        1.586231    1.544875    0.000000
      8         17           0        1.378887   -1.652596    0.000000
      9          1           0       -3.253875    1.546960    0.000000
     10          1           0       -1.353819   -2.370409    0.000000
     11          1           0       -3.426994   -0.992487    0.000000
 ---------------------------------------------------------------------
 Rotational constants (GHZ):           1.9730064           1.4410160           0.8327812

 **********************************************************************

            Population analysis using the SCF Density.

 **********************************************************************

 Orbital symmetries:
 Alpha Orbitals:
       Occupied  (A') (A') (A') (A') (A') (A') (A') (A') (A') (A')
                 (A') (A") (A') (A') (A") (A") (A') (A') (A') (A")
                 (A")
       Virtual   (A") (A") (A') (A') (A") (A') (A') (A') (A') (A')
                 (A') (A') (A') (A')
 Beta  Orbitals:
       Occupied  (A') (A') (A') (A') (A') (A') (A') (A') (A') (A')
                 (A') (A") (A') (A') (A") (A") (A') (A') (A") (A")
       Virtual   (A') (A") (A") (A') (A') (A") (A') (A') (A') (A')
                 (A') (A') (A') (A') (A')
 The electronic state is 2-A'.
 Alpha  occ. eigenvalues --   -1.47129  -1.39477  -1.38842  -1.16596  -1.15279
 Alpha  occ. eigenvalues --   -0.88445  -0.86190  -0.68172  -0.62962  -0.61955
 Alpha  occ. eigenvalues --   -0.57326  -0.56073  -0.51688  -0.49370  -0.48453
 Alpha  occ. eigenvalues --   -0.46271  -0.45346  -0.44338  -0.39630  -0.38409
 Alpha  occ. eigenvalues --   -0.36352
 Alpha virt. eigenvalues --   -0.00474   0.00333   0.03396   0.04757   0.08001
 Alpha virt. eigenvalues --    0.12331   0.12753   0.13611   0.14221   0.15247
 Alpha virt. eigenvalues --    0.16602   0.17704   0.18090   0.18855
  Beta  occ. eigenvalues --   -1.46464  -1.39448  -1.38542  -1.16445  -1.13904
  Beta  occ. eigenvalues --   -0.88059  -0.83928  -0.67976  -0.61978  -0.60984
  Beta  occ. eigenvalues --   -0.57137  -0.55826  -0.50629  -0.49000  -0.48304
  Beta  occ. eigenvalues --   -0.46102  -0.44685  -0.44107  -0.37656  -0.36485
  Beta virt. eigenvalues --   -0.00680  -0.00551   0.01799   0.03943   0.05034
  Beta virt. eigenvalues --    0.08752   0.12716   0.13080   0.13646   0.14779
  Beta virt. eigenvalues --    0.15613   0.16893   0.17810   0.19033   0.19849
          Condensed to atoms (all electrons):
               1          2          3          4          5          6
     1  C    4.062339   0.000000   0.000000   0.000000   0.000000   0.000000
     2  C    0.000000   4.131118   0.000000   0.000000   0.000000   0.000000
     3  C    0.000000   0.000000   4.116455   0.000000   0.000000   0.000000
     4  C    0.000000   0.000000   0.000000   4.113154   0.000000   0.000000
     5  C    0.000000   0.000000   0.000000   0.000000   4.051013   0.000000
     6  C    0.000000   0.000000   0.000000   0.000000   0.000000   4.059171
     7  Cl   0.000000   0.000000   0.000000   0.000000   0.000000   0.000000
     8  Cl   0.000000   0.000000   0.000000   0.000000   0.000000   0.000000
     9  H    0.000000   0.000000   0.000000   0.000000   0.000000   0.000000
    10  H    0.000000   0.000000   0.000000   0.000000   0.000000   0.000000
    11  H    0.000000   0.000000   0.000000   0.000000   0.000000   0.000000
               7          8          9         10         11
     1  C    0.000000   0.000000   0.000000   0.000000   0.000000
     2  C    0.000000   0.000000   0.000000   0.000000   0.000000
     3  C    0.000000   0.000000   0.000000   0.000000   0.000000
     4  C    0.000000   0.000000   0.000000   0.000000   0.000000
     5  C    0.000000   0.000000   0.000000   0.000000   0.000000
     6  C    0.000000   0.000000   0.000000   0.000000   0.000000
     7  Cl   6.952480   0.000000   0.000000   0.000000   0.000000
     8  Cl   0.000000   6.979265   0.000000   0.000000   0.000000
     9  H    0.000000   0.000000   0.835531   0.000000   0.000000
    10  H    0.000000   0.000000   0.000000   0.846599   0.000000
    11  H    0.000000   0.000000   0.000000   0.000000   0.852875
          Atomic-Atomic Spin Densities.
               1          2          3          4          5          6
     1  C    0.490089   0.000000   0.000000   0.000000   0.000000   0.000000
     2  C    0.000000  -0.461178   0.000000   0.000000   0.000000   0.000000
     3  C    0.000000   0.000000   0.498569   0.000000   0.000000   0.000000
     4  C    0.000000   0.000000   0.000000  -0.487037   0.000000   0.000000
     5  C    0.000000   0.000000   0.000000   0.000000   1.388827   0.000000
     6  C    0.000000   0.000000   0.000000   0.000000   0.000000  -0.484812
     7  Cl   0.000000   0.000000   0.000000   0.000000   0.000000   0.000000
     8  Cl   0.000000   0.000000   0.000000   0.000000   0.000000   0.000000
     9  H    0.000000   0.000000   0.000000   0.000000   0.000000   0.000000
    10  H    0.000000   0.000000   0.000000   0.000000   0.000000   0.000000
    11  H    0.000000   0.000000   0.000000   0.000000   0.000000   0.000000
               7          8          9         10         11
     1  C    0.000000   0.000000   0.000000   0.000000   0.000000
     2  C    0.000000   0.000000   0.000000   0.000000   0.000000
     3  C    0.000000   0.000000   0.000000   0.000000   0.000000
     4  C    0.000000   0.000000   0.000000   0.000000   0.000000
     5  C    0.000000   0.000000   0.000000   0.000000   0.000000
     6  C    0.000000   0.000000   0.000000   0.000000   0.000000
     7  Cl   0.000044   0.000000   0.000000   0.000000   0.000000
     8  Cl   0.000000   0.015162   0.000000   0.000000   0.000000
     9  H    0.000000   0.000000   0.032745   0.000000   0.000000
    10  H    0.000000   0.000000   0.000000   0.027099   0.000000
    11  H    0.000000   0.000000   0.000000   0.000000  -0.019508
 Mulliken charges and spin densities:
               1          2
     1  C   -0.062339   0.490089
     2  C   -0.131118  -0.461178
     3  C   -0.116455   0.498569
     4  C   -0.113154  -0.487037
     5  C   -0.051013   1.388827
     6  C   -0.059171  -0.484812
     7  Cl   0.047520   0.000044
     8  Cl   0.020735   0.015162
     9  H    0.164469   0.032745
    10  H    0.153401   0.027099
    11  H    0.147125  -0.019508
 Sum of Mulliken charges =  -0.00000   1.00000
 Mulliken charges and spin densities with hydrogens summed into heavy atoms:
               1          2
     1  C   -0.062339   0.490089
     2  C    0.022283  -0.434079
     3  C    0.030670   0.479061
     4  C    0.051315  -0.454292
     5  C   -0.051013   1.388827
     6  C   -0.059171  -0.484812
     7  Cl   0.047520   0.000044
     8  Cl   0.020735   0.015162
 Charge=             -0.0000 electrons
 Dipole moment (field-independent basis, Debye):
    X=             -1.7595    Y=             -0.8807    Z=              0.0000  Tot=              1.9676
 N-N= 1.980474928479D+02 E-N=-2.751953578291D+02  KE=-9.044489863282D+01
 Symmetry A'   KE=-7.006288847596D+01
 Symmetry A"   KE=-2.038201015686D+01
 Symmetry A'   SP= 1.000000000000D+00
 Symmetry A"   SP= 2.886579864025D-15
 1\1\GINC-SH02-01N19\FOpt\UAM1\ZDO\C6H3Cl2(2)\JLAPIER\09-Dec-2025\0\\# 
 opt am1 SCF=XQC\\Neutral Radical (removed 4) 12_\\0,2\C,-3.1341955097,
 0.2603624887,0.\C,-1.9251973331,0.9822020986,0.\C,-0.6844225552,0.3324
 231527,0.\C,-0.6233317373,-1.075546419,0.\C,-1.8388942627,-1.704338414
 ,0.\C,-3.1024610215,-1.1587053258,0.\Cl,-4.4881421898,-2.1090792882,0.
 \Cl,-4.6046509058,1.0929878912,0.\H,0.3274477455,-1.6225323257,0.\H,-1
 .9583705487,2.0830083265,0.\H,0.2433183183,0.9214178151,0.\\Version=ES
 64L-G16RevB.01\State=2-A'\HF=0.0975555\S2=1.252076\S2-1=0.\S2A=0.96866
 \RMSD=9.360e-09\RMSF=1.023e-04\Dipole=0.6537375,0.4146151,0.\PG=CS [SG
 (C6H3Cl2)]\\@


 Democracy is the recurrent suspicion that more than half of the people
 are right more than half of the time.
 -- E. B. White
 Job cpu time:       0 days  0 hours  0 minutes 10.0 seconds.
 Elapsed time:       0 days  0 hours  0 minutes 18.8 seconds.
 File lengths (MBytes):  RWF=     10 Int=      0 D2E=      0 Chk=      2 Scr=      1
 Normal termination of Gaussian 16 at Tue Dec  9 08:35:02 2025.
