 Entering Gaussian System, Link 0=g16
 Initial command:
 /share/software/user/restricted/gaussian/g16.B01/l1.exe "/home/users/jlapier/Chloroaromatics/Gau-9374.inp" -scrdir="/home/users/jlapier/Chloroaromatics/"
 Entering Link 1 = /share/software/user/restricted/gaussian/g16.B01/l1.exe PID=      9375.
  
 Copyright (c) 1988-2017, Gaussian, Inc.  All Rights Reserved.
  
 This is part of the Gaussian(R) 16 program.  It is based on
 the Gaussian(R) 09 system (copyright 2009, Gaussian, Inc.),
 the Gaussian(R) 03 system (copyright 2003, Gaussian, Inc.),
 the Gaussian(R) 98 system (copyright 1998, Gaussian, Inc.),
 the Gaussian(R) 94 system (copyright 1995, Gaussian, Inc.),
 the Gaussian 92(TM) system (copyright 1992, Gaussian, Inc.),
 the Gaussian 90(TM) system (copyright 1990, Gaussian, Inc.),
 the Gaussian 88(TM) system (copyright 1988, Gaussian, Inc.),
 the Gaussian 86(TM) system (copyright 1986, Carnegie Mellon
 University), and the Gaussian 82(TM) system (copyright 1983,
 Carnegie Mellon University). Gaussian is a federally registered
 trademark of Gaussian, Inc.
  
 This software contains proprietary and confidential information,
 including trade secrets, belonging to Gaussian, Inc.
  
 This software is provided under written license and may be
 used, copied, transmitted, or stored only in accord with that
 written license.
  
 The following legend is applicable only to US Government
 contracts under FAR:
  
                    RESTRICTED RIGHTS LEGEND
  
 Use, reproduction and disclosure by the US Government is
 subject to restrictions as set forth in subparagraphs (a)
 and (c) of the Commercial Computer Software - Restricted
 Rights clause in FAR 52.227-19.
  
 Gaussian, Inc.
 340 Quinnipiac St., Bldg. 40, Wallingford CT 06492
  
  
 ---------------------------------------------------------------
 Warning -- This program may not be used in any manner that
 competes with the business of Gaussian, Inc. or will provide
 assistance to any competitor of Gaussian, Inc.  The licensee
 of this program is prohibited from giving any competitor of
 Gaussian, Inc. access to this program.  By using this program,
 the user acknowledges that Gaussian, Inc. is engaged in the
 business of creating and licensing software in the field of
 computational chemistry and represents and warrants to the
 licensee that it is not a competitor of Gaussian, Inc. and that
 it will not use this program in any manner prohibited above.
 ---------------------------------------------------------------
  

 Cite this work as:
 Gaussian 16, Revision B.01,
 M. J. Frisch, G. W. Trucks, H. B. Schlegel, G. E. Scuseria, 
 M. A. Robb, J. R. Cheeseman, G. Scalmani, V. Barone, 
 G. A. Petersson, H. Nakatsuji, X. Li, M. Caricato, A. V. Marenich, 
 J. Bloino, B. G. Janesko, R. Gomperts, B. Mennucci, H. P. Hratchian, 
 J. V. Ortiz, A. F. Izmaylov, J. L. Sonnenberg, D. Williams-Young, 
 F. Ding, F. Lipparini, F. Egidi, J. Goings, B. Peng, A. Petrone, 
 T. Henderson, D. Ranasinghe, V. G. Zakrzewski, J. Gao, N. Rega, 
 G. Zheng, W. Liang, M. Hada, M. Ehara, K. Toyota, R. Fukuda, 
 J. Hasegawa, M. Ishida, T. Nakajima, Y. Honda, O. Kitao, H. Nakai, 
 T. Vreven, K. Throssell, J. A. Montgomery, Jr., J. E. Peralta, 
 F. Ogliaro, M. J. Bearpark, J. J. Heyd, E. N. Brothers, K. N. Kudin, 
 V. N. Staroverov, T. A. Keith, R. Kobayashi, J. Normand, 
 K. Raghavachari, A. P. Rendell, J. C. Burant, S. S. Iyengar, 
 J. Tomasi, M. Cossi, J. M. Millam, M. Klene, C. Adamo, R. Cammi, 
 J. W. Ochterski, R. L. Martin, K. Morokuma, O. Farkas, 
 J. B. Foresman, and D. J. Fox, Gaussian, Inc., Wallingford CT, 2016.
 
 ******************************************
 Gaussian 16:  ES64L-G16RevB.01 20-Dec-2017
                 9-Dec-2025 
 ******************************************
 %mem=2GB
 %nprocshare=1
 Will use up to    1 processors via shared memory.
 %chk=geometry_chks/12_ClBzNeutralRadical.chk
 -----------------
 # opt am1 SCF=XQC
 -----------------
 1/18=20,19=15,26=1,38=1/1,3;
 2/9=110,12=2,17=6,18=5,40=1/2;
 3/5=2,25=1,41=700000,71=1/1,2,3;
 4/35=1/1;
 5/5=2,8=3,13=1,35=1,38=5/2,8;
 6/7=2,8=2,9=2,10=2,28=1/1;
 7//1,2,3,16;
 1/18=20,19=15,26=1/3(2);
 2/9=110/2;
 99//99;
 2/9=110/2;
 3/5=2,25=1,41=700000,71=1,135=20/1,2,3;
 4/5=5,16=3,35=1/1;
 5/5=2,8=3,13=1,35=1,38=5/2,8;
 7//1,2,3,16;
 1/18=20,19=15,26=1/3(-5);
 2/9=110/2;
 6/7=2,8=2,9=2,10=2,19=2,28=1/1;
 99/9=1/99;
 -------------------------------
 Neutral Radical (removed 4) 12_
 -------------------------------
 Symbolic Z-matrix:
 Charge =  0 Multiplicity = 2
 C                    -3.20928   0.19943   0. 
 C                    -2.0115    0.93555   0. 
 C                    -0.77511   0.2663    0. 
 C                    -0.7365   -1.13907   0. 
 C                    -1.93429  -1.87519   0. 
 C                    -3.17067  -1.20594   0. 
 Cl                   -4.67483  -2.13035   0. 
 Cl                   -4.76193   1.03987   0. 
 H                    -2.05998   2.7004    0. 
 H                     0.81614  -1.97951   0. 
 H                    -1.8858   -3.64003   0. 
 
 Add virtual bond connecting atoms H11        and C5         Dist= 3.34D+00.
 Add virtual bond connecting atoms H10        and C4         Dist= 3.34D+00.
 Add virtual bond connecting atoms H9         and C2         Dist= 3.34D+00.

 GradGradGradGradGradGradGradGradGradGradGradGradGradGradGradGradGradGrad
 Berny optimization.
 Initialization pass.
                           ----------------------------
                           !    Initial Parameters    !
                           ! (Angstroms and Degrees)  !
 --------------------------                            --------------------------
 ! Name  Definition              Value          Derivative Info.                !
 --------------------------------------------------------------------------------
 ! R1    R(1,2)                  1.4059         estimate D2E/DX2                !
 ! R2    R(1,6)                  1.4059         estimate D2E/DX2                !
 ! R3    R(1,8)                  1.7655         estimate D2E/DX2                !
 ! R4    R(2,3)                  1.4059         estimate D2E/DX2                !
 ! R5    R(2,9)                  1.7655         estimate D2E/DX2                !
 ! R6    R(3,4)                  1.4059         estimate D2E/DX2                !
 ! R7    R(4,5)                  1.4059         estimate D2E/DX2                !
 ! R8    R(4,10)                 1.7655         estimate D2E/DX2                !
 ! R9    R(5,6)                  1.4059         estimate D2E/DX2                !
 ! R10   R(5,11)                 1.7655         estimate D2E/DX2                !
 ! R11   R(6,7)                  1.7655         estimate D2E/DX2                !
 ! A1    A(2,1,6)              119.9999         estimate D2E/DX2                !
 ! A2    A(2,1,8)              119.9999         estimate D2E/DX2                !
 ! A3    A(6,1,8)              120.0001         estimate D2E/DX2                !
 ! A4    A(1,2,3)              120.0            estimate D2E/DX2                !
 ! A5    A(1,2,9)              120.0001         estimate D2E/DX2                !
 ! A6    A(3,2,9)              119.9999         estimate D2E/DX2                !
 ! A7    A(2,3,4)              120.0001         estimate D2E/DX2                !
 ! A8    A(3,4,5)              119.9997         estimate D2E/DX2                !
 ! A9    A(3,4,10)             120.0003         estimate D2E/DX2                !
 ! A10   A(5,4,10)             120.0            estimate D2E/DX2                !
 ! A11   A(4,5,6)              120.0            estimate D2E/DX2                !
 ! A12   A(4,5,11)             119.9996         estimate D2E/DX2                !
 ! A13   A(6,5,11)             120.0004         estimate D2E/DX2                !
 ! A14   A(1,6,5)              120.0003         estimate D2E/DX2                !
 ! A15   A(1,6,7)              119.9999         estimate D2E/DX2                !
 ! A16   A(5,6,7)              119.9998         estimate D2E/DX2                !
 ! D1    D(6,1,2,3)              0.0            estimate D2E/DX2                !
 ! D2    D(6,1,2,9)            180.0            estimate D2E/DX2                !
 ! D3    D(8,1,2,3)            180.0            estimate D2E/DX2                !
 ! D4    D(8,1,2,9)              0.0            estimate D2E/DX2                !
 ! D5    D(2,1,6,5)              0.0            estimate D2E/DX2                !
 ! D6    D(2,1,6,7)            180.0            estimate D2E/DX2                !
 ! D7    D(8,1,6,5)            180.0            estimate D2E/DX2                !
 ! D8    D(8,1,6,7)              0.0            estimate D2E/DX2                !
 ! D9    D(1,2,3,4)              0.0            estimate D2E/DX2                !
 ! D10   D(9,2,3,4)            180.0            estimate D2E/DX2                !
 ! D11   D(2,3,4,5)              0.0            estimate D2E/DX2                !
 ! D12   D(2,3,4,10)           180.0            estimate D2E/DX2                !
 ! D13   D(3,4,5,6)              0.0            estimate D2E/DX2                !
 ! D14   D(3,4,5,11)           180.0            estimate D2E/DX2                !
 ! D15   D(10,4,5,6)           180.0            estimate D2E/DX2                !
 ! D16   D(10,4,5,11)            0.0            estimate D2E/DX2                !
 ! D17   D(4,5,6,1)              0.0            estimate D2E/DX2                !
 ! D18   D(4,5,6,7)            180.0            estimate D2E/DX2                !
 ! D19   D(11,5,6,1)           180.0            estimate D2E/DX2                !
 ! D20   D(11,5,6,7)             0.0            estimate D2E/DX2                !
 --------------------------------------------------------------------------------
 Trust Radius=3.00D-01 FncErr=1.00D-07 GrdErr=1.00D-07 EigMax=2.50D+02 EigMin=1.00D-04
 Number of steps in this run=     57 maximum allowed number of steps=    100.
 GradGradGradGradGradGradGradGradGradGradGradGradGradGradGradGradGradGrad

                          Input orientation:                          
 ---------------------------------------------------------------------
 Center     Atomic      Atomic             Coordinates (Angstroms)
 Number     Number       Type             X           Y           Z
 ---------------------------------------------------------------------
      1          6           0       -3.209280    0.199430    0.000000
      2          6           0       -2.011500    0.935550    0.000000
      3          6           0       -0.775110    0.266300    0.000000
      4          6           0       -0.736500   -1.139070    0.000000
      5          6           0       -1.934290   -1.875190    0.000000
      6          6           0       -3.170670   -1.205940    0.000000
      7         17           0       -4.674830   -2.130350    0.000000
      8         17           0       -4.761930    1.039870    0.000000
      9          1           0       -2.059980    2.700400    0.000000
     10          1           0        0.816140   -1.979510    0.000000
     11          1           0       -1.885800   -3.640030    0.000000
 ---------------------------------------------------------------------
                    Distance matrix (angstroms):
                    1          2          3          4          5
     1  C    0.000000
     2  C    1.405898   0.000000
     3  C    2.435088   1.405900   0.000000
     4  C    2.811801   2.435092   1.405900   0.000000
     5  C    2.435087   2.811800   2.435093   1.405907   0.000000
     6  C    1.405900   2.435088   2.811796   2.435088   1.405892
     7  Cl   2.752401   4.061166   4.577308   4.061167   2.752393
     8  Cl   1.765520   2.752408   4.061175   4.577321   4.061173
     9  H    2.752406   1.765516   2.752405   4.061173   4.577316
    10  H    4.577312   4.061173   2.752406   1.765511   2.752408
    11  H    4.061164   4.577306   4.061163   2.752397   1.765506
                    6          7          8          9         10
     6  C    0.000000
     7  Cl   1.765512   0.000000
     8  Cl   2.752412   3.171416   0.000000
     9  H    4.061173   5.493049   3.171418   0.000000
    10  H    4.061165   5.493041   6.342832   5.493052   0.000000
    11  H    2.752396   3.171407   5.493049   6.342822   3.171404
                   11
    11  H    0.000000
 Stoichiometry    C6H3Cl2(2)
 Framework group  CS[SG(C6H3Cl2)]
 Deg. of freedom    19
 Full point group                 CS      NOp   2
 Largest Abelian subgroup         CS      NOp   2
 Largest concise Abelian subgroup C1      NOp   1
                         Standard orientation:                         
 ---------------------------------------------------------------------
 Center     Atomic      Atomic             Coordinates (Angstroms)
 Number     Number       Type             X           Y           Z
 ---------------------------------------------------------------------
      1          6           0        0.639601   -0.341520   -0.000000
      2          6           0        1.857145    0.361428   -0.000000
      3          6           0        1.857145    1.767328   -0.000000
      4          6           0        0.639601    2.470281   -0.000000
      5          6           0       -0.577948    1.767324    0.000000
      6          6           0       -0.577943    0.361432    0.000000
      7         17           0       -2.106921   -0.521324    0.000000
      8         17           0        0.639602   -2.107040   -0.000000
      9          1           0        3.386128   -0.521327   -0.000000
     10          1           0        0.639596    4.235792   -0.000000
     11          1           0       -2.106917    2.650083    0.000000
 ---------------------------------------------------------------------
 Rotational constants (GHZ):           1.8763995           1.4055995           0.8036158
 Standard basis: VSTO-6G (5D, 7F)
 There are    27 symmetry adapted cartesian basis functions of A'  symmetry.
 There are     8 symmetry adapted cartesian basis functions of A"  symmetry.
 There are    27 symmetry adapted basis functions of A'  symmetry.
 There are     8 symmetry adapted basis functions of A"  symmetry.
    35 basis functions,   210 primitive gaussians,    35 cartesian basis functions
    21 alpha electrons       20 beta electrons
       nuclear repulsion energy       193.4145188498 Hartrees.
 Integral buffers will be    131072 words long.
 Regular integral format.
 Two-electron integral symmetry is turned off.
 Do NDO integrals.
 One-electron integrals computed using PRISM.
 NBasis=    35 RedAO= T EigKep=  1.00D+00  NBF=    27     8
 NBsUse=    35 1.00D-06 EigRej= -1.00D+00 NBFU=    27     8
 Simple Huckel Guess.
 Initial guess orbital symmetries:
 Alpha Orbitals:
       Occupied  (A') (A') (A') (A') (A') (A') (A') (A') (A") (A')
                 (A') (A') (A') (A") (A") (A') (A') (A") (A') (A")
                 (A')
       Virtual   (A') (A") (A") (A') (A') (A") (A') (A') (A') (A')
                 (A') (A') (A') (A')
 Beta  Orbitals:
       Occupied  (A') (A') (A') (A') (A') (A') (A') (A') (A") (A')
                 (A') (A') (A') (A") (A") (A') (A') (A") (A') (A")
       Virtual   (A') (A') (A") (A") (A') (A') (A") (A') (A') (A')
                 (A') (A') (A') (A') (A')
 The electronic state of the initial guess is 2-A'.
 Initial guess <Sx>= 0.0000 <Sy>= 0.0000 <Sz>= 0.5000 <S**2>= 0.7500 S= 0.5000
 Keep J ints in memory in canonical form, NReq=862793.
 Overlap will be assumed to be unity.
 Requested convergence on RMS density matrix=1.00D-08 within  32 cycles.
 Requested convergence on MAX density matrix=1.00D-06.
 Requested convergence on             energy=1.00D-06.
 No special actions if energy rises.
 Fock symm off for IB=2 I1=    1 I=   28 J=   22 Cut=1.00D-07 Err=4.85D-03
 Fock matrix is not symmetric: symmetry in diagonalization turned off.
 Rare condition: small coef for last iteration:  0.000D+00
 Rare condition: small coef for last iteration:  0.000D+00
 Rare condition: small coef for last iteration:  0.000D+00
 Rare condition: small coef for last iteration:  0.000D+00
 Rare condition: small coef for last iteration:  0.000D+00
 Rare condition: small coef for last iteration:  0.000D+00
 Rare condition: small coef for last iteration:  0.000D+00
 >>>>>>>>>> Convergence criterion not met.
 SCF Done:  E(UAM1) =  0.479016763093     A.U. after   33 cycles
            NFock= 32  Conv=0.59D-05     -V/T= 1.0053
 <Sx>= 0.0000 <Sy>= 0.0000 <Sz>= 0.5000 <S**2>= 1.1518 S= 0.6840
 <L.S>=  0.00000000000    
 Annihilation of the first spin contaminant:
 S**2 before annihilation     1.1518,   after     0.9032
 Keep J ints in memory in canonical form, NReq=863193.
 LinEq1:  Iter=  0 NonCon=     1 RMS=2.26D-07 Max=2.41D-06 NDo=     1
 AX will form     1 AO Fock derivatives at one time.
 LinEq1:  Iter=  1 NonCon=     1 RMS=3.43D-08 Max=2.41D-07 NDo=     1
 LinEq1:  Iter=  2 NonCon=     1 RMS=8.99D-09 Max=6.92D-08 NDo=     1
 LinEq1:  Iter=  3 NonCon=     1 RMS=3.16D-09 Max=3.34D-08 NDo=     1
 LinEq1:  Iter=  4 NonCon=     1 RMS=8.54D-10 Max=7.58D-09 NDo=     1
 LinEq1:  Iter=  5 NonCon=     1 RMS=2.33D-10 Max=1.64D-09 NDo=     1
 LinEq1:  Iter=  6 NonCon=     1 RMS=7.14D-11 Max=7.30D-10 NDo=     1
 LinEq1:  Iter=  7 NonCon=     0 RMS=2.10D-11 Max=1.53D-10 NDo=     1
 Linear equations converged to 2.370D-11 2.370D-10 after     7 iterations.
 LinEq1:  Iter=  0 NonCon=     1 RMS=1.42D-07 Max=1.04D-06 NDo=     1
 LinEq1:  Iter=  1 NonCon=     1 RMS=5.22D-08 Max=5.33D-07 NDo=     1
 LinEq1:  Iter=  2 NonCon=     1 RMS=1.58D-08 Max=1.18D-07 NDo=     1
 LinEq1:  Iter=  3 NonCon=     1 RMS=4.26D-09 Max=3.95D-08 NDo=     1
 LinEq1:  Iter=  4 NonCon=     1 RMS=1.08D-09 Max=8.78D-09 NDo=     1
 LinEq1:  Iter=  5 NonCon=     1 RMS=3.81D-10 Max=3.04D-09 NDo=     1
 LinEq1:  Iter=  6 NonCon=     1 RMS=1.07D-10 Max=7.74D-10 NDo=     1
 LinEq1:  Iter=  7 NonCon=     1 RMS=2.01D-11 Max=1.86D-10 NDo=     1
 LinEq1:  Iter=  8 NonCon=     0 RMS=4.27D-12 Max=2.98D-11 NDo=     1
 Linear equations converged to 1.967D-11 1.967D-10 after     8 iterations.
 Incorrect curvature in search direction -- initial direction reversed.
     Minimum is close to point 15 DX=  0.00D+00 DF=  0.00D+00 DXR=  0.00D+00 DFR=  0.00D+00 which will be used.
 Gradient too large for Newton-Raphson -- use scaled steepest descent instead.
 Gradient too large for Newton-Raphson -- use scaled steepest descent instead.
     Accept linear search using points  3 and  4.
 Gradient too large for Newton-Raphson -- use scaled steepest descent instead.
 LinEq1:  Iter=  0 NonCon=     1 RMS=7.86D-04 Max=7.38D-03 NDo=     1
 LinEq1:  Iter=  1 NonCon=     1 RMS=3.79D-04 Max=2.76D-03 NDo=     1
 LinEq1:  Iter=  2 NonCon=     1 RMS=3.17D-05 Max=2.49D-04 NDo=     1
 LinEq1:  Iter=  3 NonCon=     1 RMS=1.48D-05 Max=9.21D-05 NDo=     1
 LinEq1:  Iter=  4 NonCon=     1 RMS=2.79D-06 Max=2.53D-05 NDo=     1
 LinEq1:  Iter=  5 NonCon=     1 RMS=8.63D-07 Max=7.91D-06 NDo=     1
 LinEq1:  Iter=  6 NonCon=     1 RMS=1.29D-07 Max=9.37D-07 NDo=     1
 LinEq1:  Iter=  7 NonCon=     1 RMS=4.14D-08 Max=2.54D-07 NDo=     1
 LinEq1:  Iter=  8 NonCon=     1 RMS=8.45D-09 Max=5.73D-08 NDo=     1
 LinEq1:  Iter=  9 NonCon=     0 RMS=1.70D-09 Max=1.43D-08 NDo=     1
 Linear equations converged to 2.437D-09 2.437D-08 after     9 iterations.
 Incorrect curvature in search direction -- initial direction reversed.
 Gradient too large for Newton-Raphson -- use scaled steepest descent instead.
 Gradient too large for Newton-Raphson -- use scaled steepest descent instead.
 Gradient too large for Newton-Raphson -- use scaled steepest descent instead.
 Gradient too large for Newton-Raphson -- use scaled steepest descent instead.
 LinEq1:  Iter=  0 NonCon=     1 RMS=8.33D-04 Max=5.65D-03 NDo=     1
 LinEq1:  Iter=  1 NonCon=     1 RMS=4.03D-04 Max=2.92D-03 NDo=     1
 LinEq1:  Iter=  2 NonCon=     1 RMS=2.77D-05 Max=2.14D-04 NDo=     1
 LinEq1:  Iter=  3 NonCon=     1 RMS=1.26D-05 Max=1.01D-04 NDo=     1
 LinEq1:  Iter=  4 NonCon=     1 RMS=1.14D-06 Max=1.14D-05 NDo=     1
 LinEq1:  Iter=  5 NonCon=     1 RMS=3.54D-07 Max=2.59D-06 NDo=     1
 LinEq1:  Iter=  6 NonCon=     1 RMS=5.79D-08 Max=4.30D-07 NDo=     1
 LinEq1:  Iter=  7 NonCon=     1 RMS=7.26D-09 Max=4.43D-08 NDo=     1
 LinEq1:  Iter=  8 NonCon=     0 RMS=1.98D-09 Max=1.23D-08 NDo=     1
 Linear equations converged to 2.437D-09 2.437D-08 after     8 iterations.
 Incorrect curvature in search direction -- initial direction reversed.
 Gradient too large for Newton-Raphson -- use scaled steepest descent instead.
     Minimum is close to point  2 DX= -1.66D-01 DF= -4.02D-06 DXR=  9.58D-02 DFR=  9.26D-03 which will be used.
 LinEq1:  Iter=  0 NonCon=     1 RMS=6.27D-04 Max=4.64D-03 NDo=     1
 LinEq1:  Iter=  1 NonCon=     1 RMS=2.79D-04 Max=2.01D-03 NDo=     1
 LinEq1:  Iter=  2 NonCon=     1 RMS=2.30D-05 Max=1.62D-04 NDo=     1
 LinEq1:  Iter=  3 NonCon=     1 RMS=6.71D-06 Max=4.77D-05 NDo=     1
 LinEq1:  Iter=  4 NonCon=     1 RMS=1.60D-06 Max=1.35D-05 NDo=     1
 LinEq1:  Iter=  5 NonCon=     1 RMS=2.54D-07 Max=2.36D-06 NDo=     1
 LinEq1:  Iter=  6 NonCon=     1 RMS=6.33D-08 Max=4.20D-07 NDo=     1
 LinEq1:  Iter=  7 NonCon=     1 RMS=1.54D-08 Max=1.25D-07 NDo=     1
 LinEq1:  Iter=  8 NonCon=     1 RMS=3.29D-09 Max=2.48D-08 NDo=     1
 LinEq1:  Iter=  9 NonCon=     0 RMS=6.19D-10 Max=5.10D-09 NDo=     1
 Linear equations converged to 2.437D-09 2.437D-08 after     9 iterations.
     Accept linear search using points  1 and  2.
 LinEq1:  Iter=  0 NonCon=     1 RMS=7.28D-05 Max=4.70D-04 NDo=     1
 LinEq1:  Iter=  1 NonCon=     1 RMS=2.80D-05 Max=1.92D-04 NDo=     1
 LinEq1:  Iter=  2 NonCon=     1 RMS=3.50D-06 Max=2.52D-05 NDo=     1
 LinEq1:  Iter=  3 NonCon=     1 RMS=6.63D-07 Max=6.24D-06 NDo=     1
 LinEq1:  Iter=  4 NonCon=     1 RMS=2.01D-07 Max=2.21D-06 NDo=     1
 LinEq1:  Iter=  5 NonCon=     1 RMS=3.52D-08 Max=2.24D-07 NDo=     1
 LinEq1:  Iter=  6 NonCon=     1 RMS=6.09D-09 Max=3.95D-08 NDo=     1
 LinEq1:  Iter=  7 NonCon=     0 RMS=1.35D-09 Max=6.76D-09 NDo=     1
 Linear equations converged to 2.437D-09 2.437D-08 after     7 iterations.
     Minimum is close to point  2 DX=  1.63D-02 DF= -1.25D-09 DXR=  1.60D-02 DFR=  2.58D-04 which will be used.
 LinEq1:  Iter=  0 NonCon=     1 RMS=8.22D-07 Max=8.66D-06 NDo=     1
 LinEq1:  Iter=  1 NonCon=     1 RMS=2.54D-07 Max=1.35D-06 NDo=     1
 LinEq1:  Iter=  2 NonCon=     1 RMS=4.64D-08 Max=3.37D-07 NDo=     1
 LinEq1:  Iter=  3 NonCon=     1 RMS=1.02D-08 Max=8.93D-08 NDo=     1
 LinEq1:  Iter=  4 NonCon=     1 RMS=2.60D-09 Max=1.91D-08 NDo=     1
 LinEq1:  Iter=  5 NonCon=     1 RMS=4.39D-10 Max=3.09D-09 NDo=     1
 LinEq1:  Iter=  6 NonCon=     0 RMS=7.95D-11 Max=5.43D-10 NDo=     1
 Linear equations converged to 1.080D-10 1.080D-09 after     6 iterations.
 LinEq1:  Iter=  0 NonCon=     1 RMS=1.79D-08 Max=1.22D-07 NDo=     1
 LinEq1:  Iter=  1 NonCon=     1 RMS=4.75D-09 Max=4.50D-08 NDo=     1
 LinEq1:  Iter=  2 NonCon=     1 RMS=9.58D-10 Max=7.52D-09 NDo=     1
 LinEq1:  Iter=  3 NonCon=     1 RMS=2.67D-10 Max=1.78D-09 NDo=     1
 LinEq1:  Iter=  4 NonCon=     1 RMS=6.18D-11 Max=4.30D-10 NDo=     1
 LinEq1:  Iter=  5 NonCon=     1 RMS=1.19D-11 Max=8.83D-11 NDo=     1
 LinEq1:  Iter=  6 NonCon=     0 RMS=2.93D-12 Max=2.62D-11 NDo=     1
 Linear equations converged to 3.289D-12 3.289D-11 after     6 iterations.
 QCLLim is confused:  Bigger=F Turned=T
 NLin=  4 IMin12=  2  3 I12=  1  1 IX=  2 XLMin= 0.000D+00 XLMax= 0.000D+00
 X = 0.000D+00 1.000D+00 5.000D-01 3.000D-01
 DE= 0.000D+00-3.411D-13-1.705D-13-1.705D-13
 QCLLim is confused:  Bigger=F Turned=T
 NLin=  5 IMin12=  2  3 I12=  1  1 IX=  2 XLMin= 0.000D+00 XLMax= 0.000D+00
 X = 0.000D+00 1.000D+00 5.000D-01 3.000D-01 1.000D-01
 DE= 0.000D+00-3.411D-13-1.705D-13-1.705D-13-1.137D-13
 QCLLim is confused:  Bigger=F Turned=T
 NLin=  6 IMin12=  2  3 I12=  1  1 IX=  2 XLMin= 0.000D+00 XLMax= 0.000D+00
 X = 0.000D+00 1.000D+00 5.000D-01 3.000D-01 1.000D-01 6.250D-02
 DE= 0.000D+00-3.411D-13-1.705D-13-1.705D-13-1.137D-13 5.684D-14
 QCLLim is confused:  Bigger=F Turned=T
 NLin=  7 IMin12=  2  3 I12=  1  1 IX=  2 XLMin= 0.000D+00 XLMax= 0.000D+00
 X = 0.000D+00 1.000D+00 5.000D-01 3.000D-01 1.000D-01 6.250D-02 3.125D-02
 DE= 0.000D+00-3.411D-13-1.705D-13-1.705D-13-1.137D-13 5.684D-14 0.000D+00
 QCLLim is confused:  Bigger=F Turned=T
 NLin=  8 IMin12=  2  3 I12=  1  1 IX=  2 XLMin= 0.000D+00 XLMax= 0.000D+00
 X = 0.000D+00 1.000D+00 5.000D-01 3.000D-01 1.000D-01 6.250D-02 3.125D-02 1.563D-02
 DE= 0.000D+00-3.411D-13-1.705D-13-1.705D-13-1.137D-13 5.684D-14 0.000D+00 5.684D-14
 QCLLim is confused:  Bigger=F Turned=T
 NLin=  9 IMin12=  2  3 I12=  1  1 IX=  2 XLMin= 0.000D+00 XLMax= 0.000D+00
 X = 0.000D+00 1.000D+00 5.000D-01 3.000D-01 1.000D-01 6.250D-02 3.125D-02 1.563D-02 7.813D-03
 DE= 0.000D+00-3.411D-13-1.705D-13-1.705D-13-1.137D-13 5.684D-14 0.000D+00 5.684D-14-1.705D-13
 QCLLim is confused:  Bigger=F Turned=T
 NLin= 10 IMin12=  2  3 I12=  1  1 IX=  2 XLMin= 0.000D+00 XLMax= 0.000D+00
 X = 0.000D+00 1.000D+00 5.000D-01 3.000D-01 1.000D-01 6.250D-02 3.125D-02 1.563D-02 7.813D-03 3.906D-03
 DE= 0.000D+00-3.411D-13-1.705D-13-1.705D-13-1.137D-13 5.684D-14 0.000D+00 5.684D-14-1.705D-13 0.000D+00
 QCLLim is confused:  Bigger=F Turned=T
 NLin= 11 IMin12=  2  3 I12=  1  1 IX=  2 XLMin= 0.000D+00 XLMax= 0.000D+00
 X = 0.000D+00 1.000D+00 5.000D-01 3.000D-01 1.000D-01 6.250D-02 3.125D-02 1.563D-02 7.813D-03 3.906D-03 1.953D-03
 DE= 0.000D+00-3.411D-13-1.705D-13-1.705D-13-1.137D-13 5.684D-14 0.000D+00 5.684D-14-1.705D-13 0.000D+00-1.137D-13
 SCF Done:  E(UAM1) =  0.465620935265     a.u. after   17 cycles
            Convg  =    0.3830D-08                   133 Fock formations.
              S**2 =  2.1497                  -V/T =  1.0052
 <Sx>= 0.0000 <Sy>= 0.0000 <Sz>= 0.5000 <S**2>= 2.1497 S= 1.0491
 <L.S>=  0.00000000000    
 Annihilation of the first spin contaminant:
 S**2 before annihilation     2.1497,   after     3.8277

 **********************************************************************

            Population analysis using the SCF Density.

 **********************************************************************

 Orbital symmetries:
 Alpha Orbitals:
       Occupied  (A') (A') (A') (A') (A') (A') (A') (A') (A') (A')
                 (A") (A') (A") (A") (A') (A') (A') (A') (A') (A")
                 (A")
       Virtual   (A') (A") (A') (A') (A") (A') (A') (A") (A') (A')
                 (A') (A') (A') (A')
 Beta  Orbitals:
       Occupied  (A') (A') (A') (A') (A') (A') (A') (A') (A') (A')
                 (A") (A") (A') (A') (A") (A') (A') (A') (A") (A")
       Virtual   (A') (A") (A') (A') (A') (A") (A') (A') (A") (A')
                 (A') (A') (A') (A') (A')
 The electronic state is 2-A'.
 Alpha  occ. eigenvalues --   -1.42629  -1.37048  -1.35805  -1.11772  -1.10472
 Alpha  occ. eigenvalues --   -0.82997  -0.81001  -0.62508  -0.59960  -0.56367
 Alpha  occ. eigenvalues --   -0.54109  -0.47957  -0.46808  -0.45315  -0.45311
 Alpha  occ. eigenvalues --   -0.44847  -0.43654  -0.40334  -0.38638  -0.37922
 Alpha  occ. eigenvalues --   -0.36735
 Alpha virt. eigenvalues --   -0.00836   0.00764   0.01453   0.01842   0.02564
 Alpha virt. eigenvalues --    0.04138   0.04906   0.09184   0.14364   0.14763
 Alpha virt. eigenvalues --    0.16475   0.17579   0.17885   0.19522
  Beta  occ. eigenvalues --   -1.42397  -1.37013  -1.35581  -1.11135  -1.10004
  Beta  occ. eigenvalues --   -0.82508  -0.79945  -0.62346  -0.59560  -0.55755
  Beta  occ. eigenvalues --   -0.54022  -0.46791  -0.46434  -0.45241  -0.44979
  Beta  occ. eigenvalues --   -0.44806  -0.43157  -0.38906  -0.37768  -0.36513
  Beta virt. eigenvalues --   -0.02185   0.00952   0.01177   0.01949   0.02964
  Beta virt. eigenvalues --    0.02968   0.04341   0.05240   0.09706   0.14509
  Beta virt. eigenvalues --    0.14961   0.16830   0.17910   0.18313   0.20447
          Condensed to atoms (all electrons):
               1          2          3          4          5          6
     1  C    4.033019   0.000000   0.000000   0.000000   0.000000   0.000000
     2  C    0.000000   4.132096   0.000000   0.000000   0.000000   0.000000
     3  C    0.000000   0.000000   4.030994   0.000000   0.000000   0.000000
     4  C    0.000000   0.000000   0.000000   4.128195   0.000000   0.000000
     5  C    0.000000   0.000000   0.000000   0.000000   4.121024   0.000000
     6  C    0.000000   0.000000   0.000000   0.000000   0.000000   4.041082
     7  Cl   0.000000   0.000000   0.000000   0.000000   0.000000   0.000000
     8  Cl   0.000000   0.000000   0.000000   0.000000   0.000000   0.000000
     9  H    0.000000   0.000000   0.000000   0.000000   0.000000   0.000000
    10  H    0.000000   0.000000   0.000000   0.000000   0.000000   0.000000
    11  H    0.000000   0.000000   0.000000   0.000000   0.000000   0.000000
               7          8          9         10         11
     1  C    0.000000   0.000000   0.000000   0.000000   0.000000
     2  C    0.000000   0.000000   0.000000   0.000000   0.000000
     3  C    0.000000   0.000000   0.000000   0.000000   0.000000
     4  C    0.000000   0.000000   0.000000   0.000000   0.000000
     5  C    0.000000   0.000000   0.000000   0.000000   0.000000
     6  C    0.000000   0.000000   0.000000   0.000000   0.000000
     7  Cl   7.014699   0.000000   0.000000   0.000000   0.000000
     8  Cl   0.000000   7.012702   0.000000   0.000000   0.000000
     9  H    0.000000   0.000000   0.818749   0.000000   0.000000
    10  H    0.000000   0.000000   0.000000   0.844109   0.000000
    11  H    0.000000   0.000000   0.000000   0.000000   0.823330
          Atomic-Atomic Spin Densities.
               1          2          3          4          5          6
     1  C    0.593502   0.000000   0.000000   0.000000   0.000000   0.000000
     2  C    0.000000  -0.992892   0.000000   0.000000   0.000000   0.000000
     3  C    0.000000   0.000000   1.507468   0.000000   0.000000   0.000000
     4  C    0.000000   0.000000   0.000000  -1.026216   0.000000   0.000000
     5  C    0.000000   0.000000   0.000000   0.000000   0.995761   0.000000
     6  C    0.000000   0.000000   0.000000   0.000000   0.000000  -0.579243
     7  Cl   0.000000   0.000000   0.000000   0.000000   0.000000   0.000000
     8  Cl   0.000000   0.000000   0.000000   0.000000   0.000000   0.000000
     9  H    0.000000   0.000000   0.000000   0.000000   0.000000   0.000000
    10  H    0.000000   0.000000   0.000000   0.000000   0.000000   0.000000
    11  H    0.000000   0.000000   0.000000   0.000000   0.000000   0.000000
               7          8          9         10         11
     1  C    0.000000   0.000000   0.000000   0.000000   0.000000
     2  C    0.000000   0.000000   0.000000   0.000000   0.000000
     3  C    0.000000   0.000000   0.000000   0.000000   0.000000
     4  C    0.000000   0.000000   0.000000   0.000000   0.000000
     5  C    0.000000   0.000000   0.000000   0.000000   0.000000
     6  C    0.000000   0.000000   0.000000   0.000000   0.000000
     7  Cl   0.006426   0.000000   0.000000   0.000000   0.000000
     8  Cl   0.000000   0.002073   0.000000   0.000000   0.000000
     9  H    0.000000   0.000000   0.447982   0.000000   0.000000
    10  H    0.000000   0.000000   0.000000   0.477377   0.000000
    11  H    0.000000   0.000000   0.000000   0.000000  -0.432238
 Mulliken charges and spin densities:
               1          2
     1  C   -0.033019   0.593502
     2  C   -0.132096  -0.992892
     3  C   -0.030994   1.507468
     4  C   -0.128195  -1.026216
     5  C   -0.121024   0.995761
     6  C   -0.041082  -0.579243
     7  Cl  -0.014699   0.006426
     8  Cl  -0.012702   0.002073
     9  H    0.181251   0.447982
    10  H    0.155891   0.477377
    11  H    0.176670  -0.432238
 Sum of Mulliken charges =  -0.00000   1.00000
 Mulliken charges and spin densities with hydrogens summed into heavy atoms:
               1          2
     1  C   -0.033019   0.593502
     2  C    0.049155  -0.544910
     3  C   -0.030994   1.507468
     4  C    0.027696  -0.548839
     5  C    0.055646   0.563522
     6  C   -0.041082  -0.579243
     7  Cl  -0.014699   0.006426
     8  Cl  -0.012702   0.002073
 Charge=              0.0000 electrons
 Dipole moment (field-independent basis, Debye):
    X=              0.2585    Y=              1.9097    Z=              0.0000  Tot=              1.9271
 N-N= 1.934145188498D+02 E-N=-2.672656209933D+02  KE=-8.986168761478D+01
 Symmetry A'   KE=-6.948183660388D+01
 Symmetry A"   KE=-2.037985101090D+01
 Symmetry A'   SP= 1.000000000000D+00
 Symmetry A"   SP= 6.106226635438D-16
 Calling FoFJK, ICntrl=      2127 FMM=F ISym2X=1 I1Cent= 0 IOpClX= 1 NMat=1 NMatS=1 NMatT=0.
 ***** Axes restored to original set *****
 -------------------------------------------------------------------
 Center     Atomic                   Forces (Hartrees/Bohr)
 Number     Number              X              Y              Z
 -------------------------------------------------------------------
      1        6          -0.017519045    0.032515948   -0.000000000
      2        6           0.027231840    0.065968107   -0.000000000
      3        6          -0.056288884   -0.034997134   -0.000000000
      4        6           0.056128561   -0.019711291   -0.000000000
      5        6           0.022501280   -0.059563128   -0.000000000
      6        6          -0.017447846   -0.033959557   -0.000000000
      7       17           0.034521470    0.017988328   -0.000000000
      8       17           0.035843798   -0.015918740   -0.000000000
      9        1           0.002456909   -0.098172098    0.000000000
     10        1          -0.084200040    0.046008106    0.000000000
     11        1          -0.003228041    0.099841459    0.000000000
 -------------------------------------------------------------------
 Cartesian Forces:  Max     0.099841459 RMS     0.039613256

 GradGradGradGradGradGradGradGradGradGradGradGradGradGradGradGradGradGrad
 Berny optimization.
 FormGI is forming the generalized inverse of G from B-inverse, IUseBI=4.
 Internal  Forces:  Max     0.099892454 RMS     0.029486063
 Search for a local minimum.
 Step number   1 out of a maximum of   57
 All quantities printed in internal units (Hartrees-Bohrs-Radians)
 Mixed Optimization -- RFO/linear search
 Second derivative matrix not updated -- first step.
 ITU=  0
     Eigenvalues ---    0.02011   0.02011   0.02011   0.02011   0.02011
     Eigenvalues ---    0.02011   0.02011   0.02011   0.06524   0.06524
     Eigenvalues ---    0.06524   0.16000   0.16000   0.16000   0.22358
     Eigenvalues ---    0.23256   0.24598   0.25000   0.25000   0.29033
     Eigenvalues ---    0.29033   0.40821   0.41524   0.44656   0.44657
     Eigenvalues ---    0.44657   0.44657
 RFO step:  Lambda=-1.53894590D-01 EMin= 2.01064753D-02
 Linear search not attempted -- first point.
 Maximum step size (   0.300) exceeded in Quadratic search.
    -- Step size scaled by   0.374
 Iteration  1 RMS(Cart)=  0.04934941 RMS(Int)=  0.00009167
 Iteration  2 RMS(Cart)=  0.00017353 RMS(Int)=  0.00001711
 Iteration  3 RMS(Cart)=  0.00000003 RMS(Int)=  0.00001711
 ClnCor:  largest displacement from symmetrization is 7.93D-09 for atom     7.
 Variable       Old X    -DE/DX   Delta X   Delta X   Delta X     New X
                                 (Linear)    (Quad)   (Total)
    R1        2.65676  -0.02463   0.00000  -0.01496  -0.01496   2.64180
    R2        2.65677   0.00152   0.00000   0.00181   0.00179   2.65856
    R3        3.33635  -0.03910   0.00000  -0.03294  -0.03294   3.30341
    R4        2.65677  -0.05151   0.00000  -0.03257  -0.03255   2.62421
    R5        3.33634  -0.09820   0.00000  -0.16770  -0.16770   3.16864
    R6        2.65677  -0.05188   0.00000  -0.03320  -0.03317   2.62359
    R7        2.65678  -0.04336   0.00000  -0.02741  -0.02741   2.62937
    R8        3.33633  -0.09595   0.00000  -0.16385  -0.16385   3.17248
    R9        2.65675  -0.02076   0.00000  -0.01247  -0.01249   2.64426
   R10        3.33632  -0.09989   0.00000  -0.17058  -0.17058   3.16574
   R11        3.33633  -0.03883   0.00000  -0.03271  -0.03271   3.30362
    A1        2.09439  -0.00986   0.00000  -0.00704  -0.00707   2.08733
    A2        2.09439  -0.00018   0.00000  -0.00122  -0.00120   2.09319
    A3        2.09440   0.01004   0.00000   0.00825   0.00827   2.10267
    A4        2.09439  -0.00212   0.00000  -0.00206  -0.00204   2.09235
    A5        2.09440   0.00066   0.00000   0.00055   0.00054   2.09494
    A6        2.09439   0.00146   0.00000   0.00150   0.00150   2.09589
    A7        2.09440   0.01886   0.00000   0.01469   0.01476   2.10915
    A8        2.09439  -0.00273   0.00000  -0.00459  -0.00457   2.08982
    A9        2.09440   0.00073   0.00000   0.00154   0.00153   2.09593
   A10        2.09440   0.00200   0.00000   0.00305   0.00304   2.09743
   A11        2.09439   0.00381   0.00000   0.00415   0.00413   2.09853
   A12        2.09439  -0.00110   0.00000  -0.00111  -0.00110   2.09328
   A13        2.09440  -0.00272   0.00000  -0.00304  -0.00303   2.09137
   A14        2.09440  -0.00797   0.00000  -0.00516  -0.00521   2.08919
   A15        2.09439   0.00857   0.00000   0.00683   0.00686   2.10125
   A16        2.09439  -0.00060   0.00000  -0.00167  -0.00164   2.09275
    D1       -0.00000   0.00000   0.00000   0.00000   0.00000   0.00000
    D2        3.14159   0.00000   0.00000   0.00000   0.00000   3.14159
    D3        3.14159  -0.00000   0.00000  -0.00000   0.00000   3.14159
    D4       -0.00000   0.00000   0.00000   0.00000   0.00000   0.00000
    D5        0.00000   0.00000   0.00000  -0.00000   0.00000   0.00000
    D6        3.14159  -0.00000   0.00000  -0.00000   0.00000   3.14159
    D7        3.14159   0.00000   0.00000   0.00000   0.00000   3.14159
    D8        0.00000   0.00000   0.00000   0.00000   0.00000   0.00000
    D9        0.00000  -0.00000   0.00000  -0.00000   0.00000   0.00000
   D10        3.14159  -0.00000   0.00000  -0.00000   0.00000   3.14159
   D11       -0.00000  -0.00000   0.00000  -0.00000   0.00000   0.00000
   D12        3.14159   0.00000   0.00000   0.00000   0.00000   3.14159
   D13        0.00000   0.00000   0.00000   0.00000  -0.00000   0.00000
   D14        3.14159   0.00000   0.00000   0.00000   0.00000   3.14159
   D15        3.14159  -0.00000   0.00000  -0.00000   0.00000   3.14159
   D16        0.00000   0.00000   0.00000   0.00000   0.00000   0.00000
   D17       -0.00000  -0.00000   0.00000  -0.00000   0.00000   0.00000
   D18        3.14159  -0.00000   0.00000  -0.00000   0.00000   3.14159
   D19        3.14159  -0.00000   0.00000  -0.00000   0.00000   3.14159
   D20        0.00000  -0.00000   0.00000  -0.00000  -0.00000   0.00000
         Item               Value     Threshold  Converged?
 Maximum Force            0.099892     0.000450     NO 
 RMS     Force            0.029486     0.000300     NO 
 Maximum Displacement     0.196212     0.001800     NO 
 RMS     Displacement     0.049363     0.001200     NO 
 Predicted change in Energy=-5.373938D-02
 GradGradGradGradGradGradGradGradGradGradGradGradGradGradGradGradGradGrad

                          Input orientation:                          
 ---------------------------------------------------------------------
 Center     Atomic      Atomic             Coordinates (Angstroms)
 Number     Number       Type             X           Y           Z
 ---------------------------------------------------------------------
      1          6           0       -3.202729    0.196226    0.000000
      2          6           0       -2.006778    0.920137   -0.000000
      3          6           0       -0.791401    0.248369   -0.000000
      4          6           0       -0.745004   -1.139202   -0.000000
      5          6           0       -1.929423   -1.869375   -0.000000
      6          6           0       -3.163653   -1.210078   -0.000000
      7         17           0       -4.646466   -2.136079    0.000000
      8         17           0       -4.733382    1.040573    0.000000
      9          1           0       -2.040585    2.596569   -0.000000
     10          1           0        0.734908   -1.931822   -0.000000
     11          1           0       -1.879236   -3.543859   -0.000000
 ---------------------------------------------------------------------
                    Distance matrix (angstroms):
                    1          2          3          4          5
     1  C    0.000000
     2  C    1.397979   0.000000
     3  C    2.411892   1.388674   0.000000
     4  C    2.797102   2.415150   1.388346   0.000000
     5  C    2.426524   2.790584   2.404148   1.391402   0.000000
     6  C    1.406847   2.424082   2.784716   2.419687   1.399284
     7  Cl   2.742995   4.038367   4.532892   4.026806   2.730102
     8  Cl   1.748090   2.729262   4.020796   4.545170   4.041038
     9  H    2.666876   1.676773   2.659794   3.954050   4.467327
    10  H    4.475888   3.956073   2.661362   1.678805   2.665062
    11  H    3.967351   4.465818   3.945172   2.658733   1.675237
                    6          7          8          9         10
     6  C    0.000000
     7  Cl   1.748202   0.000000
     8  Cl   2.743990   3.177841   0.000000
     9  H    3.968859   5.402645   3.110029   0.000000
    10  H    3.964806   5.385249   6.223932   5.311279   0.000000
    11  H    2.663881   3.104739   5.400293   6.142548   3.071224
                   11
    11  H    0.000000
 Stoichiometry    C6H3Cl2(2)
 Framework group  CS[SG(C6H3Cl2)]
 Deg. of freedom    19
 Full point group                 CS      NOp   2
 Largest Abelian subgroup         CS      NOp   2
 Largest concise Abelian subgroup C1      NOp   1
                         Standard orientation:                         
 ---------------------------------------------------------------------
 Center     Atomic      Atomic             Coordinates (Angstroms)
 Number     Number       Type             X           Y           Z
 ---------------------------------------------------------------------
      1          6           0        0.038088   -0.724354    0.000000
      2          6           0        1.271931   -1.381604    0.000000
      3          6           0        2.448648   -0.644209    0.000000
      4          6           0        2.418896    0.743819   -0.000000
      5          6           0        1.196225    1.407953   -0.000000
      6          6           0        0.000000    0.681977   -0.000000
      7         17           0       -1.531354    1.525285   -0.000000
      8         17           0       -1.443968   -1.651354    0.000000
      9          1           0        1.330092   -3.057368    0.000000
     10          1           0        3.853124    1.616388   -0.000000
     11          1           0        1.154527    3.082671   -0.000000
 ---------------------------------------------------------------------
 Rotational constants (GHZ):           1.8886650           1.4352515           0.8155167
 Standard basis: VSTO-6G (5D, 7F)
 There are    27 symmetry adapted cartesian basis functions of A'  symmetry.
 There are     8 symmetry adapted cartesian basis functions of A"  symmetry.
 There are    27 symmetry adapted basis functions of A'  symmetry.
 There are     8 symmetry adapted basis functions of A"  symmetry.
    35 basis functions,   210 primitive gaussians,    35 cartesian basis functions
    21 alpha electrons       20 beta electrons
       nuclear repulsion energy       194.5533644262 Hartrees.
 Integral buffers will be    131072 words long.
 Regular integral format.
 Two-electron integral symmetry is turned off.
 Do NDO integrals.
 One-electron integrals computed using PRISM.
 NBasis=    35 RedAO= T EigKep=  1.00D+00  NBF=    27     8
 NBsUse=    35 1.00D-06 EigRej= -1.00D+00 NBFU=    27     8
 Initial guess from the checkpoint file:  "geometry_chks/12_ClBzNeutralRadical.chk"
 B after Tr=    -0.000000    0.000000   -0.000000
         Rot=    0.872874   -0.000000    0.000000    0.487946 Ang=  58.41 deg.
 Initial guess orbital symmetries:
 Alpha Orbitals:
       Occupied  (A') (A') (A') (A') (A') (A') (A') (A') (A') (A')
                 (A") (A') (A") (A") (A') (A') (A') (A') (A') (A")
                 (A")
       Virtual   (A') (A") (A') (A') (A") (A') (A') (A") (A') (A')
                 (A') (A') (A') (A')
 Beta  Orbitals:
       Occupied  (A') (A') (A') (A') (A') (A') (A') (A') (A') (A')
                 (A") (A") (A') (A') (A") (A') (A') (A') (A") (A")
       Virtual   (A') (A") (A') (A') (A') (A") (A') (A') (A") (A')
                 (A') (A') (A') (A') (A')
 Initial guess <Sx>= 0.0000 <Sy>= 0.0000 <Sz>= 0.5000 <S**2>= 2.1497 S= 1.0491
 Keep J ints in memory in canonical form, NReq=862793.
 Overlap will be assumed to be unity.
 Requested convergence on RMS density matrix=1.00D-08 within  32 cycles.
 Requested convergence on MAX density matrix=1.00D-06.
 Requested convergence on             energy=1.00D-06.
 No special actions if energy rises.
 Fock symm off for IB=2 I1=    1 I=   28 J=   12 Cut=1.00D-07 Err=1.96D-03
 Fock matrix is not symmetric: symmetry in diagonalization turned off.
 SCF Done:  E(UAM1) =  0.404289215880     A.U. after   23 cycles
            NFock= 22  Conv=0.50D-08     -V/T= 1.0045
 <Sx>= 0.0000 <Sy>= 0.0000 <Sz>= 0.5000 <S**2>= 1.4957 S= 0.8212
 <L.S>=  0.00000000000    
 Annihilation of the first spin contaminant:
 S**2 before annihilation     1.4957,   after     1.4260
 QCSCF skips out because SCF is already converged.
 Calling FoFJK, ICntrl=      2127 FMM=F ISym2X=1 I1Cent= 0 IOpClX= 1 NMat=1 NMatS=1 NMatT=0.
 ***** Axes restored to original set *****
 -------------------------------------------------------------------
 Center     Atomic                   Forces (Hartrees/Bohr)
 Number     Number              X              Y              Z
 -------------------------------------------------------------------
      1        6          -0.019107793    0.024559331   -0.000000000
      2        6           0.019195126    0.100636103   -0.000000000
      3        6          -0.039451502   -0.022817827    0.000000000
      4        6           0.091588612   -0.040150515   -0.000000000
      5        6           0.014987425   -0.094655549    0.000000000
      6        6          -0.018318615   -0.026560003   -0.000000000
      7       17           0.026733269    0.014345800   -0.000000000
      8       17           0.027713853   -0.012767659   -0.000000000
      9        1           0.001961022   -0.115597017    0.000000000
     10        1          -0.101007483    0.054526585    0.000000000
     11        1          -0.004293914    0.118480750    0.000000000
 -------------------------------------------------------------------
 Cartesian Forces:  Max     0.118480750 RMS     0.048058393

 GradGradGradGradGradGradGradGradGradGradGradGradGradGradGradGradGradGrad
 Berny optimization.
 Using GEDIIS/GDIIS optimizer.
 FormGI is forming the generalized inverse of G from B-inverse, IUseBI=4.
 Internal  Forces:  Max     0.118556208 RMS     0.031164063
 Search for a local minimum.
 Step number   2 out of a maximum of   57
 All quantities printed in internal units (Hartrees-Bohrs-Radians)
 Mixed Optimization -- RFO/linear search
 Update second derivatives using D2CorX and points    1    2
 DE= -6.13D-02 DEPred=-5.37D-02 R= 1.14D+00
 TightC=F SS=  1.41D+00  RLast= 3.00D-01 DXNew= 5.0454D-01 9.0000D-01
 Trust test= 1.14D+00 RLast= 3.00D-01 DXMaxT set to 5.05D-01
 ITU=  1  0
 Use linear search instead of GDIIS.
     Eigenvalues ---   -0.22019   0.02011   0.02011   0.02011   0.02011
     Eigenvalues ---    0.02011   0.02011   0.02011   0.02011   0.06478
     Eigenvalues ---    0.06524   0.09725   0.15999   0.16000   0.16002
     Eigenvalues ---    0.22403   0.23201   0.24579   0.25000   0.25103
     Eigenvalues ---    0.29033   0.31823   0.40834   0.42124   0.44649
     Eigenvalues ---    0.44656   0.44657
 RFO step:  Lambda=-3.05899446D-01 EMin=-2.20193505D-01
 Skip linear search -- no minimum in search direction.
 Maximum step size (   0.505) exceeded in Quadratic search.
    -- Step size scaled by   0.470
 Iteration  1 RMS(Cart)=  0.04166967 RMS(Int)=  0.02207866
 Iteration  2 RMS(Cart)=  0.02169777 RMS(Int)=  0.00002133
 Iteration  3 RMS(Cart)=  0.00000935 RMS(Int)=  0.00002074
 Iteration  4 RMS(Cart)=  0.00000000 RMS(Int)=  0.00002074
 ClnCor:  largest displacement from symmetrization is 8.93D-09 for atom     9.
 Variable       Old X    -DE/DX   Delta X   Delta X   Delta X     New X
                                 (Linear)    (Quad)   (Total)
    R1        2.64180  -0.01243   0.00000   0.02680   0.02677   2.66857
    R2        2.65856   0.00462   0.00000   0.01416   0.01412   2.67268
    R3        3.30341  -0.03043   0.00000  -0.00171  -0.00171   3.30170
    R4        2.62421  -0.03116   0.00000   0.03502   0.03502   2.65923
    R5        3.16864  -0.11561   0.00000  -0.28088  -0.28088   2.88776
    R6        2.62359  -0.03027   0.00000   0.04025   0.04028   2.66388
    R7        2.62937  -0.02343   0.00000   0.04153   0.04156   2.67093
    R8        3.17248  -0.11478   0.00000  -0.28790  -0.28790   2.88458
    R9        2.64426  -0.00965   0.00000   0.02632   0.02632   2.67058
   R10        3.16574  -0.11856   0.00000  -0.29275  -0.29275   2.87299
   R11        3.30362  -0.03027   0.00000  -0.00196  -0.00196   3.30167
    A1        2.08733  -0.00680   0.00000   0.00357   0.00351   2.09083
    A2        2.09319  -0.00025   0.00000  -0.00016  -0.00013   2.09306
    A3        2.10267   0.00704   0.00000  -0.00341  -0.00338   2.09929
    A4        2.09235  -0.00315   0.00000  -0.00893  -0.00895   2.08340
    A5        2.09494   0.00099   0.00000   0.00273   0.00275   2.09769
    A6        2.09589   0.00216   0.00000   0.00619   0.00621   2.10210
    A7        2.10915   0.01665   0.00000   0.01251   0.01256   2.12172
    A8        2.08982  -0.00530   0.00000  -0.01707  -0.01702   2.07281
    A9        2.09593   0.00205   0.00000   0.00786   0.00783   2.10376
   A10        2.09743   0.00325   0.00000   0.00922   0.00919   2.10662
   A11        2.09853   0.00309   0.00000   0.00137   0.00139   2.09991
   A12        2.09328  -0.00037   0.00000   0.00275   0.00274   2.09603
   A13        2.09137  -0.00272   0.00000  -0.00412  -0.00413   2.08724
   A14        2.08919  -0.00450   0.00000   0.00855   0.00851   2.09770
   A15        2.10125   0.00554   0.00000  -0.00563  -0.00561   2.09564
   A16        2.09275  -0.00104   0.00000  -0.00293  -0.00291   2.08984
    D1       -0.00000   0.00000   0.00000   0.00000   0.00000   0.00000
    D2        3.14159   0.00000   0.00000   0.00000   0.00000   3.14159
    D3        3.14159  -0.00000   0.00000  -0.00000   0.00000   3.14159
    D4       -0.00000   0.00000   0.00000  -0.00000   0.00000   0.00000
    D5       -0.00000  -0.00000   0.00000  -0.00000   0.00000   0.00000
    D6        3.14159  -0.00000   0.00000  -0.00000   0.00000   3.14159
    D7        3.14159   0.00000   0.00000   0.00000   0.00000   3.14159
    D8        0.00000   0.00000   0.00000  -0.00000   0.00000   0.00000
    D9        0.00000  -0.00000   0.00000   0.00000  -0.00000   0.00000
   D10        3.14159  -0.00000   0.00000  -0.00000   0.00000   3.14159
   D11       -0.00000  -0.00000   0.00000  -0.00000   0.00000   0.00000
   D12        3.14159   0.00000   0.00000  -0.00000   0.00000   3.14159
   D13        0.00000   0.00000   0.00000   0.00000  -0.00000   0.00000
   D14        3.14159   0.00000   0.00000   0.00000   0.00000   3.14159
   D15        3.14159  -0.00000   0.00000   0.00000   0.00000   3.14159
   D16       -0.00000   0.00000   0.00000  -0.00000   0.00000   0.00000
   D17        0.00000  -0.00000   0.00000   0.00000   0.00000   0.00000
   D18        3.14159   0.00000   0.00000   0.00000   0.00000   3.14159
   D19        3.14159  -0.00000   0.00000   0.00000   0.00000   3.14159
   D20       -0.00000   0.00000   0.00000   0.00000   0.00000   0.00000
         Item               Value     Threshold  Converged?
 Maximum Force            0.118556     0.000450     NO 
 RMS     Force            0.031164     0.000300     NO 
 Maximum Displacement     0.255740     0.001800     NO 
 RMS     Displacement     0.062482     0.001200     NO 
 Predicted change in Energy=-1.195332D-01
 GradGradGradGradGradGradGradGradGradGradGradGradGradGradGradGradGradGrad

                          Input orientation:                          
 ---------------------------------------------------------------------
 Center     Atomic      Atomic             Coordinates (Angstroms)
 Number     Number       Type             X           Y           Z
 ---------------------------------------------------------------------
      1          6           0       -3.200361    0.195811    0.000000
      2          6           0       -1.996213    0.933496   -0.000000
      3          6           0       -0.767085    0.248316   -0.000000
      4          6           0       -0.707370   -1.160081   -0.000000
      5          6           0       -1.916453   -1.892064   -0.000000
      6          6           0       -3.158490   -1.217890   -0.000000
      7         17           0       -4.643909   -2.137741    0.000000
      8         17           0       -4.734596    1.031746    0.000000
      9          1           0       -2.030982    2.461237   -0.000000
     10          1           0        0.639047   -1.879265   -0.000000
     11          1           0       -1.887340   -3.412104   -0.000000
 ---------------------------------------------------------------------
                    Distance matrix (angstroms):
                    1          2          3          4          5
     1  C    0.000000
     2  C    1.412145   0.000000
     3  C    2.433843   1.407206   0.000000
     4  C    2.837860   2.458492   1.409662   0.000000
     5  C    2.451049   2.826685   2.429459   1.413393   0.000000
     6  C    1.414321   2.445271   2.805098   2.451801   1.413211
     7  Cl   2.743956   4.054971   4.552255   4.056126   2.738498
     8  Cl   1.747187   2.740145   4.044120   4.585047   4.060861
     9  H    2.549432   1.528137   2.548422   3.855632   4.354807
    10  H    4.364287   3.854377   2.550257   1.526455   2.555532
    11  H    3.839411   4.346963   3.828007   2.542426   1.520319
                    6          7          8          9         10
     6  C    0.000000
     7  Cl   1.747168   0.000000
     8  Cl   2.746811   3.170783   0.000000
     9  H    3.848019   5.289422   3.058263   0.000000
    10  H    3.854699   5.289276   6.111467   5.095980   0.000000
    11  H    2.535822   3.036886   5.277752   5.875097   2.955034
                   11
    11  H    0.000000
 Stoichiometry    C6H3Cl2(2)
 Framework group  CS[SG(C6H3Cl2)]
 Deg. of freedom    19
 Full point group                 CS      NOp   2
 Largest Abelian subgroup         CS      NOp   2
 Largest concise Abelian subgroup C1      NOp   1
                         Standard orientation:                         
 ---------------------------------------------------------------------
 Center     Atomic      Atomic             Coordinates (Angstroms)
 Number     Number       Type             X           Y           Z
 ---------------------------------------------------------------------
      1          6           0        0.032280   -0.729183   -0.000000
      2          6           0        1.273436   -1.402744   -0.000000
      3          6           0        2.464964   -0.654085   -0.000000
      4          6           0        2.450781    0.755506   -0.000000
      5          6           0        1.204995    1.423113   -0.000000
      6          6           0        0.000000    0.684770    0.000000
      7         17           0       -1.531588    1.525503    0.000000
      8         17           0       -1.456034   -1.644380    0.000000
      9          1           0        1.318786   -2.930207   -0.000000
     10          1           0        3.757654    1.544269   -0.000000
     11          1           0        1.154401    2.942590   -0.000000
 ---------------------------------------------------------------------
 Rotational constants (GHZ):           1.8950827           1.4206765           0.8119707
 Standard basis: VSTO-6G (5D, 7F)
 There are    27 symmetry adapted cartesian basis functions of A'  symmetry.
 There are     8 symmetry adapted cartesian basis functions of A"  symmetry.
 There are    27 symmetry adapted basis functions of A'  symmetry.
 There are     8 symmetry adapted basis functions of A"  symmetry.
    35 basis functions,   210 primitive gaussians,    35 cartesian basis functions
    21 alpha electrons       20 beta electrons
       nuclear repulsion energy       194.5491967228 Hartrees.
 Integral buffers will be    131072 words long.
 Regular integral format.
 Two-electron integral symmetry is turned off.
 Do NDO integrals.
 One-electron integrals computed using PRISM.
 NBasis=    35 RedAO= T EigKep=  1.00D+00  NBF=    27     8
 NBsUse=    35 1.00D-06 EigRej= -1.00D+00 NBFU=    27     8
 Initial guess from the checkpoint file:  "geometry_chks/12_ClBzNeutralRadical.chk"
 B after Tr=     0.000000    0.000000    0.000000
         Rot=    0.999999   -0.000000    0.000000    0.001315 Ang=   0.15 deg.
 Initial guess orbital symmetries:
 Alpha Orbitals:
       Occupied  (A') (A') (A') (A') (A') (A') (A') (A') (A') (A')
                 (A") (A') (A") (A') (A") (A') (A') (A') (A') (A")
                 (A")
       Virtual   (A") (A') (A') (A") (A') (A') (A') (A") (A') (A')
                 (A') (A') (A') (A')
 Beta  Orbitals:
       Occupied  (A') (A') (A') (A') (A') (A') (A') (A') (A') (A')
                 (A") (A") (A') (A') (A") (A') (A') (A') (A") (A")
       Virtual   (A') (A") (A') (A') (A") (A') (A') (A') (A") (A')
                 (A') (A') (A') (A') (A')
 Initial guess <Sx>= 0.0000 <Sy>= 0.0000 <Sz>= 0.5000 <S**2>= 1.4957 S= 0.8212
 Keep J ints in memory in canonical form, NReq=862793.
 Overlap will be assumed to be unity.
 Requested convergence on RMS density matrix=1.00D-08 within  32 cycles.
 Requested convergence on MAX density matrix=1.00D-06.
 Requested convergence on             energy=1.00D-06.
 No special actions if energy rises.
 Fock symm off for IB=2 I1=    1 I=   28 J=   18 Cut=1.00D-07 Err=5.96D-03
 Fock matrix is not symmetric: symmetry in diagonalization turned off.
 SCF Done:  E(UAM1) =  0.305709424373     A.U. after   18 cycles
            NFock= 17  Conv=0.97D-08     -V/T= 1.0034
 <Sx>= 0.0000 <Sy>= 0.0000 <Sz>= 0.5000 <S**2>= 1.3734 S= 0.7741
 <L.S>=  0.00000000000    
 Annihilation of the first spin contaminant:
 S**2 before annihilation     1.3734,   after     1.1185
 QCSCF skips out because SCF is already converged.
 Calling FoFJK, ICntrl=      2127 FMM=F ISym2X=1 I1Cent= 0 IOpClX= 1 NMat=1 NMatS=1 NMatT=0.
 ***** Axes restored to original set *****
 -------------------------------------------------------------------
 Center     Atomic                   Forces (Hartrees/Bohr)
 Number     Number              X              Y              Z
 -------------------------------------------------------------------
      1        6          -0.004250328    0.018238748   -0.000000000
      2        6           0.021126112    0.089476629   -0.000000000
      3        6          -0.055724478   -0.035353313   -0.000000000
      4        6           0.077327740   -0.031387330   -0.000000000
      5        6           0.016581377   -0.080202812   -0.000000000
      6        6          -0.004013667   -0.019771390    0.000000000
      7       17           0.027302661    0.014079074    0.000000000
      8       17           0.028689024   -0.012631758    0.000000000
      9        1           0.002509153   -0.120367116    0.000000000
     10        1          -0.106922293    0.057228037    0.000000000
     11        1          -0.002625302    0.120691231    0.000000000
 -------------------------------------------------------------------
 Cartesian Forces:  Max     0.120691231 RMS     0.047013496

 GradGradGradGradGradGradGradGradGradGradGradGradGradGradGradGradGradGrad
 Berny optimization.
 Using GEDIIS/GDIIS optimizer.
 FormGI is forming the generalized inverse of G from B-inverse, IUseBI=4.
 Internal  Forces:  Max     0.121274129 RMS     0.034225647
 Search for a local minimum.
 Step number   3 out of a maximum of   57
 All quantities printed in internal units (Hartrees-Bohrs-Radians)
 Mixed Optimization -- RFO/linear search
 Update second derivatives using D2CorX and points    2    3
 DE= -9.86D-02 DEPred=-1.20D-01 R= 8.25D-01
 TightC=F SS=  1.41D+00  RLast= 5.05D-01 DXNew= 8.4853D-01 1.5136D+00
 Trust test= 8.25D-01 RLast= 5.05D-01 DXMaxT set to 8.49D-01
 ITU=  1  1  0
 Use linear search instead of GDIIS.
     Eigenvalues ---   -5.81270   0.00004   0.02011   0.02011   0.02011
     Eigenvalues ---    0.02011   0.02011   0.02011   0.02011   0.02011
     Eigenvalues ---    0.06502   0.06562   0.15993   0.16000   0.16002
     Eigenvalues ---    0.21809   0.23155   0.24567   0.24898   0.25000
     Eigenvalues ---    0.25913   0.29034   0.39447   0.40929   0.44580
     Eigenvalues ---    0.44654   0.44657
 RFO step:  Lambda=-5.81546016D+00 EMin=-5.81270146D+00
 I=     1 Eig=   -5.81D+00 Dot1=  7.60D-02
 I=     1 Stepn=  6.00D-01 RXN=   6.00D-01 EDone=F
 Mixed    1 eigenvectors in step.  Raw Step.Grad=  7.60D-02.
 RFO eigenvector is Hessian eigenvector with negative curvature.
 Taking step of  6.00D-01 in eigenvector direction(s).  Step.Grad= -4.69D-03.
 Skip linear search -- no minimum in search direction.
 Iteration  1 RMS(Cart)=  0.10451540 RMS(Int)=  0.01728296
 Iteration  2 RMS(Cart)=  0.02344190 RMS(Int)=  0.00053524
 Iteration  3 RMS(Cart)=  0.00013408 RMS(Int)=  0.00052426
 Iteration  4 RMS(Cart)=  0.00000003 RMS(Int)=  0.00052426
 ClnCor:  largest displacement from symmetrization is 2.37D-09 for atom    10.
 Variable       Old X    -DE/DX   Delta X   Delta X   Delta X     New X
                                 (Linear)    (Quad)   (Total)
    R1        2.66857  -0.02943   0.00000  -0.22074  -0.22128   2.44729
    R2        2.67268  -0.00931   0.00000  -0.17658  -0.17748   2.49520
    R3        3.30170  -0.03124   0.00000  -0.01640  -0.01640   3.28530
    R4        2.65923  -0.05055   0.00000  -0.25603  -0.25564   2.40360
    R5        2.88776  -0.12039   0.00000  -0.06312  -0.06312   2.82464
    R6        2.66388  -0.05097   0.00000  -0.27278  -0.27188   2.39200
    R7        2.67093  -0.04426   0.00000  -0.27325  -0.27269   2.39823
    R8        2.88458  -0.12127   0.00000  -0.08555  -0.08555   2.79903
    R9        2.67058  -0.02683   0.00000  -0.22240  -0.22275   2.44783
   R10        2.87299  -0.12072   0.00000  -0.02776  -0.02776   2.84523
   R11        3.30167  -0.03062   0.00000  -0.01051  -0.01051   3.29116
    A1        2.09083  -0.00683   0.00000  -0.00259  -0.00403   2.08681
    A2        2.09306  -0.00093   0.00000  -0.00874  -0.00802   2.08504
    A3        2.09929   0.00776   0.00000   0.01133   0.01205   2.11134
    A4        2.08340  -0.00504   0.00000  -0.02448  -0.02473   2.05867
    A5        2.09769   0.00219   0.00000   0.01563   0.01575   2.11344
    A6        2.10210   0.00285   0.00000   0.00886   0.00898   2.11108
    A7        2.12172   0.01850   0.00000   0.02661   0.02820   2.14992
    A8        2.07281  -0.00357   0.00000   0.02360   0.02485   2.09766
    A9        2.10376   0.00164   0.00000  -0.00589  -0.00652   2.09724
   A10        2.10662   0.00193   0.00000  -0.01771  -0.01833   2.08829
   A11        2.09991   0.00191   0.00000  -0.01501  -0.01491   2.08501
   A12        2.09603  -0.00050   0.00000  -0.00213  -0.00218   2.09385
   A13        2.08724  -0.00140   0.00000   0.01714   0.01708   2.10433
   A14        2.09770  -0.00496   0.00000  -0.00813  -0.00939   2.08831
   A15        2.09564   0.00645   0.00000   0.01367   0.01430   2.10994
   A16        2.08984  -0.00149   0.00000  -0.00554  -0.00491   2.08493
    D1        0.00000   0.00000   0.00000  -0.00000   0.00000   0.00000
    D2        3.14159   0.00000   0.00000  -0.00000   0.00000   3.14159
    D3        3.14159  -0.00000   0.00000  -0.00000   0.00000   3.14159
    D4       -0.00000   0.00000   0.00000  -0.00000   0.00000   0.00000
    D5        0.00000  -0.00000   0.00000  -0.00000  -0.00000   0.00000
    D6        3.14159  -0.00000   0.00000   0.00000   0.00000   3.14159
    D7        3.14159   0.00000   0.00000   0.00000   0.00000   3.14159
    D8       -0.00000   0.00000   0.00000   0.00000   0.00000   0.00000
    D9       -0.00000  -0.00000   0.00000  -0.00000   0.00000   0.00000
   D10        3.14159  -0.00000   0.00000   0.00000   0.00000   3.14159
   D11        0.00000  -0.00000   0.00000   0.00000   0.00000   0.00000
   D12        3.14159   0.00000   0.00000   0.00000   0.00000   3.14159
   D13        0.00000   0.00000   0.00000  -0.00000  -0.00000   0.00000
   D14        3.14159   0.00000   0.00000   0.00000   0.00000   3.14159
   D15        3.14159  -0.00000   0.00000  -0.00000   0.00000   3.14159
   D16        0.00000  -0.00000   0.00000  -0.00000  -0.00000   0.00000
   D17       -0.00000  -0.00000   0.00000   0.00000   0.00000   0.00000
   D18        3.14159   0.00000   0.00000  -0.00000   0.00000   3.14159
   D19        3.14159  -0.00000   0.00000  -0.00000   0.00000   3.14159
   D20        0.00000  -0.00000   0.00000  -0.00000   0.00000   0.00000
         Item               Value     Threshold  Converged?
 Maximum Force            0.121274     0.000450     NO 
 RMS     Force            0.034226     0.000300     NO 
 Maximum Displacement     0.345194     0.001800     NO 
 RMS     Displacement     0.125229     0.001200     NO 
 Predicted change in Energy=-1.122039D+00
 GradGradGradGradGradGradGradGradGradGradGradGradGradGradGradGradGradGrad

                          Input orientation:                          
 ---------------------------------------------------------------------
 Center     Atomic      Atomic             Coordinates (Angstroms)
 Number     Number       Type             X           Y           Z
 ---------------------------------------------------------------------
      1          6           0       -3.104291    0.144326   -0.000000
      2          6           0       -1.996379    0.814909   -0.000000
      3          6           0       -0.904549    0.162446   -0.000000
      4          6           0       -0.853322   -1.102306   -0.000000
      5          6           0       -1.923586   -1.784304   -0.000000
      6          6           0       -3.066965   -1.175551   -0.000000
      7         17           0       -4.535643   -2.111593    0.000000
      8         17           0       -4.619637    0.996464    0.000000
      9          1           0       -1.998830    2.309640   -0.000000
     10          1           0        0.456378   -1.794111   -0.000000
     11          1           0       -1.856926   -3.288458   -0.000000
 ---------------------------------------------------------------------
                    Distance matrix (angstroms):
                    1          2          3          4          5
     1  C    0.000000
     2  C    1.295049   0.000000
     3  C    2.199817   1.271928   0.000000
     4  C    2.573122   2.232105   1.265790   0.000000
     5  C    2.261344   2.600232   2.197334   1.269089   0.000000
     6  C    1.320404   2.260107   2.542888   2.214855   1.295336
     7  Cl   2.671691   3.874567   4.284401   3.818134   2.632481
     8  Cl   1.738508   2.629533   3.807553   4.311608   3.873159
     9  H    2.431179   1.494733   2.409957   3.599106   4.094636
    10  H    4.054122   3.580922   2.383326   1.481185   2.379985
    11  H    3.652386   4.105736   3.579911   2.405511   1.505630
                    6          7          8          9         10
     6  C    0.000000
     7  Cl   1.741605   0.000000
     8  Cl   2.669913   3.109191   0.000000
     9  H    3.645198   5.097325   2.931393   0.000000
    10  H    3.577229   5.002107   5.792516   4.782136   0.000000
    11  H    2.434865   2.925839   5.098345   5.599896   2.753988
                   11
    11  H    0.000000
 Stoichiometry    C6H3Cl2(2)
 Framework group  CS[SG(C6H3Cl2)]
 Deg. of freedom    19
 Full point group                 CS      NOp   2
 Largest Abelian subgroup         CS      NOp   2
 Largest concise Abelian subgroup C1      NOp   1
                         Standard orientation:                         
 ---------------------------------------------------------------------
 Center     Atomic      Atomic             Coordinates (Angstroms)
 Number     Number       Type             X           Y           Z
 ---------------------------------------------------------------------
      1          6           0        0.138912   -0.671156    0.000000
      2          6           0        1.326312   -1.188101    0.000000
      3          6           0        2.321446   -0.395946    0.000000
      4          6           0        2.203658    0.864351    0.000000
      5          6           0        1.052048    1.397627    0.000000
      6          6           0        0.000000    0.641921    0.000000
      7         17           0       -1.580326    1.373876   -0.000000
      8         17           0       -1.249348   -1.717648   -0.000000
      9          1           0        1.523092   -2.669825    0.000000
     10          1           0        3.409474    1.724534    0.000000
     11          1           0        0.917648    2.897246    0.000000
 ---------------------------------------------------------------------
 Rotational constants (GHZ):           2.0472360           1.5974122           0.8972827
 Standard basis: VSTO-6G (5D, 7F)
 There are    27 symmetry adapted cartesian basis functions of A'  symmetry.
 There are     8 symmetry adapted cartesian basis functions of A"  symmetry.
 There are    27 symmetry adapted basis functions of A'  symmetry.
 There are     8 symmetry adapted basis functions of A"  symmetry.
    35 basis functions,   210 primitive gaussians,    35 cartesian basis functions
    21 alpha electrons       20 beta electrons
       nuclear repulsion energy       201.5144400669 Hartrees.
 Integral buffers will be    131072 words long.
 Regular integral format.
 Two-electron integral symmetry is turned off.
 Do NDO integrals.
 One-electron integrals computed using PRISM.
 NBasis=    35 RedAO= T EigKep=  1.00D+00  NBF=    27     8
 NBsUse=    35 1.00D-06 EigRej= -1.00D+00 NBFU=    27     8
 Initial guess from the checkpoint file:  "geometry_chks/12_ClBzNeutralRadical.chk"
 B after Tr=     0.000000   -0.000000    0.000000
         Rot=    0.999163    0.000000   -0.000000   -0.040899 Ang=  -4.69 deg.
 Initial guess orbital symmetries:
 Alpha Orbitals:
       Occupied  (A') (A') (A') (A') (A') (A') (A') (A') (A') (A')
                 (A") (A') (A') (A") (A") (A') (A') (A') (A') (A")
                 (A")
       Virtual   (A") (A") (A') (A') (A') (A') (A') (A") (A') (A')
                 (A') (A') (A') (A')
 Beta  Orbitals:
       Occupied  (A') (A') (A') (A') (A') (A') (A') (A') (A') (A')
                 (A") (A') (A') (A") (A') (A") (A') (A') (A") (A")
       Virtual   (A') (A") (A") (A') (A') (A') (A') (A') (A") (A')
                 (A') (A') (A') (A') (A')
 Initial guess <Sx>= 0.0000 <Sy>= 0.0000 <Sz>= 0.5000 <S**2>= 1.3734 S= 0.7741
 Keep J ints in memory in canonical form, NReq=862793.
 Overlap will be assumed to be unity.
 Requested convergence on RMS density matrix=1.00D-08 within  32 cycles.
 Requested convergence on MAX density matrix=1.00D-06.
 Requested convergence on             energy=1.00D-06.
 No special actions if energy rises.
 Fock symm off for IB=2 I1=    1 I=   28 J=    4 Cut=1.00D-07 Err=2.14D-03
 Fock matrix is not symmetric: symmetry in diagonalization turned off.
 SCF Done:  E(UAM1) =  0.374152869252     A.U. after   20 cycles
            NFock= 19  Conv=0.66D-08     -V/T= 1.0041
 <Sx>= 0.0000 <Sy>= 0.0000 <Sz>= 0.5000 <S**2>= 0.8403 S= 0.5442
 <L.S>=  0.00000000000    
 Annihilation of the first spin contaminant:
 S**2 before annihilation     0.8403,   after     0.7563
 QCSCF skips out because SCF is already converged.
 Calling FoFJK, ICntrl=      2127 FMM=F ISym2X=1 I1Cent= 0 IOpClX= 1 NMat=1 NMatS=1 NMatT=0.
 ***** Axes restored to original set *****
 -------------------------------------------------------------------
 Center     Atomic                   Forces (Hartrees/Bohr)
 Number     Number              X              Y              Z
 -------------------------------------------------------------------
      1        6          -0.177215893    0.078421829   -0.000000000
      2        6           0.006362134    0.299398456   -0.000000000
      3        6           0.137188012    0.095807850   -0.000000000
      4        6           0.302649206   -0.138588031   -0.000000000
      5        6          -0.011111553   -0.300343052   -0.000000000
      6        6          -0.173966359   -0.089796809    0.000000000
      7       17           0.010102209    0.005059295    0.000000000
      8       17           0.009062144   -0.003575123   -0.000000000
      9        1          -0.000064134   -0.112535007    0.000000000
     10        1          -0.096517408    0.052352318    0.000000000
     11        1          -0.006488357    0.113798274    0.000000000
 -------------------------------------------------------------------
 Cartesian Forces:  Max     0.302649206 RMS     0.114498992

 GradGradGradGradGradGradGradGradGradGradGradGradGradGradGradGradGradGrad
 Berny optimization.
 Using GEDIIS/GDIIS optimizer.
 FormGI is forming the generalized inverse of G from B-inverse, IUseBI=4.
 Internal  Forces:  Max     0.211217634 RMS     0.073241438
 Search for a local minimum.
 Step number   4 out of a maximum of   57
 All quantities printed in internal units (Hartrees-Bohrs-Radians)
 Mixed Optimization -- RFO/linear search
 Update second derivatives using D2CorX and points    2    4    3
 ITU=  0  1  1  0
 Use linear search instead of GDIIS.
     Eigenvalues ---    0.00004   0.02011   0.02011   0.02011   0.02011
     Eigenvalues ---    0.02011   0.02011   0.02011   0.02011   0.06491
     Eigenvalues ---    0.06544   0.15984   0.16000   0.16000   0.21780
     Eigenvalues ---    0.23163   0.24550   0.24862   0.25000   0.25897
     Eigenvalues ---    0.29033   0.38670   0.40415   0.44571   0.44645
     Eigenvalues ---    0.44656   0.93819
 RFO could not converge Lambda in  999 iterations.
 Quartic linear search produced a step of -0.69592.
 Iteration  1 RMS(Cart)=  0.08731839 RMS(Int)=  0.00042987
 Iteration  2 RMS(Cart)=  0.00053619 RMS(Int)=  0.00011345
 Iteration  3 RMS(Cart)=  0.00000019 RMS(Int)=  0.00011345
 ClnCor:  largest displacement from symmetrization is 3.79D-10 for atom     7.
 Variable       Old X    -DE/DX   Delta X   Delta X   Delta X     New X
                                 (Linear)    (Quad)   (Total)
    R1        2.44729   0.18930   0.15399   0.00000   0.15410   2.60139
    R2        2.49520   0.17081   0.12351   0.00000   0.12369   2.61890
    R3        3.28530  -0.00965   0.01141   0.00000   0.01141   3.29672
    R4        2.40360   0.18138   0.17790   0.00000   0.17783   2.58142
    R5        2.82464  -0.11253   0.04393   0.00000   0.04393   2.86856
    R6        2.39200   0.18742   0.18921   0.00000   0.18902   2.58102
    R7        2.39823   0.21122   0.18977   0.00000   0.18966   2.58789
    R8        2.79903  -0.10979   0.05953   0.00000   0.05953   2.85857
    R9        2.44783   0.18940   0.15502   0.00000   0.15509   2.60292
   R10        2.84523  -0.11397   0.01932   0.00000   0.01932   2.86455
   R11        3.29116  -0.01124   0.00731   0.00000   0.00731   3.29847
    A1        2.08681   0.00106   0.00280   0.00000   0.00312   2.08992
    A2        2.08504  -0.00271   0.00558   0.00000   0.00542   2.09047
    A3        2.11134   0.00165  -0.00838   0.00000  -0.00854   2.10280
    A4        2.05867   0.00633   0.01721   0.00000   0.01727   2.07593
    A5        2.11344  -0.00352  -0.01096   0.00000  -0.01099   2.10245
    A6        2.11108  -0.00282  -0.00625   0.00000  -0.00628   2.10480
    A7        2.14992   0.00335  -0.01963   0.00000  -0.01998   2.12994
    A8        2.09766  -0.01830  -0.01729   0.00000  -0.01757   2.08009
    A9        2.09724   0.00746   0.00454   0.00000   0.00467   2.10192
   A10        2.08829   0.01085   0.01276   0.00000   0.01290   2.10118
   A11        2.08501   0.00651   0.01037   0.00000   0.01035   2.09536
   A12        2.09385  -0.00120   0.00152   0.00000   0.00153   2.09538
   A13        2.10433  -0.00531  -0.01189   0.00000  -0.01188   2.09245
   A14        2.08831   0.00104   0.00653   0.00000   0.00681   2.09512
   A15        2.10994   0.00139  -0.00995   0.00000  -0.01009   2.09985
   A16        2.08493  -0.00243   0.00342   0.00000   0.00328   2.08821
    D1       -0.00000   0.00000   0.00000   0.00000   0.00000   0.00000
    D2        3.14159   0.00000   0.00000   0.00000   0.00000   3.14159
    D3        3.14159  -0.00000   0.00000   0.00000   0.00000   3.14159
    D4        0.00000   0.00000   0.00000   0.00000   0.00000   0.00000
    D5        0.00000  -0.00000   0.00000   0.00000   0.00000   0.00000
    D6        3.14159  -0.00000   0.00000   0.00000   0.00000   3.14159
    D7        3.14159   0.00000   0.00000   0.00000   0.00000   3.14159
    D8       -0.00000   0.00000   0.00000   0.00000   0.00000   0.00000
    D9        0.00000   0.00000   0.00000   0.00000   0.00000   0.00000
   D10        3.14159  -0.00000   0.00000   0.00000   0.00000   3.14159
   D11       -0.00000   0.00000   0.00000   0.00000   0.00000   0.00000
   D12        3.14159   0.00000   0.00000   0.00000   0.00000   3.14159
   D13        0.00000  -0.00000   0.00000   0.00000   0.00000   0.00000
   D14        3.14159   0.00000   0.00000   0.00000   0.00000   3.14159
   D15        3.14159  -0.00000   0.00000   0.00000   0.00000   3.14159
   D16       -0.00000  -0.00000   0.00000   0.00000   0.00000   0.00000
   D17       -0.00000  -0.00000   0.00000   0.00000   0.00000   0.00000
   D18        3.14159   0.00000   0.00000   0.00000   0.00000   3.14159
   D19        3.14159  -0.00000   0.00000   0.00000   0.00000   3.14159
   D20        0.00000  -0.00000   0.00000   0.00000  -0.00000   0.00000
         Item               Value     Threshold  Converged?
 Maximum Force            0.211218     0.000450     NO 
 RMS     Force            0.073241     0.000300     NO 
 Maximum Displacement     0.239994     0.001800     NO 
 RMS     Displacement     0.087214     0.001200     NO 
 Predicted change in Energy=-2.676716D-02
 GradGradGradGradGradGradGradGradGradGradGradGradGradGradGradGradGradGrad

                          Input orientation:                          
 ---------------------------------------------------------------------
 Center     Atomic      Atomic             Coordinates (Angstroms)
 Number     Number       Type             X           Y           Z
 ---------------------------------------------------------------------
      1          6           0       -3.170945    0.180202    0.000000
      2          6           0       -1.996153    0.897754   -0.000000
      3          6           0       -0.808887    0.222154   -0.000000
      4          6           0       -0.751805   -1.142469   -0.000000
      5          6           0       -1.918513   -1.859543   -0.000000
      6          6           0       -3.130498   -1.205068   -0.000000
      7         17           0       -4.610985   -2.129647    0.000000
      8         17           0       -4.699573    1.020882    0.000000
      9          1           0       -2.021444    2.415522   -0.000000
     10          1           0        0.583378   -1.853464   -0.000000
     11          1           0       -1.878324   -3.374863   -0.000000
 ---------------------------------------------------------------------
                    Distance matrix (angstroms):
[...]
 ClnCor:  largest displacement from symmetrization is 1.38D-12 for atom     8.
 Variable       Old X    -DE/DX   Delta X   Delta X   Delta X     New X
                                 (Linear)    (Quad)   (Total)
    R1        2.67225   0.00004  -0.00002   0.00011   0.00008   2.67233
    R2        2.67202  -0.00004  -0.00001  -0.00008  -0.00009   2.67193
    R3        3.19241  -0.00002  -0.00002  -0.00005  -0.00007   3.19234
    R4        2.58696   0.00002   0.00003  -0.00001   0.00002   2.58698
    R5        2.07386   0.00001   0.00000   0.00001   0.00001   2.07387
    R6        2.59157   0.00005   0.00002   0.00005   0.00007   2.59164
    R7        2.65722   0.00003   0.00002   0.00002   0.00004   2.65726
    R8        2.07221   0.00003   0.00008  -0.00001   0.00007   2.07228
    R9        2.66168   0.00003  -0.00001   0.00005   0.00003   2.66172
   R10        2.07801   0.00008   0.00002   0.00019   0.00021   2.07822
   R11        3.20215  -0.00001  -0.00003   0.00001  -0.00003   3.20212
    A1        2.08569   0.00001   0.00001   0.00001   0.00002   2.08571
    A2        2.07875  -0.00000   0.00003  -0.00004  -0.00001   2.07873
    A3        2.11874  -0.00001  -0.00004   0.00004  -0.00001   2.11874
    A4        2.00584  -0.00001  -0.00000  -0.00003  -0.00004   2.00580
    A5        2.12964  -0.00001   0.00002  -0.00009  -0.00007   2.12958
    A6        2.14771   0.00002  -0.00002   0.00012   0.00010   2.14781
    A7        2.25860  -0.00000   0.00000   0.00002   0.00002   2.25861
    A8        2.00632  -0.00001  -0.00002   0.00000  -0.00002   2.00630
    A9        2.14698   0.00000  -0.00000   0.00002   0.00002   2.14700
   A10        2.12988   0.00000   0.00003  -0.00002   0.00000   2.12988
   A11        2.09300  -0.00001   0.00001  -0.00003  -0.00001   2.09299
   A12        2.09533   0.00001   0.00000   0.00003   0.00004   2.09537
   A13        2.09485  -0.00000  -0.00002  -0.00001  -0.00002   2.09483
   A14        2.11692   0.00002   0.00000   0.00003   0.00004   2.11695
   A15        2.10089  -0.00002  -0.00002  -0.00001  -0.00003   2.10086
   A16        2.06537   0.00000   0.00002  -0.00002  -0.00000   2.06537
    D1        0.00000   0.00000   0.00000   0.00000   0.00000   0.00000
    D2        3.14159   0.00000   0.00000   0.00000   0.00000   3.14159
    D3        3.14159  -0.00000   0.00000  -0.00000   0.00000   3.14159
    D4       -0.00000   0.00000   0.00000   0.00000   0.00000   0.00000
    D5       -0.00000  -0.00000   0.00000  -0.00000   0.00000   0.00000
    D6        3.14159  -0.00000   0.00000  -0.00000   0.00000   3.14159
    D7        3.14159   0.00000   0.00000   0.00000   0.00000   3.14159
    D8       -0.00000   0.00000   0.00000   0.00000   0.00000   0.00000
    D9       -0.00000  -0.00000   0.00000  -0.00000   0.00000   0.00000
   D10        3.14159  -0.00000   0.00000  -0.00000   0.00000   3.14159
   D11        0.00000  -0.00000   0.00000  -0.00000   0.00000   0.00000
   D12        3.14159   0.00000   0.00000   0.00000   0.00000   3.14159
   D13        0.00000   0.00000   0.00000   0.00000  -0.00000   0.00000
   D14        3.14159   0.00000   0.00000   0.00000   0.00000   3.14159
   D15        3.14159  -0.00000   0.00000  -0.00000   0.00000   3.14159
   D16       -0.00000   0.00000   0.00000   0.00000   0.00000   0.00000
   D17       -0.00000  -0.00000   0.00000  -0.00000   0.00000   0.00000
   D18        3.14159   0.00000   0.00000   0.00000   0.00000   3.14159
   D19        3.14159  -0.00000   0.00000  -0.00000   0.00000   3.14159
   D20        0.00000  -0.00000   0.00000  -0.00000   0.00000   0.00000
         Item               Value     Threshold  Converged?
 Maximum Force            0.000077     0.000450     YES
 RMS     Force            0.000019     0.000300     YES
 Maximum Displacement     0.000226     0.001800     YES
 RMS     Displacement     0.000061     0.001200     YES
 Predicted change in Energy=-2.036211D-08
 Optimization completed.
    -- Stationary point found.
                           ----------------------------
                           !   Optimized Parameters   !
                           ! (Angstroms and Degrees)  !
 --------------------------                            --------------------------
 ! Name  Definition              Value          Derivative Info.                !
 --------------------------------------------------------------------------------
 ! R1    R(1,2)                  1.4141         -DE/DX =    0.0                 !
 ! R2    R(1,6)                  1.414          -DE/DX =    0.0                 !
 ! R3    R(1,8)                  1.6894         -DE/DX =    0.0                 !
 ! R4    R(2,3)                  1.369          -DE/DX =    0.0                 !
 ! R5    R(2,9)                  1.0974         -DE/DX =    0.0                 !
 ! R6    R(3,4)                  1.3714         -DE/DX =    0.0001              !
 ! R7    R(4,5)                  1.4061         -DE/DX =    0.0                 !
 ! R8    R(4,10)                 1.0966         -DE/DX =    0.0                 !
 ! R9    R(5,6)                  1.4085         -DE/DX =    0.0                 !
 ! R10   R(5,11)                 1.0996         -DE/DX =    0.0001              !
 ! R11   R(6,7)                  1.6945         -DE/DX =    0.0                 !
 ! A1    A(2,1,6)              119.5014         -DE/DX =    0.0                 !
 ! A2    A(2,1,8)              119.1035         -DE/DX =    0.0                 !
 ! A3    A(6,1,8)              121.3951         -DE/DX =    0.0                 !
 ! A4    A(1,2,3)              114.926          -DE/DX =    0.0                 !
 ! A5    A(1,2,9)              122.0196         -DE/DX =    0.0                 !
 ! A6    A(3,2,9)              123.0545         -DE/DX =    0.0                 !
 ! A7    A(2,3,4)              129.4081         -DE/DX =    0.0                 !
 ! A8    A(3,4,5)              114.9539         -DE/DX =    0.0                 !
 ! A9    A(3,4,10)             123.0129         -DE/DX =    0.0                 !
 ! A10   A(5,4,10)             122.0332         -DE/DX =    0.0                 !
 ! A11   A(4,5,6)              119.9201         -DE/DX =    0.0                 !
 ! A12   A(4,5,11)             120.0538         -DE/DX =    0.0                 !
 ! A13   A(6,5,11)             120.0261         -DE/DX =    0.0                 !
 ! A14   A(1,6,5)              121.2905         -DE/DX =    0.0                 !
 ! A15   A(1,6,7)              120.3723         -DE/DX =    0.0                 !
 ! A16   A(5,6,7)              118.3372         -DE/DX =    0.0                 !
 ! D1    D(6,1,2,3)              0.0            -DE/DX =    0.0                 !
 ! D2    D(6,1,2,9)            180.0            -DE/DX =    0.0                 !
 ! D3    D(8,1,2,3)            180.0            -DE/DX =    0.0                 !
 ! D4    D(8,1,2,9)              0.0            -DE/DX =    0.0                 !
 ! D5    D(2,1,6,5)              0.0            -DE/DX =    0.0                 !
 ! D6    D(2,1,6,7)            180.0            -DE/DX =    0.0                 !
 ! D7    D(8,1,6,5)            180.0            -DE/DX =    0.0                 !
 ! D8    D(8,1,6,7)              0.0            -DE/DX =    0.0                 !
 ! D9    D(1,2,3,4)              0.0            -DE/DX =    0.0                 !
 ! D10   D(9,2,3,4)            180.0            -DE/DX =    0.0                 !
 ! D11   D(2,3,4,5)              0.0            -DE/DX =    0.0                 !
 ! D12   D(2,3,4,10)           180.0            -DE/DX =    0.0                 !
 ! D13   D(3,4,5,6)              0.0            -DE/DX =    0.0                 !
 ! D14   D(3,4,5,11)           180.0            -DE/DX =    0.0                 !
 ! D15   D(10,4,5,6)           180.0            -DE/DX =    0.0                 !
 ! D16   D(10,4,5,11)            0.0            -DE/DX =    0.0                 !
 ! D17   D(4,5,6,1)              0.0            -DE/DX =    0.0                 !
 ! D18   D(4,5,6,7)            180.0            -DE/DX =    0.0                 !
 ! D19   D(11,5,6,1)           180.0            -DE/DX =    0.0                 !
 ! D20   D(11,5,6,7)             0.0            -DE/DX =    0.0                 !
 --------------------------------------------------------------------------------
 GradGradGradGradGradGradGradGradGradGradGradGradGradGradGradGradGradGrad

                          Input orientation:                          
 ---------------------------------------------------------------------
 Center     Atomic      Atomic             Coordinates (Angstroms)
 Number     Number       Type             X           Y           Z
 ---------------------------------------------------------------------
      1          6           0       -3.174048    0.186542    0.000000
      2          6           0       -1.970926    0.929613   -0.000000
      3          6           0       -0.827708    0.176551   -0.000000
      4          6           0       -0.683541   -1.187248   -0.000000
      5          6           0       -1.888988   -1.911216   -0.000000
      6          6           0       -3.119797   -1.226390   -0.000000
      7         17           0       -4.547795   -2.138619    0.000000
      8         17           0       -4.648775    1.010612    0.000000
      9          1           0       -1.964811    2.027035   -0.000000
     10          1           0        0.293693   -1.684714   -0.000000
     11          1           0       -1.871056   -3.010704   -0.000000
 ---------------------------------------------------------------------
                    Distance matrix (angstroms):
                    1          2          3          4          5
     1  C    0.000000
     2  C    1.414092   0.000000
     3  C    2.346361   1.368960   0.000000
     4  C    2.844279   2.477592   1.371398   0.000000
     5  C    2.460075   2.842011   2.342026   1.406140   0.000000
     6  C    1.413973   2.443001   2.687362   2.436570   1.408502
     7  Cl   2.700658   4.006782   4.381673   3.979644   2.668514
     8  Cl   1.689352   2.679073   3.911037   4.533615   4.019143
     9  H    2.202196   1.097439   2.171933   3.460241   3.938981
    10  H    3.940410   3.458787   2.172981   1.096567   2.194402
    11  H    3.452560   3.941582   3.353679   2.176047   1.099634
                    6          7          8          9         10
     6  C    0.000000
     7  Cl   1.694503   0.000000
     8  Cl   2.709604   3.150850   0.000000
     9  H    3.452357   4.901478   2.869979   0.000000
    10  H    3.444122   4.862719   5.629634   4.344873   0.000000
    11  H    2.177873   2.815220   4.887403   5.038611   2.538580
                   11
    11  H    0.000000
 Stoichiometry    C6H3Cl2(2)
 Framework group  CS[SG(C6H3Cl2)]
 Deg. of freedom    19
 Full point group                 CS      NOp   2
 Largest Abelian subgroup         CS      NOp   2
 Largest concise Abelian subgroup C1      NOp   1
                         Standard orientation:                         
 ---------------------------------------------------------------------
 Center     Atomic      Atomic             Coordinates (Angstroms)
 Number     Number       Type             X           Y           Z
 ---------------------------------------------------------------------
      1          6           0        0.006519   -0.735399    0.000000
      2          6           0        1.240462   -1.426080    0.000000
      3          6           0        2.350262   -0.624584    0.000000
      4          6           0        2.435687    0.744150    0.000000
      5          6           0        1.200242    1.415646    0.000000
      6          6           0        0.000000    0.678559    0.000000
      7         17           0       -1.465881    1.528579    0.000000
      8         17           0       -1.431432   -1.622083    0.000000
      9          1           0        1.293733   -2.522225    0.000000
     10          1           0        3.390641    1.283152    0.000000
     11          1           0        1.170908    2.514888    0.000000
 ---------------------------------------------------------------------
 Rotational constants (GHZ):           1.9542726           1.5063325           0.8506560

 **********************************************************************

            Population analysis using the SCF Density.

 **********************************************************************

 Orbital symmetries:
 Alpha Orbitals:
       Occupied  (A') (A') (A') (A') (A') (A') (A') (A') (A') (A')
                 (A') (A") (A') (A') (A") (A") (A') (A') (A') (A")
                 (A")
       Virtual   (A") (A") (A') (A') (A") (A') (A') (A') (A') (A')
                 (A') (A') (A') (A')
 Beta  Orbitals:
       Occupied  (A') (A') (A') (A') (A') (A') (A') (A') (A') (A')
                 (A") (A') (A') (A') (A") (A") (A') (A') (A") (A")
       Virtual   (A") (A') (A") (A') (A') (A") (A') (A') (A') (A')
                 (A') (A') (A') (A') (A')
 The electronic state is 2-A'.
 Alpha  occ. eigenvalues --   -1.47221  -1.39414  -1.38561  -1.17863  -1.14074
 Alpha  occ. eigenvalues --   -0.88805  -0.85962  -0.68252  -0.62417  -0.62183
 Alpha  occ. eigenvalues --   -0.56037  -0.56017  -0.54086  -0.49058  -0.48286
 Alpha  occ. eigenvalues --   -0.46711  -0.45246  -0.44332  -0.39495  -0.38115
 Alpha  occ. eigenvalues --   -0.36684
 Alpha virt. eigenvalues --   -0.00362  -0.00004   0.03196   0.04744   0.07961
 Alpha virt. eigenvalues --    0.11957   0.12867   0.13387   0.14515   0.15621
 Alpha virt. eigenvalues --    0.16020   0.17121   0.18406   0.18837
  Beta  occ. eigenvalues --   -1.46619  -1.39322  -1.38200  -1.17741  -1.12771
  Beta  occ. eigenvalues --   -0.88471  -0.83638  -0.68112  -0.61779  -0.60911
  Beta  occ. eigenvalues --   -0.55794  -0.55694  -0.52872  -0.48664  -0.48244
  Beta  occ. eigenvalues --   -0.46138  -0.44780  -0.44222  -0.38042  -0.36395
  Beta virt. eigenvalues --   -0.00393  -0.00230   0.01308   0.03332   0.05167
  Beta virt. eigenvalues --    0.08837   0.12162   0.12986   0.13641   0.14956
  Beta virt. eigenvalues --    0.16095   0.16649   0.16993   0.18993   0.20369
          Condensed to atoms (all electrons):
               1          2          3          4          5          6
     1  C    4.060865   0.000000   0.000000   0.000000   0.000000   0.000000
     2  C    0.000000   4.107546   0.000000   0.000000   0.000000   0.000000
     3  C    0.000000   0.000000   4.063968   0.000000   0.000000   0.000000
     4  C    0.000000   0.000000   0.000000   4.112241   0.000000   0.000000
     5  C    0.000000   0.000000   0.000000   0.000000   4.111822   0.000000
     6  C    0.000000   0.000000   0.000000   0.000000   0.000000   4.077180
     7  Cl   0.000000   0.000000   0.000000   0.000000   0.000000   0.000000
     8  Cl   0.000000   0.000000   0.000000   0.000000   0.000000   0.000000
     9  H    0.000000   0.000000   0.000000   0.000000   0.000000   0.000000
    10  H    0.000000   0.000000   0.000000   0.000000   0.000000   0.000000
    11  H    0.000000   0.000000   0.000000   0.000000   0.000000   0.000000
               7          8          9         10         11
     1  C    0.000000   0.000000   0.000000   0.000000   0.000000
     2  C    0.000000   0.000000   0.000000   0.000000   0.000000
     3  C    0.000000   0.000000   0.000000   0.000000   0.000000
     4  C    0.000000   0.000000   0.000000   0.000000   0.000000
     5  C    0.000000   0.000000   0.000000   0.000000   0.000000
     6  C    0.000000   0.000000   0.000000   0.000000   0.000000
     7  Cl   6.984738   0.000000   0.000000   0.000000   0.000000
     8  Cl   0.000000   6.976408   0.000000   0.000000   0.000000
     9  H    0.000000   0.000000   0.826879   0.000000   0.000000
    10  H    0.000000   0.000000   0.000000   0.835728   0.000000
    11  H    0.000000   0.000000   0.000000   0.000000   0.842624
          Atomic-Atomic Spin Densities.
               1          2          3          4          5          6
     1  C    0.498807   0.000000   0.000000   0.000000   0.000000   0.000000
     2  C    0.000000  -0.492516   0.000000   0.000000   0.000000   0.000000
     3  C    0.000000   0.000000   1.378145   0.000000   0.000000   0.000000
     4  C    0.000000   0.000000   0.000000  -0.481694   0.000000   0.000000
     5  C    0.000000   0.000000   0.000000   0.000000   0.500820   0.000000
     6  C    0.000000   0.000000   0.000000   0.000000   0.000000  -0.461376
     7  Cl   0.000000   0.000000   0.000000   0.000000   0.000000   0.000000
     8  Cl   0.000000   0.000000   0.000000   0.000000   0.000000   0.000000
     9  H    0.000000   0.000000   0.000000   0.000000   0.000000   0.000000
    10  H    0.000000   0.000000   0.000000   0.000000   0.000000   0.000000
    11  H    0.000000   0.000000   0.000000   0.000000   0.000000   0.000000
               7          8          9         10         11
     1  C    0.000000   0.000000   0.000000   0.000000   0.000000
     2  C    0.000000   0.000000   0.000000   0.000000   0.000000
     3  C    0.000000   0.000000   0.000000   0.000000   0.000000
     4  C    0.000000   0.000000   0.000000   0.000000   0.000000
     5  C    0.000000   0.000000   0.000000   0.000000   0.000000
     6  C    0.000000   0.000000   0.000000   0.000000   0.000000
     7  Cl  -0.001377   0.000000   0.000000   0.000000   0.000000
     8  Cl   0.000000   0.014263   0.000000   0.000000   0.000000
     9  H    0.000000   0.000000   0.032806   0.000000   0.000000
    10  H    0.000000   0.000000   0.000000   0.031795   0.000000
    11  H    0.000000   0.000000   0.000000   0.000000  -0.019673
 Mulliken charges and spin densities:
               1          2
     1  C   -0.060865   0.498807
     2  C   -0.107546  -0.492516
     3  C   -0.063968   1.378145
     4  C   -0.112241  -0.481694
     5  C   -0.111822   0.500820
     6  C   -0.077180  -0.461376
     7  Cl   0.015262  -0.001377
     8  Cl   0.023592   0.014263
     9  H    0.173121   0.032806
    10  H    0.164272   0.031795
    11  H    0.157376  -0.019673
 Sum of Mulliken charges =  -0.00000   1.00000
 Mulliken charges and spin densities with hydrogens summed into heavy atoms:
               1          2
     1  C   -0.060865   0.498807
     2  C    0.065575  -0.459711
     3  C   -0.063968   1.378145
     4  C    0.052031  -0.449899
     5  C    0.045553   0.481147
     6  C   -0.077180  -0.461376
     7  Cl   0.015262  -0.001377
     8  Cl   0.023592   0.014263
 Charge=             -0.0000 electrons
 Dipole moment (field-independent basis, Debye):
    X=              0.9159    Y=              0.5151    Z=              0.0000  Tot=              1.0508
 N-N= 1.987285042260D+02 E-N=-2.764798330636D+02  KE=-9.051206709298D+01
 Symmetry A'   KE=-7.012654891537D+01
 Symmetry A"   KE=-2.038551817761D+01
 Symmetry A'   SP= 1.000000000000D+00
 Symmetry A"   SP= 1.998401444325D-15
 1\1\GINC-SH02-01N15\FOpt\UAM1\ZDO\C6H3Cl2(2)\JLAPIER\09-Dec-2025\0\\# 
 opt am1 SCF=XQC\\Neutral Radical (removed 4) 12_\\0,2\C,-3.1740477845,
 0.1865418177,0.\C,-1.9709261713,0.9296129205,0.\C,-0.8277079692,0.1765
 505048,0.\C,-0.6835410521,-1.1872483018,0.\C,-1.8889876121,-1.91121628
 9,0.\C,-3.1197969546,-1.226390117,0.\Cl,-4.5477948564,-2.1386194599,0.
 \Cl,-4.6487746128,1.010612291,0.\H,-1.9648105527,2.0270347898,0.\H,0.2
 936933523,-1.6847144058,0.\H,-1.8710557866,-3.0107037504,0.\\Version=E
 S64L-G16RevB.01\State=2-A'\HF=0.0964092\S2=1.248219\S2-1=0.\S2A=0.9652
 18\RMSD=3.591e-09\RMSF=2.560e-05\Dipole=0.3687003,-0.1869809,0.\PG=CS 
 [SG(C6H3Cl2)]\\@


 NATURE WILL TELL YOU A DIRECT LIE IF SHE CAN.

                                -- CHARLES DARWIN
 Job cpu time:       0 days  0 hours  0 minutes 17.5 seconds.
 Elapsed time:       0 days  0 hours  0 minutes 36.5 seconds.
 File lengths (MBytes):  RWF=     10 Int=      0 D2E=      0 Chk=      2 Scr=      1
 Normal termination of Gaussian 16 at Tue Dec  9 09:59:21 2025.
