 Entering Gaussian System, Link 0=g16
 Initial command:
 /share/software/user/restricted/gaussian/g16.B01/l1.exe "/home/users/jlapier/Chloroaromatics/Gau-16621.inp" -scrdir="/home/users/jlapier/Chloroaromatics/"
 Entering Link 1 = /share/software/user/restricted/gaussian/g16.B01/l1.exe PID=     16622.
  
 Copyright (c) 1988-2017, Gaussian, Inc.  All Rights Reserved.
  
 This is part of the Gaussian(R) 16 program.  It is based on
 the Gaussian(R) 09 system (copyright 2009, Gaussian, Inc.),
 the Gaussian(R) 03 system (copyright 2003, Gaussian, Inc.),
 the Gaussian(R) 98 system (copyright 1998, Gaussian, Inc.),
 the Gaussian(R) 94 system (copyright 1995, Gaussian, Inc.),
 the Gaussian 92(TM) system (copyright 1992, Gaussian, Inc.),
 the Gaussian 90(TM) system (copyright 1990, Gaussian, Inc.),
 the Gaussian 88(TM) system (copyright 1988, Gaussian, Inc.),
 the Gaussian 86(TM) system (copyright 1986, Carnegie Mellon
 University), and the Gaussian 82(TM) system (copyright 1983,
 Carnegie Mellon University). Gaussian is a federally registered
 trademark of Gaussian, Inc.
  
 This software contains proprietary and confidential information,
 including trade secrets, belonging to Gaussian, Inc.
  
 This software is provided under written license and may be
 used, copied, transmitted, or stored only in accord with that
 written license.
  
 The following legend is applicable only to US Government
 contracts under FAR:
  
                    RESTRICTED RIGHTS LEGEND
  
 Use, reproduction and disclosure by the US Government is
 subject to restrictions as set forth in subparagraphs (a)
 and (c) of the Commercial Computer Software - Restricted
 Rights clause in FAR 52.227-19.
  
 Gaussian, Inc.
 340 Quinnipiac St., Bldg. 40, Wallingford CT 06492
  
  
 ---------------------------------------------------------------
 Warning -- This program may not be used in any manner that
 competes with the business of Gaussian, Inc. or will provide
 assistance to any competitor of Gaussian, Inc.  The licensee
 of this program is prohibited from giving any competitor of
 Gaussian, Inc. access to this program.  By using this program,
 the user acknowledges that Gaussian, Inc. is engaged in the
 business of creating and licensing software in the field of
 computational chemistry and represents and warrants to the
 licensee that it is not a competitor of Gaussian, Inc. and that
 it will not use this program in any manner prohibited above.
 ---------------------------------------------------------------
  

 Cite this work as:
 Gaussian 16, Revision B.01,
 M. J. Frisch, G. W. Trucks, H. B. Schlegel, G. E. Scuseria, 
 M. A. Robb, J. R. Cheeseman, G. Scalmani, V. Barone, 
 G. A. Petersson, H. Nakatsuji, X. Li, M. Caricato, A. V. Marenich, 
 J. Bloino, B. G. Janesko, R. Gomperts, B. Mennucci, H. P. Hratchian, 
 J. V. Ortiz, A. F. Izmaylov, J. L. Sonnenberg, D. Williams-Young, 
 F. Ding, F. Lipparini, F. Egidi, J. Goings, B. Peng, A. Petrone, 
 T. Henderson, D. Ranasinghe, V. G. Zakrzewski, J. Gao, N. Rega, 
 G. Zheng, W. Liang, M. Hada, M. Ehara, K. Toyota, R. Fukuda, 
 J. Hasegawa, M. Ishida, T. Nakajima, Y. Honda, O. Kitao, H. Nakai, 
 T. Vreven, K. Throssell, J. A. Montgomery, Jr., J. E. Peralta, 
 F. Ogliaro, M. J. Bearpark, J. J. Heyd, E. N. Brothers, K. N. Kudin, 
 V. N. Staroverov, T. A. Keith, R. Kobayashi, J. Normand, 
 K. Raghavachari, A. P. Rendell, J. C. Burant, S. S. Iyengar, 
 J. Tomasi, M. Cossi, J. M. Millam, M. Klene, C. Adamo, R. Cammi, 
 J. W. Ochterski, R. L. Martin, K. Morokuma, O. Farkas, 
 J. B. Foresman, and D. J. Fox, Gaussian, Inc., Wallingford CT, 2016.
 
 ******************************************
 Gaussian 16:  ES64L-G16RevB.01 20-Dec-2017
                 8-Dec-2025 
 ******************************************
 %mem=2GB
 %nprocshare=1
 Will use up to    1 processors via shared memory.
 %chk=geometry_chks/12_ClBzAnionIntermediate.chk
 ---------------------------
 # opt am1 SCF(maxcyc=10000)
 ---------------------------
 1/18=20,19=15,26=1,38=1/1,3;
 2/9=110,12=2,17=6,18=5,40=1/2;
 3/5=2,25=1,41=700000,71=1/1,2,3;
 4/35=1/1;
 5/5=2,7=10000,35=1,38=5/2;
 6/7=2,8=2,9=2,10=2,28=1/1;
 7//1,2,3,16;
 1/18=20,19=15,26=1/3(2);
 2/9=110/2;
 99//99;
 2/9=110/2;
 3/5=2,25=1,41=700000,71=1,135=20/1,2,3;
 4/5=5,16=3,35=1/1;
 5/5=2,7=10000,35=1,38=5/2;
 7//1,2,3,16;
 1/18=20,19=15,26=1/3(-5);
 2/9=110/2;
 6/7=2,8=2,9=2,10=2,19=2,28=1/1;
 99/9=1/99;
 ----------------------------------
 Anion Intermediate (removed 4) 12_
 ----------------------------------
 Symbolic Z-matrix:
 Charge = -1 Multiplicity = 1
 C                    -3.20928   0.19943   0. 
 C                    -2.0115    0.93555   0. 
 C                    -0.77511   0.2663    0. 
 C                    -0.7365   -1.13907   0. 
 C                    -1.93429  -1.87519   0. 
 C                    -3.17067  -1.20594   0. 
 Cl                   -4.67483  -2.13035   0. 
 Cl                   -4.76193   1.03987   0. 
 H                     0.81614  -1.97951   0. 
 H                    -2.05998   2.7004    0. 
 H                     0.72905   1.19071   0. 
 
 Add virtual bond connecting atoms H9         and C4         Dist= 3.34D+00.
 Add virtual bond connecting atoms H11        and C3         Dist= 3.34D+00.
 Add virtual bond connecting atoms H10        and C2         Dist= 3.34D+00.

 GradGradGradGradGradGradGradGradGradGradGradGradGradGradGradGradGradGrad
 Berny optimization.
 Initialization pass.
                           ----------------------------
                           !    Initial Parameters    !
                           ! (Angstroms and Degrees)  !
 --------------------------                            --------------------------
 ! Name  Definition              Value          Derivative Info.                !
 --------------------------------------------------------------------------------
 ! R1    R(1,2)                  1.4059         estimate D2E/DX2                !
 ! R2    R(1,6)                  1.4059         estimate D2E/DX2                !
 ! R3    R(1,8)                  1.7655         estimate D2E/DX2                !
 ! R4    R(2,3)                  1.4059         estimate D2E/DX2                !
 ! R5    R(2,10)                 1.7655         estimate D2E/DX2                !
 ! R6    R(3,4)                  1.4059         estimate D2E/DX2                !
 ! R7    R(3,11)                 1.7655         estimate D2E/DX2                !
 ! R8    R(4,5)                  1.4059         estimate D2E/DX2                !
 ! R9    R(4,9)                  1.7655         estimate D2E/DX2                !
 ! R10   R(5,6)                  1.4059         estimate D2E/DX2                !
 ! R11   R(6,7)                  1.7655         estimate D2E/DX2                !
 ! A1    A(2,1,6)              119.9999         estimate D2E/DX2                !
 ! A2    A(2,1,8)              119.9999         estimate D2E/DX2                !
 ! A3    A(6,1,8)              120.0001         estimate D2E/DX2                !
 ! A4    A(1,2,3)              120.0            estimate D2E/DX2                !
 ! A5    A(1,2,10)             120.0001         estimate D2E/DX2                !
 ! A6    A(3,2,10)             119.9999         estimate D2E/DX2                !
 ! A7    A(2,3,4)              120.0001         estimate D2E/DX2                !
 ! A8    A(2,3,11)             120.0            estimate D2E/DX2                !
 ! A9    A(4,3,11)             119.9999         estimate D2E/DX2                !
 ! A10   A(3,4,5)              119.9997         estimate D2E/DX2                !
 ! A11   A(3,4,9)              120.0003         estimate D2E/DX2                !
 ! A12   A(5,4,9)              120.0            estimate D2E/DX2                !
 ! A13   A(4,5,6)              120.0            estimate D2E/DX2                !
 ! A14   A(1,6,5)              120.0003         estimate D2E/DX2                !
 ! A15   A(1,6,7)              119.9999         estimate D2E/DX2                !
 ! A16   A(5,6,7)              119.9998         estimate D2E/DX2                !
 ! D1    D(6,1,2,3)              0.0            estimate D2E/DX2                !
 ! D2    D(6,1,2,10)           180.0            estimate D2E/DX2                !
 ! D3    D(8,1,2,3)            180.0            estimate D2E/DX2                !
 ! D4    D(8,1,2,10)             0.0            estimate D2E/DX2                !
 ! D5    D(2,1,6,5)              0.0            estimate D2E/DX2                !
 ! D6    D(2,1,6,7)            180.0            estimate D2E/DX2                !
 ! D7    D(8,1,6,5)            180.0            estimate D2E/DX2                !
 ! D8    D(8,1,6,7)              0.0            estimate D2E/DX2                !
 ! D9    D(1,2,3,4)              0.0            estimate D2E/DX2                !
 ! D10   D(1,2,3,11)           180.0            estimate D2E/DX2                !
 ! D11   D(10,2,3,4)           180.0            estimate D2E/DX2                !
 ! D12   D(10,2,3,11)            0.0            estimate D2E/DX2                !
 ! D13   D(2,3,4,5)              0.0            estimate D2E/DX2                !
 ! D14   D(2,3,4,9)            180.0            estimate D2E/DX2                !
 ! D15   D(11,3,4,5)           180.0            estimate D2E/DX2                !
 ! D16   D(11,3,4,9)             0.0            estimate D2E/DX2                !
 ! D17   D(3,4,5,6)              0.0            estimate D2E/DX2                !
 ! D18   D(9,4,5,6)            180.0            estimate D2E/DX2                !
 ! D19   D(4,5,6,1)              0.0            estimate D2E/DX2                !
 ! D20   D(4,5,6,7)            180.0            estimate D2E/DX2                !
 --------------------------------------------------------------------------------
 Trust Radius=3.00D-01 FncErr=1.00D-07 GrdErr=1.00D-07 EigMax=2.50D+02 EigMin=1.00D-04
 Number of steps in this run=     57 maximum allowed number of steps=    100.
 GradGradGradGradGradGradGradGradGradGradGradGradGradGradGradGradGradGrad

                          Input orientation:                          
 ---------------------------------------------------------------------
 Center     Atomic      Atomic             Coordinates (Angstroms)
 Number     Number       Type             X           Y           Z
 ---------------------------------------------------------------------
      1          6           0       -3.209280    0.199430    0.000000
      2          6           0       -2.011500    0.935550    0.000000
      3          6           0       -0.775110    0.266300    0.000000
      4          6           0       -0.736500   -1.139070    0.000000
      5          6           0       -1.934290   -1.875190    0.000000
      6          6           0       -3.170670   -1.205940    0.000000
      7         17           0       -4.674830   -2.130350    0.000000
      8         17           0       -4.761930    1.039870    0.000000
      9          1           0        0.816140   -1.979510    0.000000
     10          1           0       -2.059980    2.700400    0.000000
     11          1           0        0.729050    1.190710    0.000000
 ---------------------------------------------------------------------
                    Distance matrix (angstroms):
                    1          2          3          4          5
     1  C    0.000000
     2  C    1.405898   0.000000
     3  C    2.435088   1.405900   0.000000
     4  C    2.811801   2.435092   1.405900   0.000000
     5  C    2.435087   2.811800   2.435093   1.405907   0.000000
     6  C    1.405900   2.435088   2.811796   2.435088   1.405892
     7  Cl   2.752401   4.061166   4.577308   4.061167   2.752393
     8  Cl   1.765520   2.752408   4.061175   4.577321   4.061173
     9  H    4.577312   4.061173   2.752406   1.765511   2.752408
    10  H    2.752406   1.765516   2.752405   4.061173   4.577316
    11  H    4.061167   2.752403   1.765512   2.752401   4.061173
                    6          7          8          9         10
     6  C    0.000000
     7  Cl   1.765512   0.000000
     8  Cl   2.752412   3.171416   0.000000
     9  H    4.061165   5.493041   6.342832   0.000000
    10  H    4.061173   5.493049   3.171418   5.493052   0.000000
    11  H    4.577308   6.342819   5.493051   3.171416   3.171412
                   11
    11  H    0.000000
 Stoichiometry    C6H3Cl2(1-)
 Framework group  CS[SG(C6H3Cl2)]
 Deg. of freedom    19
 Full point group                 CS      NOp   2
 Largest Abelian subgroup         CS      NOp   2
 Largest concise Abelian subgroup C1      NOp   1
                         Standard orientation:                         
 ---------------------------------------------------------------------
 Center     Atomic      Atomic             Coordinates (Angstroms)
 Number     Number       Type             X           Y           Z
 ---------------------------------------------------------------------
      1          6           0       -0.564354   -0.341520    0.000000
      2          6           0       -1.781898    0.361428    0.000000
      3          6           0       -1.781898    1.767328    0.000000
      4          6           0       -0.564354    2.470281    0.000000
      5          6           0        0.653195    1.767324    0.000000
      6          6           0        0.653190    0.361432    0.000000
      7         17           0        2.182168   -0.521324    0.000000
      8         17           0       -0.564355   -2.107040    0.000000
      9          1           0       -0.564349    4.235792    0.000000
     10          1           0       -3.310881   -0.521327    0.000000
     11          1           0       -3.310876    2.650084    0.000000
 ---------------------------------------------------------------------
 Rotational constants (GHZ):           1.9289608           1.3512439           0.7946140
 Standard basis: VSTO-6G (5D, 7F)
 There are    27 symmetry adapted cartesian basis functions of A'  symmetry.
 There are     8 symmetry adapted cartesian basis functions of A"  symmetry.
 There are    27 symmetry adapted basis functions of A'  symmetry.
 There are     8 symmetry adapted basis functions of A"  symmetry.
    35 basis functions,   210 primitive gaussians,    35 cartesian basis functions
    21 alpha electrons       21 beta electrons
       nuclear repulsion energy       192.9559667337 Hartrees.
 Integral buffers will be    131072 words long.
 Regular integral format.
 Two-electron integral symmetry is turned off.
 Do NDO integrals.
 One-electron integrals computed using PRISM.
 NBasis=    35 RedAO= T EigKep=  1.00D+00  NBF=    27     8
 NBsUse=    35 1.00D-06 EigRej= -1.00D+00 NBFU=    27     8
 Simple Huckel Guess.
 Initial guess orbital symmetries:
       Occupied  (A') (A') (A') (A') (A') (A') (A') (A') (A') (A")
                 (A') (A') (A') (A") (A") (A') (A') (A") (A') (A")
                 (A')
       Virtual   (A') (A") (A") (A') (A') (A") (A') (A') (A') (A')
                 (A') (A') (A') (A')
 The electronic state of the initial guess is 1-A'.
 Keep J ints in memory in canonical form, NReq=862793.
 Overlap will be assumed to be unity.
 Requested convergence on RMS density matrix=1.00D-08 within**** cycles.
 Requested convergence on MAX density matrix=1.00D-06.
 Requested convergence on             energy=1.00D-06.
 No special actions if energy rises.
 Fock symm off for IB=2 I1=    1 I=   28 J=   27 Cut=1.00D-07 Err=6.69D-03
 Fock matrix is not symmetric: symmetry in diagonalization turned off.
 SCF Done:  E(RAM1) =  0.414737012904     A.U. after   17 cycles
            NFock= 16  Conv=0.53D-08     -V/T= 1.0045

 **********************************************************************

            Population analysis using the SCF Density.

 **********************************************************************

 Orbital symmetries:
       Occupied  (A') (A') (A') (A') (A') (A') (A') (A') (A') (A')
                 (A") (A") (A') (A') (A") (A') (A') (A') (A") (A")
                 (A')
       Virtual   (A') (A') (A") (A') (A") (A') (A') (A") (A') (A')
                 (A') (A') (A') (A')
 The electronic state is 1-A'.
 Alpha  occ. eigenvalues --   -1.24639  -1.20550  -1.18215  -0.93319  -0.90585
 Alpha  occ. eigenvalues --   -0.64195  -0.62408  -0.44612  -0.41319  -0.38691
 Alpha  occ. eigenvalues --   -0.36917  -0.31012  -0.30419  -0.29556  -0.28212
 Alpha  occ. eigenvalues --   -0.27703  -0.24964  -0.21991  -0.18325  -0.16577
 Alpha  occ. eigenvalues --   -0.11349
 Alpha virt. eigenvalues --    0.14417   0.16577   0.17409   0.18050   0.19501
 Alpha virt. eigenvalues --    0.20158   0.22278   0.28551   0.32812   0.33105
 Alpha virt. eigenvalues --    0.34956   0.36106   0.37986   0.40724
          Condensed to atoms (all electrons):
               1          2          3          4          5          6
     1  C    4.052034   0.000000   0.000000   0.000000   0.000000   0.000000
     2  C    0.000000   4.182758   0.000000   0.000000   0.000000   0.000000
     3  C    0.000000   0.000000   4.109676   0.000000   0.000000   0.000000
     4  C    0.000000   0.000000   0.000000   4.109820   0.000000   0.000000
     5  C    0.000000   0.000000   0.000000   0.000000   4.360942   0.000000
     6  C    0.000000   0.000000   0.000000   0.000000   0.000000   4.049484
     7  Cl   0.000000   0.000000   0.000000   0.000000   0.000000   0.000000
     8  Cl   0.000000   0.000000   0.000000   0.000000   0.000000   0.000000
     9  H    0.000000   0.000000   0.000000   0.000000   0.000000   0.000000
    10  H    0.000000   0.000000   0.000000   0.000000   0.000000   0.000000
    11  H    0.000000   0.000000   0.000000   0.000000   0.000000   0.000000
               7          8          9         10         11
     1  C    0.000000   0.000000   0.000000   0.000000   0.000000
     2  C    0.000000   0.000000   0.000000   0.000000   0.000000
     3  C    0.000000   0.000000   0.000000   0.000000   0.000000
     4  C    0.000000   0.000000   0.000000   0.000000   0.000000
     5  C    0.000000   0.000000   0.000000   0.000000   0.000000
     6  C    0.000000   0.000000   0.000000   0.000000   0.000000
     7  Cl   7.119638   0.000000   0.000000   0.000000   0.000000
     8  Cl   0.000000   7.130502   0.000000   0.000000   0.000000
     9  H    0.000000   0.000000   0.970022   0.000000   0.000000
    10  H    0.000000   0.000000   0.000000   0.929409   0.000000
    11  H    0.000000   0.000000   0.000000   0.000000   0.985716
 Mulliken charges:
               1
     1  C   -0.052034
     2  C   -0.182758
     3  C   -0.109676
     4  C   -0.109820
     5  C   -0.360942
     6  C   -0.049484
     7  Cl  -0.119638
     8  Cl  -0.130502
     9  H    0.029978
    10  H    0.070591
    11  H    0.014284
 Sum of Mulliken charges =  -1.00000
 Mulliken charges with hydrogens summed into heavy atoms:
               1
     1  C   -0.052034
     2  C   -0.112166
     3  C   -0.095392
     4  C   -0.079841
     5  C   -0.360942
     6  C   -0.049484
     7  Cl  -0.119638
     8  Cl  -0.130502
 Charge=             -1.0000 electrons
 Dipole moment (field-independent basis, Debye):
    X=             -2.0690    Y=             -4.5608    Z=              0.0000  Tot=              5.0081
 N-N= 1.929559667337D+02 E-N=-2.722311005056D+02  KE=-9.134021650072D+01
 Symmetry A'   KE=-7.089401532675D+01
 Symmetry A"   KE=-2.044620117397D+01
 Calling FoFJK, ICntrl=      2127 FMM=F ISym2X=1 I1Cent= 0 IOpClX= 0 NMat=1 NMatS=1 NMatT=0.
 ***** Axes restored to original set *****
 -------------------------------------------------------------------
 Center     Atomic                   Forces (Hartrees/Bohr)
 Number     Number              X              Y              Z
 -------------------------------------------------------------------
      1        6          -0.004608918    0.022689536    0.000000000
      2        6           0.014317986    0.070395154    0.000000000
      3        6           0.062509185    0.032261493   -0.000000000
      4        6           0.042353000   -0.016385115    0.000000000
      5        6           0.016354873    0.016354454    0.000000000
      6        6           0.019181118   -0.011902877   -0.000000000
      7       17           0.023331421    0.013263470   -0.000000000
      8       17           0.022717760   -0.006357135   -0.000000000
      9        1          -0.101075381    0.055010625   -0.000000000
     10        1           0.002384917   -0.117379402   -0.000000000
     11        1          -0.097465962   -0.057950201   -0.000000000
 -------------------------------------------------------------------
 Cartesian Forces:  Max     0.117379402 RMS     0.040792220

 GradGradGradGradGradGradGradGradGradGradGradGradGradGradGradGradGradGrad
 Berny optimization.
 FormGI is forming the generalized inverse of G from B-inverse, IUseBI=4.
 Internal  Forces:  Max     0.117400629 RMS     0.033215773
 Search for a local minimum.
 Step number   1 out of a maximum of   57
 All quantities printed in internal units (Hartrees-Bohrs-Radians)
 Mixed Optimization -- RFO/linear search
 Second derivative matrix not updated -- first step.
 ITU=  0
     Eigenvalues ---    0.02011   0.02011   0.02011   0.02011   0.02011
     Eigenvalues ---    0.02011   0.02011   0.02011   0.06524   0.06524
     Eigenvalues ---    0.06524   0.16000   0.16000   0.16000   0.22076
     Eigenvalues ---    0.23330   0.24905   0.25000   0.25000   0.29033
     Eigenvalues ---    0.29033   0.40955   0.41390   0.44656   0.44657
     Eigenvalues ---    0.44657   0.44657
 RFO step:  Lambda=-1.81915548D-01 EMin= 2.01067220D-02
 Linear search not attempted -- first point.
 Maximum step size (   0.300) exceeded in Quadratic search.
    -- Step size scaled by   0.361
 Iteration  1 RMS(Cart)=  0.04987980 RMS(Int)=  0.00007220
 Iteration  2 RMS(Cart)=  0.00012571 RMS(Int)=  0.00001537
 Iteration  3 RMS(Cart)=  0.00000002 RMS(Int)=  0.00001537
 ClnCor:  largest displacement from symmetrization is 1.47D-08 for atom     8.
 Variable       Old X    -DE/DX   Delta X   Delta X   Delta X     New X
                                 (Linear)    (Quad)   (Total)
    R1        2.65676  -0.03735   0.00000  -0.02118  -0.02120   2.63557
    R2        2.65677  -0.00689   0.00000  -0.00323  -0.00325   2.65351
    R3        3.33635  -0.02300   0.00000  -0.01761  -0.01761   3.31874
    R4        2.65677  -0.05168   0.00000  -0.03016  -0.03015   2.62662
    R5        3.33634  -0.11740   0.00000  -0.17169  -0.17169   3.16465
    R6        2.65677  -0.04943   0.00000  -0.02916  -0.02913   2.62763
    R7        3.33633  -0.11338   0.00000  -0.16581  -0.16581   3.17052
    R8        2.65678  -0.04606   0.00000  -0.02679  -0.02677   2.63001
    R9        3.33633  -0.11508   0.00000  -0.16829  -0.16829   3.16804
   R10        2.65675  -0.03026   0.00000  -0.01697  -0.01698   2.63977
   R11        3.33633  -0.02682   0.00000  -0.02053  -0.02053   3.31580
    A1        2.09439  -0.01048   0.00000  -0.00742  -0.00746   2.08693
    A2        2.09439  -0.00348   0.00000  -0.00358  -0.00356   2.09083
    A3        2.09440   0.01395   0.00000   0.01100   0.01102   2.10542
    A4        2.09439   0.00267   0.00000   0.00198   0.00198   2.09637
    A5        2.09440  -0.00274   0.00000  -0.00247  -0.00247   2.09193
    A6        2.09439   0.00006   0.00000   0.00049   0.00049   2.09489
    A7        2.09440   0.00221   0.00000  -0.00008  -0.00004   2.09435
    A8        2.09440  -0.00388   0.00000  -0.00289  -0.00291   2.09149
    A9        2.09439   0.00166   0.00000   0.00297   0.00295   2.09734
   A10        2.09439   0.01737   0.00000   0.01378   0.01382   2.10821
   A11        2.09440  -0.00912   0.00000  -0.00735  -0.00737   2.08703
   A12        2.09440  -0.00825   0.00000  -0.00643  -0.00645   2.08795
   A13        2.09439  -0.01680   0.00000  -0.01402  -0.01402   2.08038
   A14        2.09440   0.00503   0.00000   0.00577   0.00573   2.10013
   A15        2.09439  -0.00098   0.00000  -0.00160  -0.00158   2.09281
   A16        2.09439  -0.00404   0.00000  -0.00416  -0.00414   2.09025
    D1        0.00000  -0.00000   0.00000  -0.00000   0.00000   0.00000
    D2        3.14159  -0.00000   0.00000  -0.00000   0.00000   3.14159
    D3        3.14159   0.00000   0.00000   0.00000   0.00000   3.14159
    D4        0.00000  -0.00000   0.00000  -0.00000   0.00000   0.00000
    D5        0.00000   0.00000   0.00000   0.00000   0.00000   0.00000
    D6        3.14159   0.00000   0.00000   0.00000   0.00000   3.14159
    D7        3.14159  -0.00000   0.00000  -0.00000   0.00000   3.14159
    D8        0.00000  -0.00000   0.00000  -0.00000   0.00000   0.00000
    D9        0.00000  -0.00000   0.00000  -0.00000   0.00000   0.00000
   D10        3.14159  -0.00000   0.00000  -0.00000   0.00000   3.14159
   D11        3.14159   0.00000   0.00000   0.00000   0.00000   3.14159
   D12        0.00000   0.00000   0.00000   0.00000   0.00000   0.00000
   D13        0.00000   0.00000   0.00000   0.00000   0.00000   0.00000
   D14        3.14159  -0.00000   0.00000  -0.00000   0.00000   3.14159
   D15        3.14159   0.00000   0.00000   0.00000   0.00000   3.14159
   D16        0.00000  -0.00000   0.00000  -0.00000   0.00000   0.00000
   D17        0.00000  -0.00000   0.00000  -0.00000   0.00000   0.00000
   D18        3.14159   0.00000   0.00000   0.00000   0.00000   3.14159
   D19        0.00000  -0.00000   0.00000  -0.00000   0.00000   0.00000
   D20        3.14159  -0.00000   0.00000  -0.00000   0.00000   3.14159
         Item               Value     Threshold  Converged?
 Maximum Force            0.117401     0.000450     NO 
 RMS     Force            0.033216     0.000300     NO 
 Maximum Displacement     0.177783     0.001800     NO 
 RMS     Displacement     0.049868     0.001200     NO 
 Predicted change in Energy=-6.205617D-02
 GradGradGradGradGradGradGradGradGradGradGradGradGradGradGradGradGradGrad

                          Input orientation:                          
 ---------------------------------------------------------------------
 Center     Atomic      Atomic             Coordinates (Angstroms)
 Number     Number       Type             X           Y           Z
 ---------------------------------------------------------------------
      1          6           0       -3.189270    0.206236    0.000000
      2          6           0       -1.998451    0.932243    0.000000
      3          6           0       -0.777145    0.268646    0.000000
      4          6           0       -0.741227   -1.121374    0.000000
      5          6           0       -1.917978   -1.864472    0.000000
      6          6           0       -3.145238   -1.197252    0.000000
      7         17           0       -4.638014   -2.119428    0.000000
      8         17           0       -4.727729    1.053225    0.000000
      9          1           0        0.737653   -1.910943    0.000000
     10          1           0       -2.042600    2.606321    0.000000
     11          1           0        0.651100    1.148998    0.000000
 ---------------------------------------------------------------------
                    Distance matrix (angstroms):
                    1          2          3          4          5
     1  C    0.000000
     2  C    1.394681   0.000000
     3  C    2.412932   1.389946   0.000000
     4  C    2.784863   2.407894   1.390484   0.000000
     5  C    2.429818   2.797873   2.419027   1.391739   0.000000
     6  C    1.404178   2.418650   2.785088   2.405209   1.396908
     7  Cl   2.739995   4.034846   4.539736   4.022570   2.731959
     8  Cl   1.756203   2.731958   4.027739   4.541044   4.050637
     9  H    4.461297   3.945881   2.654284   1.676456   2.656038
    10  H    2.659937   1.674661   2.658214   3.948327   4.472530
    11  H    3.954396   2.658403   1.677768   2.663299   3.959945
                    6          7          8          9         10
     6  C    0.000000
     7  Cl   1.754648   0.000000
     8  Cl   2.751168   3.173921   0.000000
     9  H    3.947936   5.379709   6.217451   0.000000
    10  H    3.960174   5.391556   3.101939   5.304290   0.000000
    11  H    4.462855   6.217503   5.379682   3.061165   3.062648
                   11
    11  H    0.000000
 Stoichiometry    C6H3Cl2(1-)
 Framework group  CS[SG(C6H3Cl2)]
 Deg. of freedom    19
 Full point group                 CS      NOp   2
 Largest Abelian subgroup         CS      NOp   2
 Largest concise Abelian subgroup C1      NOp   1
                         Standard orientation:                         
 ---------------------------------------------------------------------
 Center     Atomic      Atomic             Coordinates (Angstroms)
 Number     Number       Type             X           Y           Z
 ---------------------------------------------------------------------
      1          6           0        0.000000   -0.658200    0.000000
      2          6           0       -1.224615   -1.325623    0.000000
      3          6           0       -2.412314   -0.603598    0.000000
      4          6           0       -2.380803    0.786528    0.000000
      5          6           0       -1.169411    1.471705    0.000000
      6          6           0        0.024060    0.745772    0.000000
      7         17           0        1.559788    1.594494    0.000000
      8         17           0        1.495589   -1.578777    0.000000
      9          1           0       -3.819666    1.646864    0.000000
     10          1           0       -1.261677   -2.999874    0.000000
     11          1           0       -3.881560   -1.413675    0.000000
 ---------------------------------------------------------------------
 Rotational constants (GHZ):           1.9395628           1.3804555           0.8064655
 Standard basis: VSTO-6G (5D, 7F)
 There are    27 symmetry adapted cartesian basis functions of A'  symmetry.
 There are     8 symmetry adapted cartesian basis functions of A"  symmetry.
 There are    27 symmetry adapted basis functions of A'  symmetry.
 There are     8 symmetry adapted basis functions of A"  symmetry.
    35 basis functions,   210 primitive gaussians,    35 cartesian basis functions
    21 alpha electrons       21 beta electrons
       nuclear repulsion energy       194.0678384884 Hartrees.
 Integral buffers will be    131072 words long.
 Regular integral format.
 Two-electron integral symmetry is turned off.
 Do NDO integrals.
 One-electron integrals computed using PRISM.
 NBasis=    35 RedAO= T EigKep=  1.00D+00  NBF=    27     8
 NBsUse=    35 1.00D-06 EigRej= -1.00D+00 NBFU=    27     8
 Initial guess from the checkpoint file:  "geometry_chks/12_ClBzAnionIntermediate.chk"
 B after Tr=    -0.000000   -0.000000    0.000000
         Rot=    0.871310   -0.000000   -0.000000   -0.490733 Ang= -58.78 deg.
 Initial guess orbital symmetries:
       Occupied  (A') (A') (A') (A') (A') (A') (A') (A') (A') (A')
                 (A") (A") (A') (A') (A") (A') (A') (A') (A") (A")
                 (A')
       Virtual   (A') (A') (A") (A') (A") (A') (A') (A") (A') (A')
                 (A') (A') (A') (A')
 Keep J ints in memory in canonical form, NReq=862793.
 Overlap will be assumed to be unity.
 Requested convergence on RMS density matrix=1.00D-08 within**** cycles.
 Requested convergence on MAX density matrix=1.00D-06.
 Requested convergence on             energy=1.00D-06.
 No special actions if energy rises.
 Fock symm off for IB=2 I1=    1 I=   28 J=   24 Cut=1.00D-07 Err=9.52D-04
 Fock matrix is not symmetric: symmetry in diagonalization turned off.
 SCF Done:  E(RAM1) =  0.349244068904     A.U. after   14 cycles
            NFock= 13  Conv=0.28D-08     -V/T= 1.0038
 Calling FoFJK, ICntrl=      2127 FMM=F ISym2X=1 I1Cent= 0 IOpClX= 0 NMat=1 NMatS=1 NMatT=0.
 ***** Axes restored to original set *****
 -------------------------------------------------------------------
 Center     Atomic                   Forces (Hartrees/Bohr)
 Number     Number              X              Y              Z
 -------------------------------------------------------------------
      1        6          -0.012713641    0.017338496    0.000000000
      2        6           0.008685219    0.095468775    0.000000000
      3        6           0.084320737    0.045587630    0.000000000
      4        6           0.068682276   -0.031998163   -0.000000000
      5        6           0.009923224    0.005279266   -0.000000000
      6        6           0.009428362   -0.010914681   -0.000000000
      7       17           0.017376086    0.010250249   -0.000000000
      8       17           0.018101229   -0.005201447   -0.000000000
      9        1          -0.104888084    0.056323149   -0.000000000
     10        1           0.002382830   -0.121540485   -0.000000000
     11        1          -0.101298238   -0.060592787   -0.000000000
 -------------------------------------------------------------------
 Cartesian Forces:  Max     0.121540485 RMS     0.045581030

 GradGradGradGradGradGradGradGradGradGradGradGradGradGradGradGradGradGrad
 Berny optimization.
 Using GEDIIS/GDIIS optimizer.
 FormGI is forming the generalized inverse of G from B-inverse, IUseBI=4.
 Internal  Forces:  Max     0.121561061 RMS     0.031671632
 Search for a local minimum.
 Step number   2 out of a maximum of   57
 All quantities printed in internal units (Hartrees-Bohrs-Radians)
 Mixed Optimization -- RFO/linear search
 Update second derivatives using D2CorX and points    1    2
 DE= -6.55D-02 DEPred=-6.21D-02 R= 1.06D+00
 TightC=F SS=  1.41D+00  RLast= 3.00D-01 DXNew= 5.0454D-01 9.0000D-01
 Trust test= 1.06D+00 RLast= 3.00D-01 DXMaxT set to 5.05D-01
 ITU=  1  0
 Use linear search instead of GDIIS.
 Linear search step of   0.600 exceeds DXMaxT=   0.505 but not scaled.
 Quartic linear search produced a step of  2.00000.
 Iteration  1 RMS(Cart)=  0.06873033 RMS(Int)=  0.03470273
 Iteration  2 RMS(Cart)=  0.03247854 RMS(Int)=  0.00009487
 Iteration  3 RMS(Cart)=  0.00001471 RMS(Int)=  0.00009438
 Iteration  4 RMS(Cart)=  0.00000000 RMS(Int)=  0.00009438
 ClnCor:  largest displacement from symmetrization is 9.93D-16 for atom    10.
 Variable       Old X    -DE/DX   Delta X   Delta X   Delta X     New X
                                 (Linear)    (Quad)   (Total)
    R1        2.63557  -0.01910  -0.04239   0.00000  -0.04248   2.59309
    R2        2.65351  -0.00047  -0.00651   0.00000  -0.00667   2.64684
    R3        3.31874  -0.01837  -0.03522   0.00000  -0.03522   3.28353
    R4        2.62662  -0.02877  -0.06030   0.00000  -0.06022   2.56639
    R5        3.16465  -0.12156  -0.34338   0.00000  -0.34338   2.82127
    R6        2.62763  -0.02840  -0.05827   0.00000  -0.05811   2.56953
    R7        3.17052  -0.11803  -0.33162   0.00000  -0.33162   2.83890
    R8        2.63001  -0.02540  -0.05354   0.00000  -0.05345   2.57655
    R9        3.16804  -0.11905  -0.33658   0.00000  -0.33658   2.83146
   R10        2.63977  -0.01621  -0.03395   0.00000  -0.03403   2.60574
   R11        3.31580  -0.02017  -0.04106   0.00000  -0.04106   3.27475
    A1        2.08693  -0.00772  -0.01492   0.00000  -0.01517   2.07176
    A2        2.09083  -0.00307  -0.00712   0.00000  -0.00700   2.08383
    A3        2.10542   0.01078   0.02205   0.00000   0.02217   2.12759
    A4        2.09637   0.00210   0.00395   0.00000   0.00394   2.10031
    A5        2.09193  -0.00235  -0.00493   0.00000  -0.00493   2.08700
    A6        2.09489   0.00025   0.00098   0.00000   0.00099   2.09587
    A7        2.09435   0.00068  -0.00008   0.00000   0.00015   2.09450
    A8        2.09149  -0.00283  -0.00582   0.00000  -0.00593   2.08556
    A9        2.09734   0.00215   0.00590   0.00000   0.00578   2.10313
   A10        2.10821   0.01251   0.02764   0.00000   0.02788   2.13609
   A11        2.08703  -0.00671  -0.01475   0.00000  -0.01487   2.07216
   A12        2.08795  -0.00580  -0.01289   0.00000  -0.01301   2.07494
   A13        2.08038  -0.01186  -0.02804   0.00000  -0.02802   2.05236
   A14        2.10013   0.00430   0.01145   0.00000   0.01122   2.11135
   A15        2.09281  -0.00147  -0.00317   0.00000  -0.00305   2.08976
   A16        2.09025  -0.00283  -0.00828   0.00000  -0.00817   2.08208
    D1        0.00000  -0.00000   0.00000   0.00000   0.00000   0.00000
    D2        3.14159  -0.00000   0.00000   0.00000   0.00000   3.14159
    D3        3.14159   0.00000   0.00000   0.00000   0.00000   3.14159
    D4        0.00000  -0.00000   0.00000   0.00000   0.00000   0.00000
    D5        0.00000   0.00000   0.00000   0.00000   0.00000   0.00000
    D6        3.14159   0.00000   0.00000   0.00000   0.00000   3.14159
    D7        3.14159  -0.00000   0.00000   0.00000   0.00000   3.14159
    D8        0.00000  -0.00000   0.00000   0.00000   0.00000   0.00000
    D9        0.00000   0.00000   0.00000   0.00000   0.00000   0.00000
   D10        3.14159  -0.00000   0.00000   0.00000   0.00000   3.14159
   D11        3.14159   0.00000   0.00000   0.00000   0.00000   3.14159
   D12        0.00000   0.00000   0.00000   0.00000   0.00000   0.00000
   D13        0.00000   0.00000   0.00000   0.00000   0.00000   0.00000
   D14        3.14159  -0.00000   0.00000   0.00000   0.00000   3.14159
   D15        3.14159   0.00000   0.00000   0.00000   0.00000   3.14159
   D16        0.00000   0.00000   0.00000   0.00000   0.00000   0.00000
   D17        0.00000   0.00000   0.00000   0.00000   0.00000   0.00000
   D18        3.14159   0.00000   0.00000   0.00000   0.00000   3.14159
   D19        0.00000  -0.00000   0.00000   0.00000   0.00000   0.00000
   D20        3.14159  -0.00000   0.00000   0.00000   0.00000   3.14159
         Item               Value     Threshold  Converged?
 Maximum Force            0.121561     0.000450     NO 
 RMS     Force            0.031672     0.000300     NO 
 Maximum Displacement     0.355089     0.001800     NO 
 RMS     Displacement     0.099660     0.001200     NO 
 Predicted change in Energy=-1.282834D-01
 GradGradGradGradGradGradGradGradGradGradGradGradGradGradGradGradGradGrad

                          Input orientation:                          
 ---------------------------------------------------------------------
 Center     Atomic      Atomic             Coordinates (Angstroms)
 Number     Number       Type             X           Y           Z
 ---------------------------------------------------------------------
      1          6           0       -3.149226    0.219985    0.000000
      2          6           0       -1.972526    0.925901    0.000000
      3          6           0       -0.781305    0.273699    0.000000
      4          6           0       -0.750335   -1.085684    0.000000
      5          6           0       -1.884746   -1.842066    0.000000
      6          6           0       -3.094073   -1.179578    0.000000
      7         17           0       -4.563820   -2.097652    0.000000
      8         17           0       -4.659355    1.079433    0.000000
      9          1           0        0.579666   -1.775709    0.000000
     10          1           0       -2.008578    2.418416    0.000000
     11          1           0        0.495398    1.065455    0.000000
 ---------------------------------------------------------------------
                    Distance matrix (angstroms):
                    1          2          3          4          5
     1  C    0.000000
     2  C    1.372203   0.000000
     3  C    2.368529   1.358077   0.000000
     4  C    2.731199   2.353768   1.359736   0.000000
     5  C    2.418876   2.769359   2.386220   1.363453   0.000000
     6  C    1.400649   2.385563   2.731466   2.345618   1.378899
     7  Cl   2.715238   3.982045   4.464384   3.945471   2.691237
     8  Cl   1.737568   2.691212   3.960868   4.468575   4.029096
     9  H    4.229353   3.716501   2.460146   1.498345   2.465305
    10  H    2.476727   1.492951   2.471034   3.723156   4.262282
    11  H    3.741403   2.471866   1.502281   2.485809   3.757495
                    6          7          8          9         10
     6  C    0.000000
     7  Cl   1.732921   0.000000
     8  Cl   2.748315   3.178521   0.000000
     9  H    3.721792   5.153552   5.966505   0.000000
    10  H    3.758172   5.188847   2.969763   4.928458   0.000000
    11  H    4.233730   5.966651   5.154771   2.842414   2.846120
                   11
    11  H    0.000000
 Stoichiometry    C6H3Cl2(1-)
 Framework group  CS[SG(C6H3Cl2)]
 Deg. of freedom    19
 Full point group                 CS      NOp   2
 Largest Abelian subgroup         CS      NOp   2
 Largest concise Abelian subgroup C1      NOp   1
                         Standard orientation:                         
 ---------------------------------------------------------------------
 Center     Atomic      Atomic             Coordinates (Angstroms)
 Number     Number       Type             X           Y           Z
 ---------------------------------------------------------------------
      1          6           0        0.000000   -0.655421    0.000000
      2          6           0       -1.210260   -1.302115    0.000000
      3          6           0       -2.367671   -0.591642    0.000000
      4          6           0       -2.331189    0.767604    0.000000
      5          6           0       -1.160664    1.466799    0.000000
      6          6           0        0.014321    0.745154    0.000000
      7         17           0        1.527788    1.589212    0.000000
      8         17           0        1.465650   -1.588702    0.000000
      9          1           0       -3.625335    1.522737    0.000000
     10          1           0       -1.248267   -2.794582    0.000000
     11          1           0       -3.682067   -1.319110    0.000000
 ---------------------------------------------------------------------
 Rotational constants (GHZ):           1.9607606           1.4416602           0.8308057
 Standard basis: VSTO-6G (5D, 7F)
 There are    27 symmetry adapted cartesian basis functions of A'  symmetry.
 There are     8 symmetry adapted cartesian basis functions of A"  symmetry.
 There are    27 symmetry adapted basis functions of A'  symmetry.
 There are     8 symmetry adapted basis functions of A"  symmetry.
    35 basis functions,   210 primitive gaussians,    35 cartesian basis functions
    21 alpha electrons       21 beta electrons
       nuclear repulsion energy       196.4081322770 Hartrees.
 Integral buffers will be    131072 words long.
 Regular integral format.
 Two-electron integral symmetry is turned off.
 Do NDO integrals.
 One-electron integrals computed using PRISM.
 NBasis=    35 RedAO= T EigKep=  1.00D+00  NBF=    27     8
 NBsUse=    35 1.00D-06 EigRej= -1.00D+00 NBFU=    27     8
 Initial guess from the checkpoint file:  "geometry_chks/12_ClBzAnionIntermediate.chk"
 B after Tr=     0.000000   -0.000000    0.000000
         Rot=    1.000000    0.000000    0.000000    0.000785 Ang=   0.09 deg.
 Initial guess orbital symmetries:
       Occupied  (A') (A') (A') (A') (A') (A') (A') (A') (A') (A')
                 (A") (A') (A") (A') (A") (A') (A') (A') (A") (A")
                 (A')
       Virtual   (A') (A") (A') (A') (A") (A') (A') (A") (A') (A')
                 (A') (A') (A') (A')
 Keep J ints in memory in canonical form, NReq=862793.
 Overlap will be assumed to be unity.
 Requested convergence on RMS density matrix=1.00D-08 within**** cycles.
 Requested convergence on MAX density matrix=1.00D-06.
 Requested convergence on             energy=1.00D-06.
 No special actions if energy rises.
 Fock symm off for IB=2 I1=    1 I=   28 J=    6 Cut=1.00D-07 Err=2.95D-03
 Fock matrix is not symmetric: symmetry in diagonalization turned off.
 SCF Done:  E(RAM1) =  0.225920843245     A.U. after   14 cycles
            NFock= 13  Conv=0.45D-08     -V/T= 1.0025
 Calling FoFJK, ICntrl=      2127 FMM=F ISym2X=1 I1Cent= 0 IOpClX= 0 NMat=1 NMatS=1 NMatT=0.
 ***** Axes restored to original set *****
 -------------------------------------------------------------------
 Center     Atomic                   Forces (Hartrees/Bohr)
 Number     Number              X              Y              Z
 -------------------------------------------------------------------
      1        6          -0.032058382    0.004524975    0.000000000
      2        6          -0.005726204    0.140833583    0.000000000
      3        6           0.125063397    0.070502119    0.000000000
      4        6           0.117412189   -0.062967947    0.000000000
      5        6          -0.005342889   -0.020162518   -0.000000000
      6        6          -0.012341602   -0.009008960   -0.000000000
      7       17           0.004546419    0.003647255    0.000000000
      8       17           0.008063448   -0.002541147   -0.000000000
      9        1          -0.102362853    0.053386124   -0.000000000
     10        1           0.002197819   -0.117910756   -0.000000000
     11        1          -0.099451340   -0.060302727   -0.000000000
 -------------------------------------------------------------------
 Cartesian Forces:  Max     0.140833583 RMS     0.055271804

 GradGradGradGradGradGradGradGradGradGradGradGradGradGradGradGradGradGrad
 Berny optimization.
 Using GEDIIS/GDIIS optimizer.
 FormGI is forming the generalized inverse of G from B-inverse, IUseBI=4.
 Internal  Forces:  Max     0.117929445 RMS     0.030392926
 Search for a local minimum.
 Step number   3 out of a maximum of   57
 All quantities printed in internal units (Hartrees-Bohrs-Radians)
 Mixed Optimization -- RFO/linear search
 Update second derivatives using D2CorX and points    2    3
 ITU=  0  1  0
 Use linear search instead of GDIIS.
 Linear search step of   1.087 exceeds DXMaxT=   0.505 scaled by   0.928
 Quartic linear search produced a step of  1.68180.
 Iteration  1 RMS(Cart)=  0.08619850 RMS(Int)=  0.09281772
 Iteration  2 RMS(Cart)=  0.04714675 RMS(Int)=  0.04231486
 Iteration  3 RMS(Cart)=  0.03959986 RMS(Int)=  0.00029912
 Iteration  4 RMS(Cart)=  0.00002668 RMS(Int)=  0.00029817
 Iteration  5 RMS(Cart)=  0.00000000 RMS(Int)=  0.00029817
 ClnCor:  largest displacement from symmetrization is 4.44D-16 for atom     2.
 Variable       Old X    -DE/DX   Delta X   Delta X   Delta X     New X
                                 (Linear)    (Quad)   (Total)
    R1        2.59309   0.02276  -0.07144   0.00000  -0.07169   2.52140
    R2        2.64684   0.01394  -0.01122   0.00000  -0.01174   2.63510
    R3        3.28353  -0.00826  -0.05922   0.00000  -0.05922   3.22430
    R4        2.56639   0.02552  -0.10128   0.00000  -0.10102   2.46537
    R5        2.82127  -0.11793  -0.57750   0.00000  -0.57750   2.24377
    R6        2.56953   0.02127  -0.09772   0.00000  -0.09720   2.47233
    R7        2.83890  -0.11630  -0.55772   0.00000  -0.55772   2.28118
    R8        2.57655   0.02122  -0.08990   0.00000  -0.08960   2.48695
    R9        2.83146  -0.11545  -0.56606   0.00000  -0.56606   2.26540
   R10        2.60574   0.01485  -0.05723   0.00000  -0.05749   2.54825
   R11        3.27475  -0.00579  -0.06905   0.00000  -0.06905   3.20569
    A1        2.07176  -0.00087  -0.02551   0.00000  -0.02628   2.04548
    A2        2.08383  -0.00249  -0.01177   0.00000  -0.01139   2.07244
    A3        2.12759   0.00336   0.03728   0.00000   0.03767   2.16526
    A4        2.10031   0.00031   0.00663   0.00000   0.00662   2.10694
    A5        2.08700  -0.00107  -0.00829   0.00000  -0.00829   2.07871
    A6        2.09587   0.00076   0.00166   0.00000   0.00167   2.09754
    A7        2.09450  -0.00358   0.00025   0.00000   0.00099   2.09549
    A8        2.08556   0.00014  -0.00998   0.00000  -0.01034   2.07521
    A9        2.10313   0.00345   0.00973   0.00000   0.00936   2.11248
   A10        2.13609   0.00039   0.04688   0.00000   0.04762   2.18371
   A11        2.07216  -0.00055  -0.02500   0.00000  -0.02537   2.04679
   A12        2.07494   0.00016  -0.02188   0.00000  -0.02225   2.05269
   A13        2.05236   0.00028  -0.04712   0.00000  -0.04708   2.00528
   A14        2.11135   0.00346   0.01887   0.00000   0.01813   2.12948
   A15        2.08976  -0.00285  -0.00513   0.00000  -0.00476   2.08499
   A16        2.08208  -0.00061  -0.01374   0.00000  -0.01337   2.06871
    D1        0.00000  -0.00000   0.00000   0.00000   0.00000   0.00000
    D2        3.14159  -0.00000   0.00000   0.00000   0.00000   3.14159
    D3        3.14159   0.00000   0.00000   0.00000   0.00000   3.14159
    D4        0.00000  -0.00000   0.00000   0.00000   0.00000   0.00000
    D5        0.00000   0.00000   0.00000   0.00000   0.00000   0.00000
    D6        3.14159   0.00000   0.00000   0.00000   0.00000   3.14159
    D7        3.14159  -0.00000   0.00000   0.00000   0.00000   3.14159
    D8        0.00000  -0.00000   0.00000   0.00000   0.00000   0.00000
    D9        0.00000   0.00000   0.00000   0.00000   0.00000   0.00000
   D10        3.14159  -0.00000   0.00000   0.00000   0.00000   3.14159
   D11        3.14159   0.00000   0.00000   0.00000   0.00000   3.14159
   D12        0.00000   0.00000   0.00000   0.00000   0.00000   0.00000
   D13        0.00000   0.00000   0.00000   0.00000   0.00000   0.00000
   D14        3.14159  -0.00000   0.00000   0.00000   0.00000   3.14159
   D15        3.14159   0.00000   0.00000   0.00000   0.00000   3.14159
   D16        0.00000   0.00000   0.00000   0.00000   0.00000   0.00000
   D17        0.00000  -0.00000   0.00000   0.00000   0.00000   0.00000
   D18        3.14159   0.00000   0.00000   0.00000   0.00000   3.14159
   D19        0.00000  -0.00000   0.00000   0.00000   0.00000   0.00000
   D20        3.14159  -0.00000   0.00000   0.00000   0.00000   3.14159
         Item               Value     Threshold  Converged?
 Maximum Force            0.117929     0.000450     NO 
 RMS     Force            0.030393     0.000300     NO 
 Maximum Displacement     0.595677     0.001800     NO 
 RMS     Displacement     0.167355     0.001200     NO 
 Predicted change in Energy=-1.666800D-01
 GradGradGradGradGradGradGradGradGradGradGradGradGradGradGradGradGradGrad

                          Input orientation:                          
 ---------------------------------------------------------------------
 Center     Atomic      Atomic             Coordinates (Angstroms)
 Number     Number       Type             X           Y           Z
 ---------------------------------------------------------------------
      1          6           0       -3.081821    0.243535    0.000000
      2          6           0       -1.929463    0.916093    0.000000
      3          6           0       -0.788551    0.283360    0.000000
      4          6           0       -0.764564   -1.024720    0.000000
      5          6           0       -1.826992   -1.801381    0.000000
      6          6           0       -3.007097   -1.148898    0.000000
      7         17           0       -4.437284   -2.061188    0.000000
      8         17           0       -4.544522    1.122009    0.000000
      9          1           0        0.310866   -1.554411    0.000000
     10          1           0       -1.953667    2.103198    0.000000
     11          1           0        0.234196    0.924604    0.000000
 ---------------------------------------------------------------------
                    Distance matrix (angstroms):
                    1          2          3          4          5
     1  C    0.000000
     2  C    1.334265   0.000000
     3  C    2.293616   1.304619   0.000000
     4  C    2.641619   2.263569   1.308300   0.000000
     5  C    2.399225   2.719405   2.329057   1.316038   0.000000
     6  C    1.394437   2.329267   2.640703   2.245969   1.348474
     7  Cl   2.673767   3.892733   4.337068   3.816168   2.623190
     8  Cl   1.706227   2.623154   3.848461   4.347014   3.991388
     9  H    3.839653   3.335035   2.141522   1.198800   2.152076
    10  H    2.175104   1.187351   2.160857   3.346317   3.906633
    11  H    3.385236   2.163675   1.207148   2.190294   3.417527
                    6          7          8          9         10
     6  C    0.000000
     7  Cl   1.696381   0.000000
     8  Cl   2.742388   3.185003   0.000000
     9  H    3.342652   4.775118   5.544187   0.000000
    10  H    3.418456   4.848759   2.770426   4.301884   0.000000
    11  H    3.847778   5.544157   4.782793   2.480201   2.485121
                   11
    11  H    0.000000
 Stoichiometry    C6H3Cl2(1-)
 Framework group  CS[SG(C6H3Cl2)]
 Deg. of freedom    19
 Full point group                 CS      NOp   2
 Largest Abelian subgroup         CS      NOp   2
 Largest concise Abelian subgroup C1      NOp   1
                         Standard orientation:                         
 ---------------------------------------------------------------------
 Center     Atomic      Atomic             Coordinates (Angstroms)
 Number     Number       Type             X           Y           Z
 ---------------------------------------------------------------------
      1          6           0        0.000000   -0.651064    0.000000
      2          6           0       -1.185917   -1.262508    0.000000
      3          6           0       -2.292219   -0.571041    0.000000
      4          6           0       -2.247844    0.736506    0.000000
      5          6           0       -1.146296    1.456609    0.000000
      6          6           0       -0.001885    0.743371    0.000000
      7         17           0        1.474004    1.579708    0.000000
      8         17           0        1.414815   -1.604746    0.000000
      9          1           0       -3.294136    1.321651    0.000000
     10          1           0       -1.223757   -2.449256    0.000000
     11          1           0       -3.347066   -1.157985    0.000000
 ---------------------------------------------------------------------
 Rotational constants (GHZ):           1.9965997           1.5535267           0.8737072
 Standard basis: VSTO-6G (5D, 7F)
 There are    27 symmetry adapted cartesian basis functions of A'  symmetry.
 There are     8 symmetry adapted cartesian basis functions of A"  symmetry.
 There are    27 symmetry adapted basis functions of A'  symmetry.
 There are     8 symmetry adapted basis functions of A"  symmetry.
    35 basis functions,   210 primitive gaussians,    35 cartesian basis functions
    21 alpha electrons       21 beta electrons
       nuclear repulsion energy       200.7640849340 Hartrees.
 Integral buffers will be    131072 words long.
 Regular integral format.
 Two-electron integral symmetry is turned off.
 Do NDO integrals.
 One-electron integrals computed using PRISM.
 NBasis=    35 RedAO= T EigKep=  1.00D+00  NBF=    27     8
 NBsUse=    35 1.00D-06 EigRej= -1.00D+00 NBFU=    27     8
 Initial guess from the checkpoint file:  "geometry_chks/12_ClBzAnionIntermediate.chk"
 B after Tr=     0.000000    0.000000    0.000000
         Rot=    0.999999    0.000000    0.000000    0.001466 Ang=   0.17 deg.
 Initial guess orbital symmetries:
       Occupied  (A') (A') (A') (A') (A') (A') (A') (A') (A') (A')
                 (A") (A') (A") (A') (A") (A') (A') (A') (A") (A")
                 (A')
       Virtual   (A") (A') (A") (A') (A') (A') (A') (A") (A') (A')
                 (A') (A') (A') (A')
 Keep J ints in memory in canonical form, NReq=862793.
 Overlap will be assumed to be unity.
 Requested convergence on RMS density matrix=1.00D-08 within**** cycles.
 Requested convergence on MAX density matrix=1.00D-06.
 Requested convergence on             energy=1.00D-06.
 No special actions if energy rises.
 Fock symm off for IB=2 I1=    1 I=   28 J=   24 Cut=1.00D-07 Err=2.41D-03
 Fock matrix is not symmetric: symmetry in diagonalization turned off.
 SCF Done:  E(RAM1) =  0.103095839250     A.U. after   14 cycles
            NFock= 13  Conv=0.58D-08     -V/T= 1.0011
 Calling FoFJK, ICntrl=      2127 FMM=F ISym2X=1 I1Cent= 0 IOpClX= 0 NMat=1 NMatS=1 NMatT=0.
 ***** Axes restored to original set *****
 -------------------------------------------------------------------
 Center     Atomic                   Forces (Hartrees/Bohr)
 Number     Number              X              Y              Z
 -------------------------------------------------------------------
      1        6          -0.076408498   -0.024680089    0.000000000
      2        6          -0.041424469    0.174027984    0.000000000
      3        6           0.165033794    0.093886558   -0.000000000
      4        6           0.161180823   -0.104051550    0.000000000
      5        6          -0.039969595   -0.075588264    0.000000000
      6        6          -0.055531030   -0.006022955   -0.000000000
      7       17          -0.019824052   -0.009308763   -0.000000000
      8       17          -0.011484607    0.003087116   -0.000000000
      9        1          -0.039592126    0.019027272   -0.000000000
     10        1           0.000904904   -0.042915143   -0.000000000
     11        1          -0.042885144   -0.027462167   -0.000000000
 -------------------------------------------------------------------
 Cartesian Forces:  Max     0.174027984 RMS     0.062455686

 GradGradGradGradGradGradGradGradGradGradGradGradGradGradGradGradGradGrad
 Berny optimization.
 Using GEDIIS/GDIIS optimizer.
 FormGI is forming the generalized inverse of G from B-inverse, IUseBI=4.
 Internal  Forces:  Max     0.147393244 RMS     0.042092021
 Search for a local minimum.
 Step number   4 out of a maximum of   57
 All quantities printed in internal units (Hartrees-Bohrs-Radians)
 Mixed Optimization -- RFO/linear search
 Update second derivatives using D2CorX and points    3    4
 ITU=  0  0  1  0
 Use linear search instead of GDIIS.
     Eigenvalues ---    0.02011   0.02011   0.02011   0.02011   0.02011
     Eigenvalues ---    0.02011   0.02011   0.02011   0.06502   0.06524
     Eigenvalues ---    0.08773   0.15998   0.16000   0.16001   0.22087
     Eigenvalues ---    0.23312   0.24952   0.24978   0.25021   0.28773
     Eigenvalues ---    0.29040   0.40822   0.41364   0.44628   0.44656
     Eigenvalues ---    0.44657   0.67412
 RFO step:  Lambda=-1.48837937D-01 EMin= 2.01067225D-02
 Quartic linear search produced a step of  0.06932.
 Maximum step size (   0.505) exceeded in Quadratic search.
    -- Step size scaled by   0.863
 Iteration  1 RMS(Cart)=  0.05852246 RMS(Int)=  0.01131799
 Iteration  2 RMS(Cart)=  0.01074011 RMS(Int)=  0.00045315
 Iteration  3 RMS(Cart)=  0.00002204 RMS(Int)=  0.00045284
 Iteration  4 RMS(Cart)=  0.00000000 RMS(Int)=  0.00045284
 ClnCor:  largest displacement from symmetrization is 8.96D-09 for atom     7.
 Variable       Old X    -DE/DX   Delta X   Delta X   Delta X     New X
                                 (Linear)    (Quad)   (Total)
    R1        2.52140   0.11222  -0.00497   0.14272   0.13750   2.65889
    R2        2.63510   0.04370  -0.00081   0.05221   0.05065   2.68576
    R3        3.22430   0.01143  -0.00411   0.02005   0.01595   3.24025
    R4        2.46537   0.14739  -0.00700   0.19027   0.18375   2.64913
    R5        2.24377  -0.04292  -0.04003  -0.19419  -0.23422   2.00954
    R6        2.47233   0.13214  -0.00674   0.17148   0.16549   2.63782
    R7        2.28118  -0.05092  -0.03866  -0.21987  -0.25853   2.02265
    R8        2.48695   0.11776  -0.00621   0.15159   0.14565   2.63261
    R9        2.26540  -0.04392  -0.03924  -0.19616  -0.23540   2.03000
   R10        2.54825   0.07650  -0.00399   0.09525   0.09077   2.63902
   R11        3.20569   0.02172  -0.00479   0.03802   0.03323   3.23892
    A1        2.04548   0.01571  -0.00182   0.02264   0.01981   2.06529
    A2        2.07244  -0.00259  -0.00079  -0.00133  -0.00161   2.07083
    A3        2.16526  -0.01312   0.00261  -0.02131  -0.01820   2.14706
    A4        2.10694  -0.00529   0.00046  -0.00543  -0.00472   2.10222
    A5        2.07871   0.00268  -0.00057   0.00268   0.00198   2.08069
    A6        2.09754   0.00261   0.00012   0.00275   0.00274   2.10028
    A7        2.09549  -0.01604   0.00007  -0.01888  -0.01754   2.07795
    A8        2.07521   0.00858  -0.00072   0.01055   0.00920   2.08441
    A9        2.11248   0.00747   0.00065   0.00833   0.00834   2.12082
   A10        2.18371  -0.02790   0.00330  -0.04699  -0.04267   2.14104
   A11        2.04679   0.01443  -0.00176   0.02449   0.02223   2.06902
   A12        2.05269   0.01347  -0.00154   0.02249   0.02044   2.07313
   A13        2.00528   0.02807  -0.00326   0.04909   0.04551   2.05079
   A14        2.12948   0.00545   0.00126  -0.00044  -0.00040   2.12908
   A15        2.08499  -0.00723  -0.00033  -0.00842  -0.00814   2.07685
   A16        2.06871   0.00178  -0.00093   0.00886   0.00854   2.07725
    D1        0.00000  -0.00000   0.00000  -0.00000   0.00000   0.00000
    D2        3.14159  -0.00000   0.00000  -0.00000   0.00000   3.14159
    D3        3.14159   0.00000   0.00000   0.00000   0.00000   3.14159
    D4        0.00000  -0.00000   0.00000  -0.00000   0.00000   0.00000
    D5        0.00000   0.00000   0.00000   0.00000   0.00000   0.00000
    D6        3.14159   0.00000   0.00000   0.00000   0.00000   3.14159
    D7        3.14159  -0.00000   0.00000  -0.00000   0.00000   3.14159
    D8        0.00000   0.00000   0.00000   0.00000   0.00000   0.00000
    D9        0.00000  -0.00000   0.00000  -0.00000   0.00000   0.00000
   D10        3.14159  -0.00000   0.00000  -0.00000   0.00000   3.14159
   D11        3.14159   0.00000   0.00000   0.00000   0.00000   3.14159
   D12        0.00000   0.00000   0.00000   0.00000   0.00000   0.00000
   D13        0.00000   0.00000   0.00000   0.00000   0.00000   0.00000
   D14        3.14159  -0.00000   0.00000  -0.00000   0.00000   3.14159
   D15        3.14159   0.00000   0.00000   0.00000   0.00000   3.14159
   D16        0.00000  -0.00000   0.00000  -0.00000   0.00000   0.00000
   D17        0.00000   0.00000   0.00000   0.00000   0.00000   0.00000
   D18        3.14159   0.00000   0.00000   0.00000   0.00000   3.14159
   D19        0.00000  -0.00000   0.00000  -0.00000   0.00000   0.00000
   D20        3.14159  -0.00000   0.00000  -0.00000   0.00000   3.14159
         Item               Value     Threshold  Converged?
 Maximum Force            0.147393     0.000450     NO 
 RMS     Force            0.042092     0.000300     NO 
 Maximum Displacement     0.200361     0.001800     NO 
 RMS     Displacement     0.059532     0.001200     NO 
 Predicted change in Energy=-9.521700D-02
 GradGradGradGradGradGradGradGradGradGradGradGradGradGradGradGradGradGrad

                          Input orientation:                          
 ---------------------------------------------------------------------
 Center     Atomic      Atomic             Coordinates (Angstroms)
 Number     Number       Type             X           Y           Z
 ---------------------------------------------------------------------
      1          6           0       -3.119448    0.261715    0.000000
      2          6           0       -1.919100    0.995801    0.000000
      3          6           0       -0.682525    0.335433    0.000000
      4          6           0       -0.659277   -1.060245    0.000000
      5          6           0       -1.819271   -1.831725    0.000000
      6          6           0       -3.042202   -1.157425    0.000000
      7         17           0       -4.493969   -2.068493    0.000000
      8         17           0       -4.605858    1.116504    0.000000
      9          1           0        0.292782   -1.557796    0.000000
     10          1           0       -1.960541    2.058399    0.000000
     11          1           0        0.220508    0.910032    0.000000
 ---------------------------------------------------------------------
                    Distance matrix (angstroms):
                    1          2          3          4          5
     1  C    0.000000
     2  C    1.407025   0.000000
     3  C    2.438038   1.401857   0.000000
     4  C    2.792852   2.411323   1.395872   0.000000
     5  C    2.464336   2.829288   2.447196   1.393115   0.000000
     6  C    1.421241   2.428527   2.792258   2.384906   1.396510
     7  Cl   2.705398   4.002481   4.506215   3.965026   2.685157
     8  Cl   1.714666   2.689468   4.000327   4.507077   4.056738
     9  H    3.867031   3.378354   2.129680   1.074231   2.129743
    10  H    2.138022   1.063405   2.145212   3.379235   3.892688
    11  H    3.402296   2.141326   1.070341   2.157779   3.417299
                    6          7          8          9         10
     6  C    0.000000
     7  Cl   1.713964   0.000000
     8  Cl   2.759669   3.186962   0.000000
     9  H    3.358930   4.813917   5.581088   0.000000
    10  H    3.392862   4.842468   2.808000   4.260789   0.000000
    11  H    3.862596   5.576549   4.830780   2.468886   2.464898
                   11
    11  H    0.000000
 Stoichiometry    C6H3Cl2(1-)
 Framework group  CS[SG(C6H3Cl2)]
 Deg. of freedom    19
 Full point group                 CS      NOp   2
 Largest Abelian subgroup         CS      NOp   2
 Largest concise Abelian subgroup C1      NOp   1
                         Standard orientation:                         
 ---------------------------------------------------------------------
 Center     Atomic      Atomic             Coordinates (Angstroms)
 Number     Number       Type             X           Y           Z
 ---------------------------------------------------------------------
      1          6           0        0.000000   -0.668379    0.000000
      2          6           0       -1.258106   -1.298370    0.000000
      3          6           0       -2.434433   -0.535835    0.000000
      4          6           0       -2.339618    0.856813    0.000000
      5          6           0       -1.118560    1.527475    0.000000
      6          6           0        0.042993    0.752211    0.000000
      7         17           0        1.566579    1.537297    0.000000
      8         17           0        1.408832   -1.645758    0.000000
      9          1           0       -3.246209    1.433063    0.000000
     10          1           0       -1.306637   -2.360667    0.000000
     11          1           0       -3.382805   -1.032041    0.000000
 ---------------------------------------------------------------------
 Rotational constants (GHZ):           1.9546683           1.4467930           0.8314075
 Standard basis: VSTO-6G (5D, 7F)
 There are    27 symmetry adapted cartesian basis functions of A'  symmetry.
 There are     8 symmetry adapted cartesian basis functions of A"  symmetry.
 There are    27 symmetry adapted basis functions of A'  symmetry.
 There are     8 symmetry adapted basis functions of A"  symmetry.
    35 basis functions,   210 primitive gaussians,    35 cartesian basis functions
    21 alpha electrons       21 beta electrons
       nuclear repulsion energy       197.7951625771 Hartrees.
 Integral buffers will be    131072 words long.
 Regular integral format.
 Two-electron integral symmetry is turned off.
 Do NDO integrals.
 One-electron integrals computed using PRISM.
 NBasis=    35 RedAO= T EigKep=  1.00D+00  NBF=    27     8
 NBsUse=    35 1.00D-06 EigRej= -1.00D+00 NBFU=    27     8
 Initial guess from the checkpoint file:  "geometry_chks/12_ClBzAnionIntermediate.chk"
 B after Tr=    -0.000000    0.000000    0.000000
         Rot=    0.999886    0.000000    0.000000    0.015101 Ang=   1.73 deg.
 Initial guess orbital symmetries:
       Occupied  (A') (A') (A') (A') (A') (A') (A') (A') (A') (A')
                 (A") (A') (A') (A") (A") (A') (A') (A') (A") (A")
                 (A')
       Virtual   (A") (A') (A") (A') (A') (A') (A") (A') (A') (A')
                 (A') (A') (A') (A')
 Keep J ints in memory in canonical form, NReq=862793.
 Overlap will be assumed to be unity.
 Requested convergence on RMS density matrix=1.00D-08 within**** cycles.
 Requested convergence on MAX density matrix=1.00D-06.
 Requested convergence on             energy=1.00D-06.
 No special actions if energy rises.
 Fock symm off for IB=2 I1=    1 I=   28 J=   13 Cut=1.00D-07 Err=3.10D-03
 Fock matrix is not symmetric: symmetry in diagonalization turned off.
 SCF Done:  E(RAM1) =  0.487592343932E-01 A.U. after   14 cycles
            NFock= 13  Conv=0.80D-08     -V/T= 1.0005
 Calling FoFJK, ICntrl=      2127 FMM=F ISym2X=1 I1Cent= 0 IOpClX= 0 NMat=1 NMatS=1 NMatT=0.
 ***** Axes restored to original set *****
 -------------------------------------------------------------------
 Center     Atomic                   Forces (Hartrees/Bohr)
 Number     Number              X              Y              Z
 -------------------------------------------------------------------
      1        6           0.016762692   -0.021199661    0.000000000
      2        6          -0.006230746   -0.024221855    0.000000000
      3        6          -0.026326301   -0.012663502    0.000000000
      4        6          -0.011921019    0.007211821    0.000000000
      5        6          -0.010529877    0.008113759   -0.000000000
      6        6           0.009067938    0.016855051   -0.000000000
      7       17          -0.003169577   -0.001619739   -0.000000000
      8       17          -0.000586335    0.000290724   -0.000000000
      9        1           0.016300199   -0.009268921   -0.000000000
     10        1          -0.000081577    0.025403476   -0.000000000
     11        1           0.016714603    0.011098848   -0.000000000
 -------------------------------------------------------------------
 Cartesian Forces:  Max     0.026326301 RMS     0.011493263

 GradGradGradGradGradGradGradGradGradGradGradGradGradGradGradGradGradGrad
 Berny optimization.
 Using GEDIIS/GDIIS optimizer.
 FormGI is forming the generalized inverse of G from B-inverse, IUseBI=4.
 Internal  Forces:  Max     0.025387358 RMS     0.006895258
 Search for a local minimum.
 Step number   5 out of a maximum of   57
 All quantities printed in internal units (Hartrees-Bohrs-Radians)
 Mixed Optimization -- RFO/linear search
 Update second derivatives using D2CorX and points    4    5
 DE= -5.43D-02 DEPred=-9.52D-02 R= 5.71D-01
 TightC=F SS=  1.41D+00  RLast= 5.45D-01 DXNew= 8.4853D-01 1.6341D+00
 Trust test= 5.71D-01 RLast= 5.45D-01 DXMaxT set to 8.49D-01
 ITU=  1  0  0  1  0
 Use linear search instead of GDIIS.
     Eigenvalues ---    0.02011   0.02011   0.02011   0.02011   0.02011
     Eigenvalues ---    0.02011   0.02011   0.02011   0.06519   0.06531
     Eigenvalues ---    0.15993   0.15998   0.16000   0.17425   0.22076
     Eigenvalues ---    0.23398   0.24940   0.24980   0.25017   0.28785
     Eigenvalues ---    0.29034   0.40816   0.41522   0.44577   0.44653
     Eigenvalues ---    0.44657   0.74619
 RFO step:  Lambda=-6.22672895D-03 EMin= 2.01067216D-02
 Quartic linear search produced a step of -0.13370.
 Iteration  1 RMS(Cart)=  0.03205711 RMS(Int)=  0.00011582
 Iteration  2 RMS(Cart)=  0.00015572 RMS(Int)=  0.00005743
 Iteration  3 RMS(Cart)=  0.00000001 RMS(Int)=  0.00005743
 ClnCor:  largest displacement from symmetrization is 8.85D-09 for atom     1.
 Variable       Old X    -DE/DX   Delta X   Delta X   Delta X     New X
                                 (Linear)    (Quad)   (Total)
    R1        2.65889  -0.01005  -0.01838   0.01225  -0.00608   2.65281
    R2        2.68576  -0.02050  -0.00677  -0.02952  -0.03619   2.64956
    R3        3.24025   0.00065  -0.00213   0.00840   0.00627   3.24652
    R4        2.64913  -0.00487  -0.02457   0.03378   0.00916   2.65829
    R5        2.00954   0.02539   0.03131   0.12368   0.15499   2.16454
    R6        2.63782  -0.00092  -0.02213   0.03835   0.01613   2.65394
    R7        2.02265   0.02006   0.03456   0.06001   0.09458   2.11723
    R8        2.63261  -0.00118  -0.01947   0.03399   0.01447   2.64708
    R9        2.03000   0.01874   0.03147   0.04702   0.07849   2.10850
   R10        2.63902  -0.01114  -0.01214   0.00067  -0.01141   2.62761
   R11        3.23892   0.00355  -0.00444   0.02122   0.01678   3.25570
    A1        2.06529   0.00681  -0.00265   0.02438   0.02188   2.08717
    A2        2.07083  -0.00334   0.00022  -0.00918  -0.00904   2.06179
    A3        2.14706  -0.00347   0.00243  -0.01520  -0.01284   2.13422
    A4        2.10222  -0.00477   0.00063  -0.01875  -0.01812   2.08410
    A5        2.08069   0.00330  -0.00027   0.01401   0.01375   2.09444
    A6        2.10028   0.00147  -0.00037   0.00473   0.00437   2.10465
    A7        2.07795   0.00133   0.00234   0.00667   0.00887   2.08682
    A8        2.08441  -0.00106  -0.00123  -0.00542  -0.00658   2.07783
    A9        2.12082  -0.00027  -0.00111  -0.00125  -0.00229   2.11853
   A10        2.14104  -0.00515   0.00570  -0.02507  -0.01951   2.12153
   A11        2.06902   0.00325  -0.00297   0.01601   0.01311   2.08213
   A12        2.07313   0.00190  -0.00273   0.00906   0.00640   2.07953
   A13        2.05079   0.00049  -0.00609   0.01327   0.00719   2.05799
   A14        2.12908   0.00129   0.00005  -0.00050  -0.00030   2.12877
   A15        2.07685  -0.00115   0.00109  -0.00351  -0.00250   2.07436
   A16        2.07725  -0.00014  -0.00114   0.00402   0.00280   2.08005
    D1        0.00000  -0.00000   0.00000  -0.00000   0.00000   0.00000
    D2        3.14159  -0.00000   0.00000  -0.00000   0.00000   3.14159
    D3        3.14159   0.00000   0.00000   0.00000   0.00000   3.14159
    D4        0.00000  -0.00000   0.00000  -0.00000   0.00000   0.00000
    D5        0.00000   0.00000   0.00000   0.00000   0.00000   0.00000
    D6        3.14159   0.00000   0.00000   0.00000   0.00000   3.14159
    D7        3.14159  -0.00000   0.00000  -0.00000   0.00000   3.14159
    D8        0.00000  -0.00000   0.00000  -0.00000   0.00000   0.00000
    D9        0.00000   0.00000   0.00000   0.00000   0.00000   0.00000
   D10        3.14159  -0.00000   0.00000  -0.00000   0.00000   3.14159
   D11        3.14159   0.00000   0.00000   0.00000   0.00000   3.14159
   D12        0.00000   0.00000   0.00000   0.00000   0.00000   0.00000
   D13        0.00000   0.00000   0.00000   0.00000   0.00000   0.00000
   D14        3.14159  -0.00000   0.00000  -0.00000   0.00000   3.14159
   D15        3.14159   0.00000   0.00000   0.00000   0.00000   3.14159
   D16        0.00000   0.00000   0.00000   0.00000   0.00000   0.00000
   D17        0.00000  -0.00000   0.00000  -0.00000   0.00000   0.00000
   D18        3.14159   0.00000   0.00000   0.00000   0.00000   3.14159
   D19        0.00000   0.00000   0.00000   0.00000   0.00000   0.00000
   D20        3.14159  -0.00000   0.00000  -0.00000   0.00000   3.14159
         Item               Value     Threshold  Converged?
 Maximum Force            0.025387     0.000450     NO 
 RMS     Force            0.006895     0.000300     NO 
 Maximum Displacement     0.152072     0.001800     NO 
 RMS     Displacement     0.032054     0.001200     NO 
 Predicted change in Energy=-4.438178D-03
 GradGradGradGradGradGradGradGradGradGradGradGradGradGradGradGradGradGrad

                          Input orientation:                          
 ---------------------------------------------------------------------
 Center     Atomic      Atomic             Coordinates (Angstroms)
 Number     Number       Type             X           Y           Z
 ---------------------------------------------------------------------
      1          6           0       -3.114702    0.243353    0.000000
      2          6           0       -1.928704    0.994404    0.000000
      3          6           0       -0.689498    0.328681    0.000000
      4          6           0       -0.657136   -1.075352    0.000000
      5          6           0       -1.833586   -1.835701    0.000000
      6          6           0       -3.047225   -1.157110    0.000000
      7         17           0       -4.514452   -2.060125    0.000000
      8         17           0       -4.609612    1.089942    0.000000
      9          1           0        0.328239   -1.598779    0.000000
     10          1           0       -1.975507    2.138872    0.000000
     11          1           0        0.253285    0.934016    0.000000
 ---------------------------------------------------------------------
                    Distance matrix (angstroms):
                    1          2          3          4          5
     1  C    0.000000
     2  C    1.403806   0.000000
     3  C    2.426704   1.406704   0.000000
     4  C    2.789016   2.429151   1.404406   0.000000
     5  C    2.442074   2.831703   2.448160   1.400773   0.000000
     6  C    1.402088   2.424893   2.786835   2.391487   1.390469
     7  Cl   2.695424   4.002030   4.509619   3.981038   2.690243
     8  Cl   1.717984   2.682610   3.993346   4.506724   4.033076
     9  H    3.904778   3.437788   2.179653   1.115768   2.174769
    10  H    2.211506   1.145425   2.220498   3.474095   3.977106
    11  H    3.438074   2.182824   1.120389   2.205998   3.467905
                    6          7          8          9         10
     6  C    0.000000
     7  Cl   1.722844   0.000000
     8  Cl   2.736840   3.151503   0.000000
     9  H    3.404237   4.864617   5.622418   0.000000
    10  H    3.465845   4.906915   2.835271   4.390589   0.000000
    11  H    3.907196   5.629938   4.865396   2.533904   2.533612
                   11
    11  H    0.000000
 Stoichiometry    C6H3Cl2(1-)
 Framework group  CS[SG(C6H3Cl2)]
 Deg. of freedom    19
 Full point group                 CS      NOp   2
 Largest Abelian subgroup         CS      NOp   2
 Largest concise Abelian subgroup C1      NOp   1
                         Standard orientation:                         
 ---------------------------------------------------------------------
 Center     Atomic      Atomic             Coordinates (Angstroms)
 Number     Number       Type             X           Y           Z
 ---------------------------------------------------------------------
      1          6           0        0.000000   -0.656221    0.000000
      2          6           0       -1.234151   -1.325207    0.000000
      3          6           0       -2.425413   -0.577068    0.000000
      4          6           0       -2.362590    0.825932    0.000000
      5          6           0       -1.137336    1.504841    0.000000
      6          6           0        0.027547    0.745596    0.000000
      7         17           0        1.552574    1.547145    0.000000
      8         17           0        1.434128   -1.602132    0.000000
      9          1           0       -3.310245    1.414906    0.000000
     10          1           0       -1.264982   -2.470216    0.000000
     11          1           0       -3.407037   -1.117148    0.000000
 ---------------------------------------------------------------------
 Rotational constants (GHZ):           1.9810867           1.4391361           0.8335870
 Standard basis: VSTO-6G (5D, 7F)
 There are    27 symmetry adapted cartesian basis functions of A'  symmetry.
 There are     8 symmetry adapted cartesian basis functions of A"  symmetry.
 There are    27 symmetry adapted basis functions of A'  symmetry.
 There are     8 symmetry adapted basis functions of A"  symmetry.
    35 basis functions,   210 primitive gaussians,    35 cartesian basis functions
    21 alpha electrons       21 beta electrons
       nuclear repulsion energy       197.5231175891 Hartrees.
 Integral buffers will be    131072 words long.
 Regular integral format.
 Two-electron integral symmetry is turned off.
 Do NDO integrals.
 One-electron integrals computed using PRISM.
 NBasis=    35 RedAO= T EigKep=  1.00D+00  NBF=    27     8
 NBsUse=    35 1.00D-06 EigRej= -1.00D+00 NBFU=    27     8
 Initial guess from the checkpoint file:  "geometry_chks/12_ClBzAnionIntermediate.chk"
 B after Tr=    -0.000000   -0.000000    0.000000
         Rot=    0.999969   -0.000000   -0.000000   -0.007919 Ang=  -0.91 deg.
 Initial guess orbital symmetries:
       Occupied  (A') (A') (A') (A') (A') (A') (A') (A') (A') (A')
[...]
      1        6           0.000010122   -0.000012937    0.000000000
      2        6           0.000004245    0.000002959    0.000000000
      3        6           0.000001381    0.000005824    0.000000000
      4        6           0.000002646   -0.000002918    0.000000000
      5        6           0.000008545   -0.000007544    0.000000000
      6        6          -0.000020532    0.000010391   -0.000000000
      7       17           0.000002566   -0.000000667   -0.000000000
      8       17          -0.000003785    0.000001790   -0.000000000
      9        1          -0.000002387    0.000001706   -0.000000000
     10        1          -0.000001190    0.000003407   -0.000000000
     11        1          -0.000001610   -0.000002012   -0.000000000
 -------------------------------------------------------------------
 Cartesian Forces:  Max     0.000020532 RMS     0.000005668

 GradGradGradGradGradGradGradGradGradGradGradGradGradGradGradGradGradGrad
 Berny optimization.
 Using GEDIIS/GDIIS optimizer.
 FormGI is forming the generalized inverse of G from B-inverse, IUseBI=4.
 Internal  Forces:  Max     0.000011100 RMS     0.000002847
 Search for a local minimum.
 Step number  13 out of a maximum of   57
 All quantities printed in internal units (Hartrees-Bohrs-Radians)
 Mixed Optimization -- En-DIIS/RFO-DIIS
 Swapping is turned off.
 Update second derivatives using D2CorX and points    4    5    6    8    7
                                                      9   10   11   12   13
 DE= -7.36D-07 DEPred=-7.39D-07 R= 9.96D-01
 Trust test= 9.96D-01 RLast= 1.98D-03 DXMaxT set to 1.06D-01
 ITU=  0  1 -1  1  1 -1  1 -1  1  0  0  1  0
     Eigenvalues ---    0.02011   0.02011   0.02011   0.02011   0.02011
     Eigenvalues ---    0.02011   0.02011   0.02011   0.15563   0.15980
     Eigenvalues ---    0.16009   0.18803   0.22182   0.24300   0.24915
     Eigenvalues ---    0.25375   0.27703   0.29216   0.34432   0.35581
     Eigenvalues ---    0.36661   0.42721   0.44350   0.44970   0.45999
     Eigenvalues ---    0.58543   0.82402
 En-DIIS/RFO-DIIS/Sim-DIIS IScMMF=       -3 using points:    13   12   11   10    9
 RFO step:  Lambda=-1.10605926D-09.
 DIIS inversion failure, remove point   5.
 RFO-DIIS uses    4 points instead of    5
 DidBck=F Rises=F RFO-DIIS coefs:    0.99755    0.01004   -0.00167   -0.00592    0.00000
 Iteration  1 RMS(Cart)=  0.00000864 RMS(Int)=  0.00000000
 Iteration  2 RMS(Cart)=  0.00000000 RMS(Int)=  0.00000000
 ClnCor:  largest displacement from symmetrization is 3.55D-13 for atom    10.
 Variable       Old X    -DE/DX   Delta X   Delta X   Delta X     New X
                                 (Linear)    (Quad)   (Total)
    R1        2.64342   0.00000  -0.00000   0.00001   0.00001   2.64343
    R2        2.64745  -0.00001  -0.00001  -0.00001  -0.00002   2.64744
    R3        3.25623   0.00000   0.00000   0.00002   0.00002   3.25625
    R4        2.64108  -0.00000  -0.00000  -0.00000  -0.00001   2.64107
    R5        2.07282   0.00000  -0.00001   0.00002   0.00001   2.07282
    R6        2.63556   0.00000  -0.00000   0.00001   0.00001   2.63556
    R7        2.07739  -0.00000  -0.00001   0.00000  -0.00001   2.07739
    R8        2.63198   0.00000   0.00000   0.00000   0.00000   2.63198
    R9        2.07704  -0.00000  -0.00000  -0.00001  -0.00001   2.07703
   R10        2.62090   0.00001  -0.00000   0.00003   0.00003   2.62093
   R11        3.25806  -0.00000   0.00000  -0.00001  -0.00001   3.25806
    A1        2.08670   0.00001   0.00001   0.00002   0.00003   2.08673
    A2        2.05571  -0.00000  -0.00001  -0.00001  -0.00002   2.05569
    A3        2.14078  -0.00000  -0.00000  -0.00001  -0.00001   2.14076
    A4        2.08005  -0.00000  -0.00000  -0.00001  -0.00001   2.08003
    A5        2.10069  -0.00000   0.00000  -0.00000   0.00000   2.10070
    A6        2.10245   0.00000   0.00000   0.00001   0.00001   2.10246
    A7        2.09406  -0.00000   0.00000  -0.00000  -0.00000   2.09406
    A8        2.07493   0.00000  -0.00000   0.00001   0.00001   2.07493
    A9        2.11420  -0.00000  -0.00000  -0.00000  -0.00001   2.11419
   A10        2.12253   0.00000  -0.00000   0.00001   0.00001   2.12254
   A11        2.08250  -0.00000   0.00000  -0.00001  -0.00001   2.08249
   A12        2.07815  -0.00000   0.00000  -0.00000  -0.00000   2.07815
   A13        2.05631  -0.00000   0.00000  -0.00001  -0.00000   2.05631
   A14        2.12672  -0.00000  -0.00000  -0.00002  -0.00002   2.12670
   A15        2.08029   0.00001   0.00000   0.00002   0.00002   2.08031
   A16        2.07618  -0.00000  -0.00000  -0.00000  -0.00001   2.07618
    D1        0.00000  -0.00000   0.00000  -0.00000   0.00000   0.00000
    D2        3.14159  -0.00000   0.00000  -0.00000   0.00000   3.14159
    D3        3.14159   0.00000   0.00000   0.00000   0.00000   3.14159
    D4        0.00000   0.00000   0.00000   0.00000   0.00000   0.00000
    D5        0.00000   0.00000   0.00000   0.00000   0.00000   0.00000
    D6        3.14159   0.00000   0.00000   0.00000   0.00000   3.14159
    D7        3.14159  -0.00000   0.00000  -0.00000   0.00000   3.14159
    D8        0.00000  -0.00000   0.00000  -0.00000   0.00000   0.00000
    D9        0.00000  -0.00000   0.00000  -0.00000   0.00000   0.00000
   D10        3.14159  -0.00000   0.00000  -0.00000   0.00000   3.14159
   D11        3.14159   0.00000   0.00000   0.00000   0.00000   3.14159
   D12        0.00000   0.00000   0.00000   0.00000   0.00000   0.00000
   D13        0.00000   0.00000   0.00000   0.00000   0.00000   0.00000
   D14        3.14159  -0.00000   0.00000  -0.00000   0.00000   3.14159
   D15        3.14159   0.00000   0.00000   0.00000   0.00000   3.14159
   D16        0.00000   0.00000   0.00000   0.00000   0.00000   0.00000
   D17        0.00000   0.00000   0.00000   0.00000   0.00000   0.00000
   D18        3.14159   0.00000   0.00000   0.00000   0.00000   3.14159
   D19        0.00000  -0.00000   0.00000  -0.00000   0.00000   0.00000
   D20        3.14159  -0.00000   0.00000  -0.00000   0.00000   3.14159
         Item               Value     Threshold  Converged?
 Maximum Force            0.000011     0.000450     YES
 RMS     Force            0.000003     0.000300     YES
 Maximum Displacement     0.000025     0.001800     YES
 RMS     Displacement     0.000009     0.001200     YES
 Predicted change in Energy=-6.134749D-10
 Optimization completed.
    -- Stationary point found.
                           ----------------------------
                           !   Optimized Parameters   !
                           ! (Angstroms and Degrees)  !
 --------------------------                            --------------------------
 ! Name  Definition              Value          Derivative Info.                !
 --------------------------------------------------------------------------------
 ! R1    R(1,2)                  1.3988         -DE/DX =    0.0                 !
 ! R2    R(1,6)                  1.401          -DE/DX =    0.0                 !
 ! R3    R(1,8)                  1.7231         -DE/DX =    0.0                 !
 ! R4    R(2,3)                  1.3976         -DE/DX =    0.0                 !
 ! R5    R(2,10)                 1.0969         -DE/DX =    0.0                 !
 ! R6    R(3,4)                  1.3947         -DE/DX =    0.0                 !
 ! R7    R(3,11)                 1.0993         -DE/DX =    0.0                 !
 ! R8    R(4,5)                  1.3928         -DE/DX =    0.0                 !
 ! R9    R(4,9)                  1.0991         -DE/DX =    0.0                 !
 ! R10   R(5,6)                  1.3869         -DE/DX =    0.0                 !
 ! R11   R(6,7)                  1.7241         -DE/DX =    0.0                 !
 ! A1    A(2,1,6)              119.5593         -DE/DX =    0.0                 !
 ! A2    A(2,1,8)              117.7833         -DE/DX =    0.0                 !
 ! A3    A(6,1,8)              122.6575         -DE/DX =    0.0                 !
 ! A4    A(1,2,3)              119.1778         -DE/DX =    0.0                 !
 ! A5    A(1,2,10)             120.3609         -DE/DX =    0.0                 !
 ! A6    A(3,2,10)             120.4613         -DE/DX =    0.0                 !
 ! A7    A(2,3,4)              119.9807         -DE/DX =    0.0                 !
 ! A8    A(2,3,11)             118.8846         -DE/DX =    0.0                 !
 ! A9    A(4,3,11)             121.1347         -DE/DX =    0.0                 !
 ! A10   A(3,4,5)              121.6123         -DE/DX =    0.0                 !
 ! A11   A(3,4,9)              119.3185         -DE/DX =    0.0                 !
 ! A12   A(5,4,9)              119.0692         -DE/DX =    0.0                 !
 ! A13   A(4,5,6)              117.8181         -DE/DX =    0.0                 !
 ! A14   A(1,6,5)              121.8518         -DE/DX =    0.0                 !
 ! A15   A(1,6,7)              119.1918         -DE/DX =    0.0                 !
 ! A16   A(5,6,7)              118.9564         -DE/DX =    0.0                 !
 ! D1    D(6,1,2,3)              0.0            -DE/DX =    0.0                 !
 ! D2    D(6,1,2,10)           180.0            -DE/DX =    0.0                 !
 ! D3    D(8,1,2,3)            180.0            -DE/DX =    0.0                 !
 ! D4    D(8,1,2,10)             0.0            -DE/DX =    0.0                 !
 ! D5    D(2,1,6,5)              0.0            -DE/DX =    0.0                 !
 ! D6    D(2,1,6,7)            180.0            -DE/DX =    0.0                 !
 ! D7    D(8,1,6,5)            180.0            -DE/DX =    0.0                 !
 ! D8    D(8,1,6,7)              0.0            -DE/DX =    0.0                 !
 ! D9    D(1,2,3,4)              0.0            -DE/DX =    0.0                 !
 ! D10   D(1,2,3,11)           180.0            -DE/DX =    0.0                 !
 ! D11   D(10,2,3,4)           180.0            -DE/DX =    0.0                 !
 ! D12   D(10,2,3,11)            0.0            -DE/DX =    0.0                 !
 ! D13   D(2,3,4,5)              0.0            -DE/DX =    0.0                 !
 ! D14   D(2,3,4,9)            180.0            -DE/DX =    0.0                 !
 ! D15   D(11,3,4,5)           180.0            -DE/DX =    0.0                 !
 ! D16   D(11,3,4,9)             0.0            -DE/DX =    0.0                 !
 ! D17   D(3,4,5,6)              0.0            -DE/DX =    0.0                 !
 ! D18   D(9,4,5,6)            180.0            -DE/DX =    0.0                 !
 ! D19   D(4,5,6,1)              0.0            -DE/DX =    0.0                 !
 ! D20   D(4,5,6,7)            180.0            -DE/DX =    0.0                 !
 --------------------------------------------------------------------------------
 GradGradGradGradGradGradGradGradGradGradGradGradGradGradGradGradGradGrad

                          Input orientation:                          
 ---------------------------------------------------------------------
 Center     Atomic      Atomic             Coordinates (Angstroms)
 Number     Number       Type             X           Y           Z
 ---------------------------------------------------------------------
      1          6           0       -3.107847    0.246982    0.000000
      2          6           0       -1.926006    0.995312    0.000000
      3          6           0       -0.697545    0.328851    0.000000
      4          6           0       -0.661033   -1.065348    0.000000
      5          6           0       -1.827629   -1.826202    0.000000
      6          6           0       -3.039841   -1.152338    0.000000
      7         17           0       -4.502368   -2.065307    0.000000
      8         17           0       -4.601990    1.105291    0.000000
      9          1           0        0.311065   -1.578276    0.000000
     10          1           0       -1.963917    2.091545    0.000000
     11          1           0        0.228211    0.921690    0.000000
 ---------------------------------------------------------------------
                    Distance matrix (angstroms):
                    1          2          3          4          5
     1  C    0.000000
     2  C    1.398837   0.000000
     3  C    2.411691   1.397600   0.000000
     4  C    2.776528   2.417949   1.394677   0.000000
     5  C    2.436606   2.823229   2.433381   1.392783   0.000000
     6  C    1.400972   2.419304   2.771331   2.380398   1.386922
     7  Cl   2.700254   4.000629   4.495405   3.969353   2.685405
     8  Cl   1.723125   2.678243   3.980898   4.499201   4.036178
     9  H    3.875632   3.409962   2.157412   1.099122   2.153016
    10  H    2.170481   1.096888   2.170435   3.415183   3.920117
    11  H    3.403602   2.155474   1.099309   2.176942   3.431820
                    6          7          8          9         10
     6  C    0.000000
     7  Cl   1.724093   0.000000
     8  Cl   2.745395   3.172163   0.000000
     9  H    3.377869   4.838009   5.598182   0.000000
    10  H    3.417658   4.870642   2.816403   4.317769   0.000000
    11  H    3.870627   5.594687   4.833689   2.501339   2.484750
                   11
    11  H    0.000000
 Stoichiometry    C6H3Cl2(1-)
 Framework group  CS[SG(C6H3Cl2)]
 Deg. of freedom    19
 Full point group                 CS      NOp   2
 Largest Abelian subgroup         CS      NOp   2
 Largest concise Abelian subgroup C1      NOp   1
                         Standard orientation:                         
 ---------------------------------------------------------------------
 Center     Atomic      Atomic             Coordinates (Angstroms)
 Number     Number       Type             X           Y           Z
 ---------------------------------------------------------------------
      1          6           0        0.000000   -0.655520    0.000000
      2          6           0       -1.228042   -1.325339    0.000000
      3          6           0       -2.410519   -0.580332    0.000000
      4          6           0       -2.356207    0.813287    0.000000
      5          6           0       -1.142563    1.496596    0.000000
      6          6           0        0.023219    0.745259    0.000000
      7         17           0        1.542067    1.561099    0.000000
      8         17           0        1.435109   -1.609260    0.000000
      9          1           0       -3.292858    1.388400    0.000000
     10          1           0       -1.261564   -2.421714    0.000000
     11          1           0       -3.372899   -1.111658    0.000000
 ---------------------------------------------------------------------
 Rotational constants (GHZ):           1.9696674           1.4500928           0.8352049

 **********************************************************************

            Population analysis using the SCF Density.

 **********************************************************************

 Orbital symmetries:
       Occupied  (A') (A') (A') (A') (A') (A') (A') (A') (A') (A')
                 (A') (A") (A') (A") (A') (A') (A") (A') (A") (A")
                 (A')
       Virtual   (A") (A") (A') (A') (A") (A') (A') (A') (A') (A')
                 (A') (A') (A') (A')
 The electronic state is 1-A'.
 Alpha  occ. eigenvalues --   -1.26732  -1.21087  -1.19029  -0.96211  -0.94440
 Alpha  occ. eigenvalues --   -0.67564  -0.65766  -0.48843  -0.43262  -0.41488
 Alpha  occ. eigenvalues --   -0.37569  -0.37049  -0.32621  -0.30772  -0.29498
 Alpha  occ. eigenvalues --   -0.28450  -0.27873  -0.25304  -0.17586  -0.15922
 Alpha  occ. eigenvalues --   -0.10704
 Alpha virt. eigenvalues --    0.18304   0.20157   0.20494   0.23374   0.29733
 Alpha virt. eigenvalues --    0.30178   0.31181   0.32837   0.34633   0.34844
 Alpha virt. eigenvalues --    0.36293   0.37332   0.40333   0.41869
          Condensed to atoms (all electrons):
               1          2          3          4          5          6
     1  C    4.064213   0.000000   0.000000   0.000000   0.000000   0.000000
     2  C    0.000000   4.216465   0.000000   0.000000   0.000000   0.000000
     3  C    0.000000   0.000000   4.160006   0.000000   0.000000   0.000000
     4  C    0.000000   0.000000   0.000000   4.153975   0.000000   0.000000
     5  C    0.000000   0.000000   0.000000   0.000000   4.371200   0.000000
     6  C    0.000000   0.000000   0.000000   0.000000   0.000000   4.057248
     7  Cl   0.000000   0.000000   0.000000   0.000000   0.000000   0.000000
     8  Cl   0.000000   0.000000   0.000000   0.000000   0.000000   0.000000
     9  H    0.000000   0.000000   0.000000   0.000000   0.000000   0.000000
    10  H    0.000000   0.000000   0.000000   0.000000   0.000000   0.000000
    11  H    0.000000   0.000000   0.000000   0.000000   0.000000   0.000000
               7          8          9         10         11
     1  C    0.000000   0.000000   0.000000   0.000000   0.000000
     2  C    0.000000   0.000000   0.000000   0.000000   0.000000
     3  C    0.000000   0.000000   0.000000   0.000000   0.000000
     4  C    0.000000   0.000000   0.000000   0.000000   0.000000
     5  C    0.000000   0.000000   0.000000   0.000000   0.000000
     6  C    0.000000   0.000000   0.000000   0.000000   0.000000
     7  Cl   7.122095   0.000000   0.000000   0.000000   0.000000
     8  Cl   0.000000   7.121492   0.000000   0.000000   0.000000
     9  H    0.000000   0.000000   0.912426   0.000000   0.000000
    10  H    0.000000   0.000000   0.000000   0.900172   0.000000
    11  H    0.000000   0.000000   0.000000   0.000000   0.920708
 Mulliken charges:
               1
     1  C   -0.064213
     2  C   -0.216465
     3  C   -0.160006
     4  C   -0.153975
     5  C   -0.371200
     6  C   -0.057248
     7  Cl  -0.122095
     8  Cl  -0.121492
     9  H    0.087574
    10  H    0.099828
    11  H    0.079292
 Sum of Mulliken charges =  -1.00000
 Mulliken charges with hydrogens summed into heavy atoms:
               1
     1  C   -0.064213
     2  C   -0.116637
     3  C   -0.080714
     4  C   -0.066401
     5  C   -0.371200
     6  C   -0.057248
     7  Cl  -0.122095
     8  Cl  -0.121492
 Charge=             -1.0000 electrons
 Dipole moment (field-independent basis, Debye):
    X=              1.9502    Y=             -4.5002    Z=              0.0000  Tot=              4.9046
 N-N= 1.979055287561D+02 E-N=-2.812368938718D+02  KE=-9.212663048174D+01
 Symmetry A'   KE=-7.167974170470D+01
 Symmetry A"   KE=-2.044688877704D+01
 1\1\GINC-SH03-08N25\FOpt\RAM1\ZDO\C6H3Cl2(1-)\JLAPIER\08-Dec-2025\0\\#
  opt am1 SCF(maxcyc=10000)\\Anion Intermediate (removed 4) 12_\\-1,1\C
 ,-3.1078465281,0.2469822207,0.\C,-1.9260055523,0.9953122826,0.\C,-0.69
 75450172,0.3288511031,0.\C,-0.66103336,-1.0653481048,0.\C,-1.827629030
 8,-1.8262021218,0.\C,-3.0398414914,-1.1523377921,0.\Cl,-4.5023676291,-
 2.0653070541,0.\Cl,-4.6019899404,1.1052910713,0.\H,0.3110647045,-1.578
 2761968,0.\H,-1.9639168008,2.0915447128,0.\H,0.2282106455,0.9216898791
 ,0.\\Version=ES64L-G16RevB.01\State=1-A'\HF=0.0460779\RMSD=4.353e-09\R
 MSF=5.668e-06\Dipole=-0.8808994,1.7168066,0.\PG=CS [SG(C6H3Cl2)]\\@


 FROM WHENCE IT HAPPENS, THAT THEY WHICH TRUST TO BOOKS, DO AS THEY THAT CAST UP MANY LITTLE SUMMS INTO GREATER,
 WITHOUT CONSIDERING WETHER THOSE LITTLE SUMMES WERE RIGHTLY CAST UP OR NOT...
 AND AT LAST FINDING THE ERROUR VISIBLE, AND NOT MISTRUSTING THEIR FIRST GROUNDS,
 KNOW NOT WHICH WAY TO CLEERE THEMSELVES...
 BUT SPEND TIME IN FLUTTERING OVER THEIR BOOKES....
 AS BIRDS THAT ENTERING BY THE CHIMNEY, AND FINDING THEMSELVES INCLOSED IN A CHAMBER,
 FLUTTER AT THE FALSE LIGHT OF A GLASSE WINDOW,
 FOR WANT OF WIT TO CONSIDER WHICH WAY THEY CAME IN....
           LEVIATHAN
 Job cpu time:       0 days  0 hours  0 minutes  3.7 seconds.
 Elapsed time:       0 days  0 hours  0 minutes 29.1 seconds.
 File lengths (MBytes):  RWF=     10 Int=      0 D2E=      0 Chk=      2 Scr=      1
 Normal termination of Gaussian 16 at Mon Dec  8 17:09:02 2025.
