 Entering Gaussian System, Link 0=g16
 Initial command:
 /share/software/user/restricted/gaussian/g16.B01/l1.exe "/home/users/jlapier/Chloroaromatics/Gau-15646.inp" -scrdir="/home/users/jlapier/Chloroaromatics/"
 Entering Link 1 = /share/software/user/restricted/gaussian/g16.B01/l1.exe PID=     15648.
  
 Copyright (c) 1988-2017, Gaussian, Inc.  All Rights Reserved.
  
 This is part of the Gaussian(R) 16 program.  It is based on
 the Gaussian(R) 09 system (copyright 2009, Gaussian, Inc.),
 the Gaussian(R) 03 system (copyright 2003, Gaussian, Inc.),
 the Gaussian(R) 98 system (copyright 1998, Gaussian, Inc.),
 the Gaussian(R) 94 system (copyright 1995, Gaussian, Inc.),
 the Gaussian 92(TM) system (copyright 1992, Gaussian, Inc.),
 the Gaussian 90(TM) system (copyright 1990, Gaussian, Inc.),
 the Gaussian 88(TM) system (copyright 1988, Gaussian, Inc.),
 the Gaussian 86(TM) system (copyright 1986, Carnegie Mellon
 University), and the Gaussian 82(TM) system (copyright 1983,
 Carnegie Mellon University). Gaussian is a federally registered
 trademark of Gaussian, Inc.
  
 This software contains proprietary and confidential information,
 including trade secrets, belonging to Gaussian, Inc.
  
 This software is provided under written license and may be
 used, copied, transmitted, or stored only in accord with that
 written license.
  
 The following legend is applicable only to US Government
 contracts under FAR:
  
                    RESTRICTED RIGHTS LEGEND
  
 Use, reproduction and disclosure by the US Government is
 subject to restrictions as set forth in subparagraphs (a)
 and (c) of the Commercial Computer Software - Restricted
 Rights clause in FAR 52.227-19.
  
 Gaussian, Inc.
 340 Quinnipiac St., Bldg. 40, Wallingford CT 06492
  
  
 ---------------------------------------------------------------
 Warning -- This program may not be used in any manner that
 competes with the business of Gaussian, Inc. or will provide
 assistance to any competitor of Gaussian, Inc.  The licensee
 of this program is prohibited from giving any competitor of
 Gaussian, Inc. access to this program.  By using this program,
 the user acknowledges that Gaussian, Inc. is engaged in the
 business of creating and licensing software in the field of
 computational chemistry and represents and warrants to the
 licensee that it is not a competitor of Gaussian, Inc. and that
 it will not use this program in any manner prohibited above.
 ---------------------------------------------------------------
  

 Cite this work as:
 Gaussian 16, Revision B.01,
 M. J. Frisch, G. W. Trucks, H. B. Schlegel, G. E. Scuseria, 
 M. A. Robb, J. R. Cheeseman, G. Scalmani, V. Barone, 
 G. A. Petersson, H. Nakatsuji, X. Li, M. Caricato, A. V. Marenich, 
 J. Bloino, B. G. Janesko, R. Gomperts, B. Mennucci, H. P. Hratchian, 
 J. V. Ortiz, A. F. Izmaylov, J. L. Sonnenberg, D. Williams-Young, 
 F. Ding, F. Lipparini, F. Egidi, J. Goings, B. Peng, A. Petrone, 
 T. Henderson, D. Ranasinghe, V. G. Zakrzewski, J. Gao, N. Rega, 
 G. Zheng, W. Liang, M. Hada, M. Ehara, K. Toyota, R. Fukuda, 
 J. Hasegawa, M. Ishida, T. Nakajima, Y. Honda, O. Kitao, H. Nakai, 
 T. Vreven, K. Throssell, J. A. Montgomery, Jr., J. E. Peralta, 
 F. Ogliaro, M. J. Bearpark, J. J. Heyd, E. N. Brothers, K. N. Kudin, 
 V. N. Staroverov, T. A. Keith, R. Kobayashi, J. Normand, 
 K. Raghavachari, A. P. Rendell, J. C. Burant, S. S. Iyengar, 
 J. Tomasi, M. Cossi, J. M. Millam, M. Klene, C. Adamo, R. Cammi, 
 J. W. Ochterski, R. L. Martin, K. Morokuma, O. Farkas, 
 J. B. Foresman, and D. J. Fox, Gaussian, Inc., Wallingford CT, 2016.
 
 ******************************************
 Gaussian 16:  ES64L-G16RevB.01 20-Dec-2017
                 8-Dec-2025 
 ******************************************
 %mem=2GB
 %nprocshare=1
 Will use up to    1 processors via shared memory.
 %chk=geometry_chks/12ClBzAnionRadical.chk
 ----------------------------
 # opt am1 SCF(maxcyc=100000)
 ----------------------------
 1/18=20,19=15,26=1,38=1/1,3;
 2/9=110,12=2,17=6,18=5,40=1/2;
 3/5=2,25=1,41=700000,71=1/1,2,3;
 4/35=1/1;
 5/5=2,7=100000,35=1,38=5/2;
 6/7=2,8=2,9=2,10=2,28=1/1;
 7//1,2,3,16;
 1/18=20,19=15,26=1/3(2);
 2/9=110/2;
 99//99;
 2/9=110/2;
 3/5=2,25=1,41=700000,71=1,135=20/1,2,3;
 4/5=5,16=3,35=1/1;
 5/5=2,7=100000,35=1,38=5/2;
 7//1,2,3,16;
 1/18=20,19=15,26=1/3(-5);
 2/9=110/2;
 6/7=2,8=2,9=2,10=2,19=2,28=1/1;
 99/9=1/99;
 -----------------------------------
 2-Chloro-Benzene Anion Radical (12)
 -----------------------------------
 Symbolic Z-matrix:
 Charge = -1 Multiplicity = 2
 C                    -3.20928   0.19943   0. 
 C                    -2.0115    0.93555   0. 
 C                    -0.77511   0.2663    0. 
 C                    -0.7365   -1.13907   0. 
 C                    -1.93429  -1.87519   0. 
 C                    -3.17067  -1.20594   0. 
 Cl                   -4.67483  -2.13035   0. 
 Cl                   -4.76193   1.03987   0. 
 H                     0.81614  -1.97951   0. 
 H                    -1.8858   -3.64003   0. 
 H                    -2.05998   2.7004    0. 
 H                     0.72905   1.19071   0. 
 
 Add virtual bond connecting atoms H10        and C5         Dist= 3.34D+00.
 Add virtual bond connecting atoms H9         and C4         Dist= 3.34D+00.
 Add virtual bond connecting atoms H12        and C3         Dist= 3.34D+00.
 Add virtual bond connecting atoms H11        and C2         Dist= 3.34D+00.

 GradGradGradGradGradGradGradGradGradGradGradGradGradGradGradGradGradGrad
 Berny optimization.
 Initialization pass.
                           ----------------------------
                           !    Initial Parameters    !
                           ! (Angstroms and Degrees)  !
 --------------------------                            --------------------------
 ! Name  Definition              Value          Derivative Info.                !
 --------------------------------------------------------------------------------
 ! R1    R(1,2)                  1.4059         estimate D2E/DX2                !
 ! R2    R(1,6)                  1.4059         estimate D2E/DX2                !
 ! R3    R(1,8)                  1.7655         estimate D2E/DX2                !
 ! R4    R(2,3)                  1.4059         estimate D2E/DX2                !
 ! R5    R(2,11)                 1.7655         estimate D2E/DX2                !
 ! R6    R(3,4)                  1.4059         estimate D2E/DX2                !
 ! R7    R(3,12)                 1.7655         estimate D2E/DX2                !
 ! R8    R(4,5)                  1.4059         estimate D2E/DX2                !
 ! R9    R(4,9)                  1.7655         estimate D2E/DX2                !
 ! R10   R(5,6)                  1.4059         estimate D2E/DX2                !
 ! R11   R(5,10)                 1.7655         estimate D2E/DX2                !
 ! R12   R(6,7)                  1.7655         estimate D2E/DX2                !
 ! A1    A(2,1,6)              119.9999         estimate D2E/DX2                !
 ! A2    A(2,1,8)              119.9999         estimate D2E/DX2                !
 ! A3    A(6,1,8)              120.0001         estimate D2E/DX2                !
 ! A4    A(1,2,3)              120.0            estimate D2E/DX2                !
 ! A5    A(1,2,11)             120.0001         estimate D2E/DX2                !
 ! A6    A(3,2,11)             119.9999         estimate D2E/DX2                !
 ! A7    A(2,3,4)              120.0001         estimate D2E/DX2                !
 ! A8    A(2,3,12)             120.0            estimate D2E/DX2                !
 ! A9    A(4,3,12)             119.9999         estimate D2E/DX2                !
 ! A10   A(3,4,5)              119.9997         estimate D2E/DX2                !
 ! A11   A(3,4,9)              120.0003         estimate D2E/DX2                !
 ! A12   A(5,4,9)              120.0            estimate D2E/DX2                !
 ! A13   A(4,5,6)              120.0            estimate D2E/DX2                !
 ! A14   A(4,5,10)             119.9996         estimate D2E/DX2                !
 ! A15   A(6,5,10)             120.0004         estimate D2E/DX2                !
 ! A16   A(1,6,5)              120.0003         estimate D2E/DX2                !
 ! A17   A(1,6,7)              119.9999         estimate D2E/DX2                !
 ! A18   A(5,6,7)              119.9998         estimate D2E/DX2                !
 ! D1    D(6,1,2,3)              0.0            estimate D2E/DX2                !
 ! D2    D(6,1,2,11)           180.0            estimate D2E/DX2                !
 ! D3    D(8,1,2,3)            180.0            estimate D2E/DX2                !
 ! D4    D(8,1,2,11)             0.0            estimate D2E/DX2                !
 ! D5    D(2,1,6,5)              0.0            estimate D2E/DX2                !
 ! D6    D(2,1,6,7)            180.0            estimate D2E/DX2                !
 ! D7    D(8,1,6,5)            180.0            estimate D2E/DX2                !
 ! D8    D(8,1,6,7)              0.0            estimate D2E/DX2                !
 ! D9    D(1,2,3,4)              0.0            estimate D2E/DX2                !
 ! D10   D(1,2,3,12)           180.0            estimate D2E/DX2                !
 ! D11   D(11,2,3,4)           180.0            estimate D2E/DX2                !
 ! D12   D(11,2,3,12)            0.0            estimate D2E/DX2                !
 ! D13   D(2,3,4,5)              0.0            estimate D2E/DX2                !
 ! D14   D(2,3,4,9)            180.0            estimate D2E/DX2                !
 ! D15   D(12,3,4,5)           180.0            estimate D2E/DX2                !
 ! D16   D(12,3,4,9)             0.0            estimate D2E/DX2                !
 ! D17   D(3,4,5,6)              0.0            estimate D2E/DX2                !
 ! D18   D(3,4,5,10)           180.0            estimate D2E/DX2                !
 ! D19   D(9,4,5,6)            180.0            estimate D2E/DX2                !
 ! D20   D(9,4,5,10)             0.0            estimate D2E/DX2                !
 ! D21   D(4,5,6,1)              0.0            estimate D2E/DX2                !
 ! D22   D(4,5,6,7)            180.0            estimate D2E/DX2                !
 ! D23   D(10,5,6,1)           180.0            estimate D2E/DX2                !
 ! D24   D(10,5,6,7)             0.0            estimate D2E/DX2                !
 --------------------------------------------------------------------------------
 Trust Radius=3.00D-01 FncErr=1.00D-07 GrdErr=1.00D-07 EigMax=2.50D+02 EigMin=1.00D-04
 Number of steps in this run=     64 maximum allowed number of steps=    100.
 GradGradGradGradGradGradGradGradGradGradGradGradGradGradGradGradGradGrad

                          Input orientation:                          
 ---------------------------------------------------------------------
 Center     Atomic      Atomic             Coordinates (Angstroms)
 Number     Number       Type             X           Y           Z
 ---------------------------------------------------------------------
      1          6           0       -3.209280    0.199430    0.000000
      2          6           0       -2.011500    0.935550    0.000000
      3          6           0       -0.775110    0.266300    0.000000
      4          6           0       -0.736500   -1.139070    0.000000
      5          6           0       -1.934290   -1.875190    0.000000
      6          6           0       -3.170670   -1.205940    0.000000
      7         17           0       -4.674830   -2.130350    0.000000
      8         17           0       -4.761930    1.039870    0.000000
      9          1           0        0.816140   -1.979510    0.000000
     10          1           0       -1.885800   -3.640030    0.000000
     11          1           0       -2.059980    2.700400    0.000000
     12          1           0        0.729050    1.190710    0.000000
 ---------------------------------------------------------------------
                    Distance matrix (angstroms):
                    1          2          3          4          5
     1  C    0.000000
     2  C    1.405898   0.000000
     3  C    2.435088   1.405900   0.000000
     4  C    2.811801   2.435092   1.405900   0.000000
     5  C    2.435087   2.811800   2.435093   1.405907   0.000000
     6  C    1.405900   2.435088   2.811796   2.435088   1.405892
     7  Cl   2.752401   4.061166   4.577308   4.061167   2.752393
     8  Cl   1.765520   2.752408   4.061175   4.577321   4.061173
     9  H    4.577312   4.061173   2.752406   1.765511   2.752408
    10  H    4.061164   4.577306   4.061163   2.752397   1.765506
    11  H    2.752406   1.765516   2.752405   4.061173   4.577316
    12  H    4.061167   2.752403   1.765512   2.752401   4.061173
                    6          7          8          9         10
     6  C    0.000000
     7  Cl   1.765512   0.000000
     8  Cl   2.752412   3.171416   0.000000
     9  H    4.061165   5.493041   6.342832   0.000000
    10  H    2.752396   3.171407   5.493049   3.171404   0.000000
    11  H    4.061173   5.493049   3.171418   5.493052   6.342822
    12  H    4.577308   6.342819   5.493051   3.171416   5.493040
                   11         12
    11  H    0.000000
    12  H    3.171412   0.000000
 Stoichiometry    C6H4Cl2(1-,2)
 Framework group  CS[SG(C6H4Cl2)]
 Deg. of freedom    21
 Full point group                 CS      NOp   2
 Largest Abelian subgroup         CS      NOp   2
 Largest concise Abelian subgroup C1      NOp   1
                         Standard orientation:                         
 ---------------------------------------------------------------------
 Center     Atomic      Atomic             Coordinates (Angstroms)
 Number     Number       Type             X           Y           Z
 ---------------------------------------------------------------------
      1          6           0        0.593843   -0.377332   -0.000000
      2          6           0        1.811387    0.325616   -0.000000
      3          6           0        1.811387    1.731516   -0.000000
      4          6           0        0.593843    2.434469    0.000000
      5          6           0       -0.623706    1.731512    0.000000
      6          6           0       -0.623701    0.325620    0.000000
      7         17           0       -2.152679   -0.557136    0.000000
      8         17           0        0.593843   -2.142852   -0.000000
      9          1           0        0.593838    4.199980    0.000000
     10          1           0       -2.152675    2.614271    0.000000
     11          1           0        3.340370   -0.557139   -0.000000
     12          1           0        3.340365    2.614272   -0.000000
 ---------------------------------------------------------------------
 Rotational constants (GHZ):           1.8555983           1.3458235           0.7800621
 Standard basis: VSTO-6G (5D, 7F)
 There are    28 symmetry adapted cartesian basis functions of A'  symmetry.
 There are     8 symmetry adapted cartesian basis functions of A"  symmetry.
 There are    28 symmetry adapted basis functions of A'  symmetry.
 There are     8 symmetry adapted basis functions of A"  symmetry.
    36 basis functions,   216 primitive gaussians,    36 cartesian basis functions
    22 alpha electrons       21 beta electrons
       nuclear repulsion energy       199.4607519287 Hartrees.
 Integral buffers will be    131072 words long.
 Regular integral format.
 Two-electron integral symmetry is turned off.
 Do NDO integrals.
 One-electron integrals computed using PRISM.
 NBasis=    36 RedAO= T EigKep=  1.00D+00  NBF=    28     8
 NBsUse=    36 1.00D-06 EigRej= -1.00D+00 NBFU=    28     8
 Simple Huckel Guess.
 Initial guess orbital symmetries:
 Alpha Orbitals:
       Occupied  (A') (A') (A') (A') (A') (A') (A') (A') (A') (A")
                 (A') (A') (A') (A") (A") (A') (A') (A') (A") (A')
                 (A") (A')
       Virtual   (A') (A") (A") (A') (A') (A") (A') (A') (A') (A')
                 (A') (A') (A') (A')
 Beta  Orbitals:
       Occupied  (A') (A') (A') (A') (A') (A') (A') (A') (A') (A")
                 (A') (A') (A') (A") (A") (A') (A') (A') (A") (A')
                 (A")
       Virtual   (A') (A') (A") (A") (A') (A') (A") (A') (A') (A')
                 (A') (A') (A') (A') (A')
 The electronic state of the initial guess is 2-A'.
 Initial guess <Sx>= 0.0000 <Sy>= 0.0000 <Sz>= 0.5000 <S**2>= 0.7500 S= 0.5000
 Keep J ints in memory in canonical form, NReq=862905.
 Overlap will be assumed to be unity.
 Requested convergence on RMS density matrix=1.00D-08 within**** cycles.
 Requested convergence on MAX density matrix=1.00D-06.
 Requested convergence on             energy=1.00D-06.
 No special actions if energy rises.
 Fock symm off for IB=2 I1=    1 I=   29 J=   24 Cut=1.00D-07 Err=1.10D-02
 Fock matrix is not symmetric: symmetry in diagonalization turned off.
 Rare condition: small coef for last iteration:  0.000D+00
 Rare condition: small coef for last iteration:  0.000D+00
 SCF Done:  E(UAM1) =  0.468754274854     A.U. after   29 cycles
            NFock= 28  Conv=0.98D-08     -V/T= 1.0051
 <Sx>= 0.0000 <Sy>= 0.0000 <Sz>= 0.5000 <S**2>= 1.5547 S= 0.8434
 <L.S>=  0.00000000000    
 Annihilation of the first spin contaminant:
 S**2 before annihilation     1.5547,   after     1.4257

 **********************************************************************

            Population analysis using the SCF Density.

 **********************************************************************

 Orbital symmetries:
 Alpha Orbitals:
       Occupied  (A') (A') (A') (A') (A') (A') (A') (A') (A') (A')
                 (A") (A") (A') (A') (A') (A") (A') (A') (A') (A")
                 (A") (A')
       Virtual   (A') (A') (A') (A") (A") (A') (A') (A") (A') (A')
                 (A') (A') (A') (A')
 Beta  Orbitals:
       Occupied  (A') (A') (A') (A') (A') (A') (A') (A') (A') (A')
                 (A") (A") (A') (A') (A") (A') (A') (A") (A') (A')
                 (A")
       Virtual   (A") (A") (A') (A') (A') (A') (A') (A') (A") (A')
                 (A') (A') (A') (A') (A')
 The electronic state is 2-A'.
 Alpha  occ. eigenvalues --   -1.26133  -1.22490  -1.19635  -0.93490  -0.91974
 Alpha  occ. eigenvalues --   -0.64819  -0.62789  -0.46467  -0.41707  -0.39863
 Alpha  occ. eigenvalues --   -0.38519  -0.32978  -0.30648  -0.30376  -0.30112
 Alpha  occ. eigenvalues --   -0.28565  -0.27872  -0.23152  -0.22388  -0.18495
 Alpha  occ. eigenvalues --   -0.18229  -0.06307
 Alpha virt. eigenvalues --    0.14120   0.15946   0.16192   0.16759   0.18784
 Alpha virt. eigenvalues --    0.20338   0.20742   0.27799   0.31437   0.32359
 Alpha virt. eigenvalues --    0.34354   0.36512   0.36857   0.40228
  Beta  occ. eigenvalues --   -1.26550  -1.22573  -1.20219  -0.94123  -0.94025
  Beta  occ. eigenvalues --   -0.65798  -0.64727  -0.47078  -0.42653  -0.40803
  Beta  occ. eigenvalues --   -0.38622  -0.32976  -0.30851  -0.30336  -0.29140
  Beta  occ. eigenvalues --   -0.29094  -0.27916  -0.19898  -0.19254  -0.19070
  Beta  occ. eigenvalues --   -0.18369
  Beta virt. eigenvalues --    0.16781   0.17004   0.17247   0.18728   0.19402
  Beta virt. eigenvalues --    0.20265   0.24888   0.25427   0.26514   0.31198
  Beta virt. eigenvalues --    0.31765   0.33165   0.34828   0.36174   0.38118
          Condensed to atoms (all electrons):
               1          2          3          4          5          6
     1  C    4.075938   0.000000   0.000000   0.000000   0.000000   0.000000
     2  C    0.000000   4.110203   0.000000   0.000000   0.000000   0.000000
     3  C    0.000000   0.000000   4.166960   0.000000   0.000000   0.000000
     4  C    0.000000   0.000000   0.000000   4.166942   0.000000   0.000000
     5  C    0.000000   0.000000   0.000000   0.000000   4.110210   0.000000
     6  C    0.000000   0.000000   0.000000   0.000000   0.000000   4.075939
     7  Cl   0.000000   0.000000   0.000000   0.000000   0.000000   0.000000
     8  Cl   0.000000   0.000000   0.000000   0.000000   0.000000   0.000000
     9  H    0.000000   0.000000   0.000000   0.000000   0.000000   0.000000
    10  H    0.000000   0.000000   0.000000   0.000000   0.000000   0.000000
    11  H    0.000000   0.000000   0.000000   0.000000   0.000000   0.000000
    12  H    0.000000   0.000000   0.000000   0.000000   0.000000   0.000000
               7          8          9         10         11         12
     1  C    0.000000   0.000000   0.000000   0.000000   0.000000   0.000000
     2  C    0.000000   0.000000   0.000000   0.000000   0.000000   0.000000
     3  C    0.000000   0.000000   0.000000   0.000000   0.000000   0.000000
     4  C    0.000000   0.000000   0.000000   0.000000   0.000000   0.000000
     5  C    0.000000   0.000000   0.000000   0.000000   0.000000   0.000000
     6  C    0.000000   0.000000   0.000000   0.000000   0.000000   0.000000
     7  Cl   7.109536   0.000000   0.000000   0.000000   0.000000   0.000000
     8  Cl   0.000000   7.109539   0.000000   0.000000   0.000000   0.000000
     9  H    0.000000   0.000000   1.073601   0.000000   0.000000   0.000000
    10  H    0.000000   0.000000   0.000000   0.963755   0.000000   0.000000
    11  H    0.000000   0.000000   0.000000   0.000000   0.963768   0.000000
    12  H    0.000000   0.000000   0.000000   0.000000   0.000000   1.073610
          Atomic-Atomic Spin Densities.
               1          2          3          4          5          6
     1  C    0.011886   0.000000   0.000000   0.000000   0.000000   0.000000
     2  C    0.000000  -0.458848   0.000000   0.000000   0.000000   0.000000
     3  C    0.000000   0.000000  -0.214248   0.000000   0.000000   0.000000
     4  C    0.000000   0.000000   0.000000  -0.214281   0.000000   0.000000
     5  C    0.000000   0.000000   0.000000   0.000000  -0.458827   0.000000
     6  C    0.000000   0.000000   0.000000   0.000000   0.000000   0.011884
     7  Cl   0.000000   0.000000   0.000000   0.000000   0.000000   0.000000
     8  Cl   0.000000   0.000000   0.000000   0.000000   0.000000   0.000000
     9  H    0.000000   0.000000   0.000000   0.000000   0.000000   0.000000
    10  H    0.000000   0.000000   0.000000   0.000000   0.000000   0.000000
    11  H    0.000000   0.000000   0.000000   0.000000   0.000000   0.000000
    12  H    0.000000   0.000000   0.000000   0.000000   0.000000   0.000000
               7          8          9         10         11         12
     1  C    0.000000   0.000000   0.000000   0.000000   0.000000   0.000000
     2  C    0.000000   0.000000   0.000000   0.000000   0.000000   0.000000
     3  C    0.000000   0.000000   0.000000   0.000000   0.000000   0.000000
     4  C    0.000000   0.000000   0.000000   0.000000   0.000000   0.000000
     5  C    0.000000   0.000000   0.000000   0.000000   0.000000   0.000000
     6  C    0.000000   0.000000   0.000000   0.000000   0.000000   0.000000
     7  Cl  -0.009162   0.000000   0.000000   0.000000   0.000000   0.000000
     8  Cl   0.000000  -0.009160   0.000000   0.000000   0.000000   0.000000
     9  H    0.000000   0.000000   0.666164   0.000000   0.000000   0.000000
    10  H    0.000000   0.000000   0.000000   0.504183   0.000000   0.000000
    11  H    0.000000   0.000000   0.000000   0.000000   0.504234   0.000000
    12  H    0.000000   0.000000   0.000000   0.000000   0.000000   0.666176
 Mulliken charges and spin densities:
               1          2
     1  C   -0.075938   0.011886
     2  C   -0.110203  -0.458848
     3  C   -0.166960  -0.214248
     4  C   -0.166942  -0.214281
     5  C   -0.110210  -0.458827
     6  C   -0.075939   0.011884
     7  Cl  -0.109536  -0.009162
     8  Cl  -0.109539  -0.009160
     9  H   -0.073601   0.666164
    10  H    0.036245   0.504183
    11  H    0.036232   0.504234
    12  H   -0.073610   0.666176
 Sum of Mulliken charges =  -1.00000   1.00000
 Mulliken charges and spin densities with hydrogens summed into heavy atoms:
               1          2
     1  C   -0.075938   0.011886
     2  C   -0.073971   0.045386
     3  C   -0.240569   0.451928
     4  C   -0.240544   0.451883
     5  C   -0.073964   0.045356
     6  C   -0.075939   0.011884
     7  Cl  -0.109536  -0.009162
     8  Cl  -0.109539  -0.009160
 Charge=             -1.0000 electrons
 Dipole moment (field-independent basis, Debye):
    X=             -3.5194    Y=             -6.0951    Z=              0.0000  Tot=              7.0382
 N-N= 1.994607519287D+02 E-N=-2.841542931612D+02  KE=-9.151889908320D+01
 Symmetry A'   KE=-7.106590227813D+01
 Symmetry A"   KE=-2.045299680506D+01
 Symmetry A'   SP= 1.000000000000D+00
 Symmetry A"   SP= 3.996802888651D-15
 Calling FoFJK, ICntrl=      2127 FMM=F ISym2X=1 I1Cent= 0 IOpClX= 1 NMat=1 NMatS=1 NMatT=0.
 ***** Axes restored to original set *****
 -------------------------------------------------------------------
 Center     Atomic                   Forces (Hartrees/Bohr)
 Number     Number              X              Y              Z
 -------------------------------------------------------------------
      1        6          -0.001759072    0.024966411   -0.000000000
      2        6           0.028692147    0.033576313    0.000000000
      3        6          -0.001028583   -0.018130710    0.000000000
      4        6          -0.002022585    0.018045210   -0.000000000
      5        6           0.030501135   -0.031959538   -0.000000000
      6        6          -0.000390376   -0.025020093    0.000000000
      7       17           0.023872144    0.012310932    0.000000000
      8       17           0.024515952   -0.010984117   -0.000000000
      9        1          -0.050833887    0.027202732    0.000000000
     10        1          -0.003590786    0.089079599    0.000000000
     11        1           0.001305389   -0.089135706   -0.000000000
     12        1          -0.049261478   -0.029951031    0.000000000
 -------------------------------------------------------------------
 Cartesian Forces:  Max     0.089135706 RMS     0.028771278

 GradGradGradGradGradGradGradGradGradGradGradGradGradGradGradGradGradGrad
 Berny optimization.
 FormGI is forming the generalized inverse of G from B-inverse, IUseBI=4.
 Internal  Forces:  Max     0.089144616 RMS     0.027290115
 Search for a local minimum.
 Step number   1 out of a maximum of   64
 All quantities printed in internal units (Hartrees-Bohrs-Radians)
 Mixed Optimization -- RFO/linear search
 Second derivative matrix not updated -- first step.
 ITU=  0
     Eigenvalues ---    0.02011   0.02011   0.02011   0.02011   0.02011
     Eigenvalues ---    0.02011   0.02011   0.02011   0.02011   0.06524
     Eigenvalues ---    0.06524   0.06524   0.06524   0.16000   0.16000
     Eigenvalues ---    0.16000   0.16000   0.22000   0.22493   0.24487
     Eigenvalues ---    0.25000   0.25000   0.29033   0.29033   0.40787
     Eigenvalues ---    0.40956   0.44656   0.44657   0.44657   0.44657
 RFO step:  Lambda=-1.40956826D-01 EMin= 2.01065826D-02
 Linear search not attempted -- first point.
 Maximum step size (   0.300) exceeded in Quadratic search.
    -- Step size scaled by   0.391
 Iteration  1 RMS(Cart)=  0.05149108 RMS(Int)=  0.00006655
 Iteration  2 RMS(Cart)=  0.00013948 RMS(Int)=  0.00001550
 Iteration  3 RMS(Cart)=  0.00000001 RMS(Int)=  0.00001550
 ClnCor:  largest displacement from symmetrization is 4.77D-10 for atom     7.
 Variable       Old X    -DE/DX   Delta X   Delta X   Delta X     New X
                                 (Linear)    (Quad)   (Total)
    R1        2.65676  -0.03329   0.00000  -0.02154  -0.02155   2.63521
    R2        2.65677  -0.01317   0.00000  -0.00749  -0.00751   2.64925
    R3        3.33635  -0.02679   0.00000  -0.02431  -0.02431   3.31204
    R4        2.65677  -0.05960   0.00000  -0.04035  -0.04033   2.61643
    R5        3.33634  -0.08914   0.00000  -0.16919  -0.16919   3.16715
    R6        2.65677  -0.07653   0.00000  -0.05226  -0.05223   2.60453
    R7        3.33633  -0.05765   0.00000  -0.10943  -0.10943   3.22691
    R8        2.65678  -0.05960   0.00000  -0.04035  -0.04033   2.61644
    R9        3.33633  -0.05765   0.00000  -0.10943  -0.10943   3.22690
   R10        2.65675  -0.03328   0.00000  -0.02153  -0.02154   2.63521
   R11        3.33632  -0.08914   0.00000  -0.16920  -0.16920   3.16712
   R12        3.33633  -0.02678   0.00000  -0.02431  -0.02431   3.31203
    A1        2.09439  -0.01355   0.00000  -0.01088  -0.01092   2.08347
    A2        2.09439   0.00342   0.00000   0.00208   0.00210   2.09650
    A3        2.09440   0.01013   0.00000   0.00880   0.00882   2.10322
    A4        2.09439   0.00761   0.00000   0.00795   0.00795   2.10234
    A5        2.09440  -0.00571   0.00000  -0.00645  -0.00645   2.08794
    A6        2.09439  -0.00190   0.00000  -0.00149  -0.00149   2.09290
    A7        2.09440   0.00594   0.00000   0.00294   0.00298   2.09737
    A8        2.09440  -0.00343   0.00000  -0.00207  -0.00209   2.09231
    A9        2.09439  -0.00251   0.00000  -0.00087  -0.00089   2.09350
   A10        2.09439   0.00594   0.00000   0.00294   0.00298   2.09737
   A11        2.09440  -0.00251   0.00000  -0.00087  -0.00089   2.09351
   A12        2.09440  -0.00343   0.00000  -0.00207  -0.00209   2.09231
   A13        2.09439   0.00761   0.00000   0.00795   0.00795   2.10234
   A14        2.09439  -0.00190   0.00000  -0.00149  -0.00149   2.09289
   A15        2.09440  -0.00571   0.00000  -0.00645  -0.00645   2.08795
   A16        2.09440  -0.01355   0.00000  -0.01088  -0.01093   2.08347
   A17        2.09439   0.01013   0.00000   0.00880   0.00882   2.10321
   A18        2.09439   0.00342   0.00000   0.00208   0.00211   2.09650
    D1        0.00000   0.00000   0.00000   0.00000   0.00000   0.00000
    D2        3.14159   0.00000   0.00000   0.00000   0.00000   3.14159
    D3        3.14159  -0.00000   0.00000  -0.00000   0.00000   3.14159
    D4        0.00000   0.00000   0.00000   0.00000   0.00000   0.00000
    D5        0.00000  -0.00000   0.00000  -0.00000  -0.00000   0.00000
    D6        3.14159  -0.00000   0.00000  -0.00000   0.00000   3.14159
    D7        3.14159  -0.00000   0.00000  -0.00000   0.00000   3.14159
    D8       -0.00000   0.00000   0.00000   0.00000   0.00000   0.00000
    D9       -0.00000   0.00000   0.00000   0.00000   0.00000   0.00000
   D10        3.14159   0.00000   0.00000   0.00000   0.00000   3.14159
   D11        3.14159   0.00000   0.00000   0.00000   0.00000   3.14159
   D12        0.00000  -0.00000   0.00000  -0.00000   0.00000   0.00000
   D13        0.00000  -0.00000   0.00000  -0.00000  -0.00000   0.00000
   D14        3.14159  -0.00000   0.00000  -0.00000   0.00000   3.14159
   D15        3.14159  -0.00000   0.00000  -0.00000   0.00000   3.14159
   D16       -0.00000  -0.00000   0.00000  -0.00000   0.00000   0.00000
   D17       -0.00000   0.00000   0.00000   0.00000   0.00000   0.00000
   D18        3.14159   0.00000   0.00000   0.00000   0.00000   3.14159
   D19        3.14159  -0.00000   0.00000  -0.00000   0.00000   3.14159
   D20        0.00000  -0.00000   0.00000  -0.00000  -0.00000   0.00000
   D21        0.00000   0.00000   0.00000   0.00000  -0.00000   0.00000
   D22        3.14159   0.00000   0.00000   0.00000   0.00000   3.14159
   D23        3.14159   0.00000   0.00000   0.00000   0.00000   3.14159
   D24       -0.00000  -0.00000   0.00000   0.00000   0.00000   0.00000
         Item               Value     Threshold  Converged?
 Maximum Force            0.089145     0.000450     NO 
 RMS     Force            0.027290     0.000300     NO 
 Maximum Displacement     0.209600     0.001800     NO 
 RMS     Displacement     0.051491     0.001200     NO 
 Predicted change in Energy=-5.071519D-02
 GradGradGradGradGradGradGradGradGradGradGradGradGradGradGradGradGradGrad

                          Input orientation:                          
 ---------------------------------------------------------------------
 Center     Atomic      Atomic             Coordinates (Angstroms)
 Number     Number       Type             X           Y           Z
 ---------------------------------------------------------------------
      1          6           0       -3.196999    0.197778    0.000000
      2          6           0       -2.001028    0.914904   -0.000000
      3          6           0       -0.785376    0.252191   -0.000000
      4          6           0       -0.747525   -1.125548   -0.000000
      5          6           0       -1.924966   -1.854002   -0.000000
      6          6           0       -3.158499   -1.203617    0.000000
      7         17           0       -4.643549   -2.134427    0.000000
      8         17           0       -4.730917    1.045657    0.000000
      9          1           0        0.754912   -1.937083   -0.000000
     10          1           0       -1.871443   -3.529115   -0.000000
     11          1           0       -2.039556    2.590445   -0.000000
     12          1           0        0.670246    1.144986   -0.000000
 ---------------------------------------------------------------------
                    Distance matrix (angstroms):
                    1          2          3          4          5
     1  C    0.000000
     2  C    1.394495   0.000000
     3  C    2.412237   1.384558   0.000000
     4  C    2.784083   2.394727   1.378259   0.000000
     5  C    2.414098   2.769951   2.394727   1.384563   0.000000
     6  C    1.401924   2.414099   2.784079   2.412238   1.394491
     7  Cl   2.744392   4.035014   4.536678   4.024531   2.733008
     8  Cl   1.752656   2.733018   4.024535   4.536689   4.035020
     9  H    4.491685   3.965985   2.676828   1.707602   2.681166
    10  H    3.955607   4.445908   3.934186   2.653361   1.675967
    11  H    2.657918   1.675983   2.653375   3.934202   4.445924
    12  H    3.981556   2.681164   1.707605   2.676825   3.965987
                    6          7          8          9         10
     6  C    0.000000
     7  Cl   1.752650   0.000000
     8  Cl   2.744400   3.181284   0.000000
     9  H    3.981553   5.402067   6.244282   0.000000
    10  H    2.657904   3.103180   5.394917   3.071206   0.000000
    11  H    3.955621   5.394923   3.103190   5.320484   6.121868
    12  H    4.491684   6.244274   5.402076   3.083231   5.320469
                   11         12
    11  H    0.000000
    12  H    3.071218   0.000000
 Stoichiometry    C6H4Cl2(1-,2)
 Framework group  CS[SG(C6H4Cl2)]
 Deg. of freedom    21
 Full point group                 CS      NOp   2
 Largest Abelian subgroup         CS      NOp   2
 Largest concise Abelian subgroup C1      NOp   1
                         Standard orientation:                         
 ---------------------------------------------------------------------
 Center     Atomic      Atomic             Coordinates (Angstroms)
 Number     Number       Type             X           Y           Z
 ---------------------------------------------------------------------
      1          6           0       -0.032651   -0.700961   -0.000000
      2          6           0        1.182563   -1.384972   -0.000000
      3          6           0        2.379557   -0.689124   -0.000000
      4          6           0        2.379557    0.689135   -0.000000
      5          6           0        1.182554    1.384979   -0.000000
      6          6           0       -0.032652    0.700963    0.000000
      7         17           0       -1.542705    1.590638    0.000000
      8         17           0       -1.542705   -1.590646    0.000000
      9          1           0        3.859140    1.541626   -0.000000
     10          1           0        1.190054    3.060930   -0.000000
     11          1           0        1.190065   -3.060938   -0.000000
     12          1           0        3.859148   -1.541605   -0.000000
 ---------------------------------------------------------------------
 Rotational constants (GHZ):           1.8727893           1.3746382           0.7927530
 Standard basis: VSTO-6G (5D, 7F)
 There are    28 symmetry adapted cartesian basis functions of A'  symmetry.
 There are     8 symmetry adapted cartesian basis functions of A"  symmetry.
 There are    28 symmetry adapted basis functions of A'  symmetry.
 There are     8 symmetry adapted basis functions of A"  symmetry.
    36 basis functions,   216 primitive gaussians,    36 cartesian basis functions
    22 alpha electrons       21 beta electrons
       nuclear repulsion energy       200.8518996089 Hartrees.
 Integral buffers will be    131072 words long.
 Regular integral format.
 Two-electron integral symmetry is turned off.
 Do NDO integrals.
 One-electron integrals computed using PRISM.
 NBasis=    36 RedAO= T EigKep=  1.00D+00  NBF=    28     8
 NBsUse=    36 1.00D-06 EigRej= -1.00D+00 NBFU=    28     8
 Initial guess from the checkpoint file:  "geometry_chks/12ClBzAnionRadical.chk"
 B after Tr=    -0.000000   -0.000000    0.000000
         Rot=    0.866026   -0.000000    0.000000    0.499999 Ang=  60.00 deg.
 Initial guess orbital symmetries:
 Alpha Orbitals:
       Occupied  (A') (A') (A') (A') (A') (A') (A') (A') (A') (A')
                 (A") (A") (A') (A') (A') (A") (A') (A') (A') (A")
                 (A") (A')
       Virtual   (A') (A') (A') (A") (A") (A') (A') (A") (A') (A')
                 (A') (A') (A') (A')
 Beta  Orbitals:
       Occupied  (A') (A') (A') (A') (A') (A') (A') (A') (A') (A')
                 (A") (A") (A') (A') (A") (A') (A') (A") (A') (A')
                 (A")
       Virtual   (A") (A") (A') (A') (A') (A') (A') (A') (A") (A')
                 (A') (A') (A') (A') (A')
 Initial guess <Sx>= 0.0000 <Sy>= 0.0000 <Sz>= 0.5000 <S**2>= 1.5547 S= 0.8434
 Keep J ints in memory in canonical form, NReq=862905.
 Overlap will be assumed to be unity.
 Requested convergence on RMS density matrix=1.00D-08 within**** cycles.
 Requested convergence on MAX density matrix=1.00D-06.
 Requested convergence on             energy=1.00D-06.
 No special actions if energy rises.
 Fock symm off for IB=2 I1=    1 I=   29 J=   18 Cut=1.00D-07 Err=6.53D-03
 Fock matrix is not symmetric: symmetry in diagonalization turned off.
 SCF Done:  E(UAM1) =  0.412021646558     A.U. after   40 cycles
            NFock= 39  Conv=0.93D-08     -V/T= 1.0045
 <Sx>= 0.0000 <Sy>= 0.0000 <Sz>= 0.5000 <S**2>= 1.0857 S= 0.6557
 <L.S>=  0.00000000000    
 Annihilation of the first spin contaminant:
 S**2 before annihilation     1.0857,   after     0.8226
 Calling FoFJK, ICntrl=      2127 FMM=F ISym2X=1 I1Cent= 0 IOpClX= 1 NMat=1 NMatS=1 NMatT=0.
 ***** Axes restored to original set *****
 -------------------------------------------------------------------
 Center     Atomic                   Forces (Hartrees/Bohr)
 Number     Number              X              Y              Z
 -------------------------------------------------------------------
      1        6          -0.011352996    0.020785582   -0.000000000
      2        6           0.017920116    0.085394928   -0.000000000
      3        6           0.027707044    0.006769528   -0.000000000
      4        6           0.028032393   -0.005237577   -0.000000000
      5        6           0.022587841   -0.084287033    0.000000000
      6        6          -0.010197078   -0.021374230   -0.000000000
      7       17           0.018169034    0.009831957   -0.000000000
      8       17           0.018684856   -0.008821441   -0.000000000
      9        1          -0.054645194    0.029340557    0.000000000
     10        1          -0.005018522    0.110762197    0.000000000
     11        1           0.001070149   -0.110864575    0.000000000
     12        1          -0.052957641   -0.032299893    0.000000000
 -------------------------------------------------------------------
 Cartesian Forces:  Max     0.110864575 RMS     0.037679384

 GradGradGradGradGradGradGradGradGradGradGradGradGradGradGradGradGradGrad
 Berny optimization.
 Using GEDIIS/GDIIS optimizer.
 FormGI is forming the generalized inverse of G from B-inverse, IUseBI=4.
 Internal  Forces:  Max     0.110865970 RMS     0.026173996
 Search for a local minimum.
 Step number   2 out of a maximum of   64
 All quantities printed in internal units (Hartrees-Bohrs-Radians)
 Mixed Optimization -- RFO/linear search
 Update second derivatives using D2CorX and points    1    2
 DE= -5.67D-02 DEPred=-5.07D-02 R= 1.12D+00
 TightC=F SS=  1.41D+00  RLast= 3.00D-01 DXNew= 5.0454D-01 9.0000D-01
 Trust test= 1.12D+00 RLast= 3.00D-01 DXMaxT set to 5.05D-01
 ITU=  1  0
 Use linear search instead of GDIIS.
     Eigenvalues ---   -2.09430   0.00319   0.02011   0.02011   0.02011
     Eigenvalues ---    0.02011   0.02011   0.02011   0.02011   0.02011
     Eigenvalues ---    0.02011   0.06524   0.06524   0.07130   0.15993
     Eigenvalues ---    0.16000   0.16000   0.16001   0.22000   0.22759
     Eigenvalues ---    0.24475   0.25000   0.25032   0.29033   0.29339
     Eigenvalues ---    0.40686   0.41265   0.44655   0.44657   0.44657
 RFO step:  Lambda=-2.09446041D+00 EMin=-2.09430388D+00
 I=     1 Eig=   -2.09D+00 Dot1= -1.08D-02
 I=     1 Stepn= -6.00D-01 RXN=   6.00D-01 EDone=F
 Mixed    1 eigenvectors in step.  Raw Step.Grad=  1.08D-02.
 RFO eigenvector is Hessian eigenvector with negative curvature.
 Taking step of  6.00D-01 in eigenvector direction(s).  Step.Grad= -1.54D-02.
 Skip linear search -- no minimum in search direction.
 Maximum step size (   0.505) exceeded in Quadratic search.
    -- Step size not scaled.
 Iteration  1 RMS(Cart)=  0.07835374 RMS(Int)=  0.01568188
 Iteration  2 RMS(Cart)=  0.02256656 RMS(Int)=  0.00054580
 Iteration  3 RMS(Cart)=  0.00011135 RMS(Int)=  0.00053822
 Iteration  4 RMS(Cart)=  0.00000003 RMS(Int)=  0.00053822
 ClnCor:  largest displacement from symmetrization is 6.01D-09 for atom     9.
 Variable       Old X    -DE/DX   Delta X   Delta X   Delta X     New X
                                 (Linear)    (Quad)   (Total)
    R1        2.63521  -0.01264   0.00000   0.16329   0.16281   2.79803
    R2        2.64925  -0.00041   0.00000   0.09892   0.09801   2.74726
    R3        3.31204  -0.02062   0.00000   0.05518   0.05518   3.36722
    R4        2.61643  -0.02937   0.00000   0.24206   0.24251   2.85894
    R5        3.16715  -0.11086   0.00000  -0.18444  -0.18444   2.98271
    R6        2.60453  -0.03864   0.00000   0.30393   0.30484   2.90937
    R7        3.22691  -0.06203   0.00000  -0.03306  -0.03306   3.19385
    R8        2.61644  -0.02937   0.00000   0.24206   0.24250   2.85895
    R9        3.22690  -0.06202   0.00000  -0.03297  -0.03297   3.19393
   R10        2.63521  -0.01264   0.00000   0.16328   0.16279   2.79800
   R11        3.16712  -0.11087   0.00000  -0.18444  -0.18444   2.98268
   R12        3.31203  -0.02062   0.00000   0.05517   0.05517   3.36720
    A1        2.08347  -0.00801   0.00000   0.04747   0.04600   2.12947
    A2        2.09650   0.00182   0.00000  -0.01347  -0.01274   2.08376
    A3        2.10322   0.00619   0.00000  -0.03400  -0.03326   2.06995
    A4        2.10234   0.00391   0.00000  -0.03198  -0.03200   2.07034
    A5        2.08794  -0.00430   0.00000   0.01259   0.01260   2.10055
    A6        2.09290   0.00038   0.00000   0.01939   0.01940   2.11230
    A7        2.09737   0.00410   0.00000  -0.01549  -0.01400   2.08338
    A8        2.09231  -0.00230   0.00000   0.00962   0.00887   2.10118
    A9        2.09350  -0.00180   0.00000   0.00587   0.00512   2.09863
   A10        2.09737   0.00410   0.00000  -0.01551  -0.01402   2.08335
   A11        2.09351  -0.00180   0.00000   0.00588   0.00513   2.09864
   A12        2.09231  -0.00230   0.00000   0.00963   0.00888   2.10119
   A13        2.10234   0.00392   0.00000  -0.03197  -0.03199   2.07035
   A14        2.09289   0.00038   0.00000   0.01938   0.01939   2.11229
   A15        2.08795  -0.00430   0.00000   0.01258   0.01260   2.10055
   A16        2.08347  -0.00801   0.00000   0.04747   0.04601   2.12948
   A17        2.10321   0.00619   0.00000  -0.03400  -0.03327   2.06994
   A18        2.09650   0.00182   0.00000  -0.01347  -0.01274   2.08376
    D1        0.00000   0.00000   0.00000  -0.00000  -0.00000   0.00000
    D2        3.14159   0.00000   0.00000  -0.00000   0.00000   3.14159
    D3        3.14159  -0.00000   0.00000  -0.00000   0.00000   3.14159
    D4       -0.00000   0.00000   0.00000   0.00000   0.00000   0.00000
    D5       -0.00000   0.00000   0.00000   0.00000   0.00000   0.00000
    D6        3.14159  -0.00000   0.00000   0.00000   0.00000   3.14159
    D7        3.14159   0.00000   0.00000   0.00000   0.00000   3.14159
    D8       -0.00000   0.00000   0.00000  -0.00000   0.00000   0.00000
    D9       -0.00000  -0.00000   0.00000  -0.00000   0.00000   0.00000
   D10        3.14159   0.00000   0.00000   0.00000   0.00000   3.14159
   D11        3.14159  -0.00000   0.00000  -0.00000   0.00000   3.14159
   D12        0.00000  -0.00000   0.00000  -0.00000  -0.00000   0.00000
   D13        0.00000  -0.00000   0.00000   0.00000  -0.00000   0.00000
   D14        3.14159   0.00000   0.00000   0.00000   0.00000   3.14159
   D15        3.14159  -0.00000   0.00000   0.00000   0.00000   3.14159
   D16       -0.00000  -0.00000   0.00000   0.00000   0.00000   0.00000
   D17       -0.00000   0.00000   0.00000  -0.00000   0.00000   0.00000
   D18        3.14159   0.00000   0.00000  -0.00000   0.00000   3.14159
   D19        3.14159  -0.00000   0.00000   0.00000   0.00000   3.14159
   D20        0.00000   0.00000   0.00000   0.00000  -0.00000   0.00000
   D21        0.00000  -0.00000   0.00000  -0.00000  -0.00000   0.00000
   D22        3.14159   0.00000   0.00000  -0.00000   0.00000   3.14159
   D23        3.14159  -0.00000   0.00000  -0.00000   0.00000   3.14159
   D24       -0.00000  -0.00000   0.00000  -0.00000   0.00000   0.00000
         Item               Value     Threshold  Converged?
 Maximum Force            0.110866     0.000450     NO 
 RMS     Force            0.026174     0.000300     NO 
 Maximum Displacement     0.239742     0.001800     NO 
 RMS     Displacement     0.095427     0.001200     NO 
 Predicted change in Energy=-3.877265D-01
 GradGradGradGradGradGradGradGradGradGradGradGradGradGradGradGradGradGrad

                          Input orientation:                          
 ---------------------------------------------------------------------
 Center     Atomic      Atomic             Coordinates (Angstroms)
 Number     Number       Type             X           Y           Z
 ---------------------------------------------------------------------
      1          6           0       -3.243888    0.222434    0.000000
      2          6           0       -2.010387    1.041460   -0.000000
      3          6           0       -0.672053    0.335991   -0.000000
      4          6           0       -0.629764   -1.203002   -0.000000
      5          6           0       -1.927362   -1.980868   -0.000000
      6          6           0       -3.203957   -1.230805    0.000000
      7         17           0       -4.744383   -2.126383    0.000000
      8         17           0       -4.831168    1.032092    0.000000
      9          1           0        0.853180   -2.013862   -0.000000
     10          1           0       -1.929673   -3.559235   -0.000000
     11          1           0       -2.099351    2.617332   -0.000000
     12          1           0        0.764106    1.227015   -0.000000
 ---------------------------------------------------------------------
                    Distance matrix (angstroms):
                    1          2          3          4          5
     1  C    0.000000
     2  C    1.480651   0.000000
     3  C    2.574341   1.512886   0.000000
     4  C    2.977501   2.635096   1.539574   0.000000
     5  C    2.566667   3.023469   2.635079   1.512890   0.000000
     6  C    1.453787   2.566671   2.977481   2.574343   1.480638
     7  Cl   2.787189   4.184491   4.758903   4.216956   2.820776
     8  Cl   1.781854   2.820796   4.216965   4.758933   4.184497
     9  H    4.667652   4.187482   2.801454   1.690152   2.780737
    10  H    4.003521   4.601403   4.093214   2.691021   1.578368
    11  H    2.654336   1.578381   2.691040   4.093243   4.601416
    12  H    4.131973   2.780691   1.690111   2.801403   4.187423
                    6          7          8          9         10
     6  C    0.000000
     7  Cl   1.781844   0.000000
     8  Cl   2.787206   3.159667   0.000000
     9  H    4.132014   5.598693   6.449003   0.000000
    10  H    2.654314   3.158426   5.431294   3.183151   0.000000
    11  H    4.003537   5.431300   3.158450   5.492303   6.178897
    12  H    4.667591   6.448932   5.598668   3.242100   5.492234
                   11         12
    11  H    0.000000
    12  H    3.183138   0.000000
 Stoichiometry    C6H4Cl2(1-,2)
 Framework group  CS[SG(C6H4Cl2)]
 Deg. of freedom    21
 Full point group                 CS      NOp   2
 Largest Abelian subgroup         CS      NOp   2
 Largest concise Abelian subgroup C1      NOp   1
                         Standard orientation:                         
 ---------------------------------------------------------------------
 Center     Atomic      Atomic             Coordinates (Angstroms)
 Number     Number       Type             X           Y           Z
 ---------------------------------------------------------------------
      1          6           0       -0.043931   -0.726894   -0.000000
      2          6           0        1.211600   -1.511731   -0.000000
      3          6           0        2.530052   -0.769769   -0.000000
      4          6           0        2.530054    0.769806    0.000000
      5          6           0        1.211580    1.511738    0.000000
      6          6           0       -0.043931    0.726894    0.000000
      7         17           0       -1.608374    1.579823    0.000000
      8         17           0       -1.608374   -1.579843   -0.000000
      9          1           0        3.990167    1.621091    0.000000
     10          1           0        1.165918    3.089445    0.000000
     11          1           0        1.165953   -3.089451   -0.000000
     12          1           0        3.990143   -1.621009   -0.000000
 ---------------------------------------------------------------------
 Rotational constants (GHZ):           1.7995132           1.2526867           0.7385579
 Standard basis: VSTO-6G (5D, 7F)
 There are    28 symmetry adapted cartesian basis functions of A'  symmetry.
 There are     8 symmetry adapted cartesian basis functions of A"  symmetry.
 There are    28 symmetry adapted basis functions of A'  symmetry.
 There are     8 symmetry adapted basis functions of A"  symmetry.
    36 basis functions,   216 primitive gaussians,    36 cartesian basis functions
    22 alpha electrons       21 beta electrons
       nuclear repulsion energy       195.8863001658 Hartrees.
 Integral buffers will be    131072 words long.
 Regular integral format.
 Two-electron integral symmetry is turned off.
 Do NDO integrals.
 One-electron integrals computed using PRISM.
 NBasis=    36 RedAO= T EigKep=  1.00D+00  NBF=    28     8
 NBsUse=    36 1.00D-06 EigRej= -1.00D+00 NBFU=    28     8
 Initial guess from the checkpoint file:  "geometry_chks/12ClBzAnionRadical.chk"
 B after Tr=     0.000000   -0.000000    0.000000
         Rot=    1.000000    0.000000   -0.000000   -0.000001 Ang=  -0.00 deg.
 Initial guess orbital symmetries:
 Alpha Orbitals:
       Occupied  (A') (A') (A') (A') (A') (A') (A') (A') (A') (A')
                 (A") (A") (A') (A') (A') (A") (A') (A') (A') (A")
                 (A") (A')
       Virtual   (A') (A') (A') (A") (A") (A') (A') (A") (A') (A')
                 (A') (A') (A') (A')
 Beta  Orbitals:
       Occupied  (A') (A') (A') (A') (A') (A') (A') (A') (A') (A')
                 (A") (A") (A') (A') (A') (A") (A') (A") (A') (A')
                 (A")
       Virtual   (A") (A') (A") (A') (A') (A') (A') (A') (A") (A')
                 (A') (A') (A') (A') (A')
 Initial guess <Sx>= 0.0000 <Sy>= 0.0000 <Sz>= 0.5000 <S**2>= 1.0857 S= 0.6557
 Keep J ints in memory in canonical form, NReq=862905.
 Overlap will be assumed to be unity.
 Requested convergence on RMS density matrix=1.00D-08 within**** cycles.
 Requested convergence on MAX density matrix=1.00D-06.
 Requested convergence on             energy=1.00D-06.
 No special actions if energy rises.
 Fock symm off for IB=2 I1=    1 I=   29 J=   22 Cut=1.00D-07 Err=8.81D-03
 Fock matrix is not symmetric: symmetry in diagonalization turned off.
 SCF Done:  E(UAM1) =  0.477710380822     A.U. after   34 cycles
            NFock= 33  Conv=0.54D-08     -V/T= 1.0052
 <Sx>= 0.0000 <Sy>= 0.0000 <Sz>= 0.5000 <S**2>= 0.8898 S= 0.5676
 <L.S>=  0.00000000000    
 Annihilation of the first spin contaminant:
 S**2 before annihilation     0.8898,   after     0.7515
 Calling FoFJK, ICntrl=      2127 FMM=F ISym2X=1 I1Cent= 0 IOpClX= 1 NMat=1 NMatS=1 NMatT=0.
 ***** Axes restored to original set *****
 -------------------------------------------------------------------
 Center     Atomic                   Forces (Hartrees/Bohr)
 Number     Number              X              Y              Z
 -------------------------------------------------------------------
      1        6           0.054303578   -0.003023575   -0.000000000
      2        6           0.038013219   -0.014553654   -0.000000000
      3        6          -0.069977064   -0.058891696    0.000000000
      4        6          -0.073110918    0.054960027   -0.000000000
      5        6           0.037170246    0.016608359   -0.000000000
      6        6           0.054048700    0.006007381   -0.000000000
      7       17           0.034251959    0.015782610    0.000000000
      8       17           0.035070476   -0.013880968   -0.000000000
      9        1          -0.058738560    0.034046501    0.000000000
     10        1          -0.000553041    0.124600233    0.000000000
     11        1           0.006289348   -0.124443708    0.000000000
     12        1          -0.056767943   -0.037211510    0.000000000
 -------------------------------------------------------------------
 Cartesian Forces:  Max     0.124600233 RMS     0.043803026

 GradGradGradGradGradGradGradGradGradGradGradGradGradGradGradGradGradGrad
 Berny optimization.
 Using GEDIIS/GDIIS optimizer.
 FormGI is forming the generalized inverse of G from B-inverse, IUseBI=4.
 Internal  Forces:  Max     0.165628970 RMS     0.052329406
 Search for a local minimum.
 Step number   3 out of a maximum of   64
 All quantities printed in internal units (Hartrees-Bohrs-Radians)
 Mixed Optimization -- RFO/linear search
 Update second derivatives using D2CorX and points    1    3    2
 ITU=  0  1  0
 Use linear search instead of GDIIS.
     Eigenvalues ---    0.00251   0.02011   0.02011   0.02011   0.02011
     Eigenvalues ---    0.02011   0.02011   0.02011   0.02011   0.02011
     Eigenvalues ---    0.06524   0.06524   0.06819   0.15974   0.15994
     Eigenvalues ---    0.16000   0.16000   0.22000   0.22248   0.24524
     Eigenvalues ---    0.25000   0.25015   0.28478   0.29033   0.35980
     Eigenvalues ---    0.41246   0.44574   0.44654   0.44657   0.61258
 RFO step:  Lambda=-1.79928906D-01 EMin= 2.50645538D-03
 Quartic linear search produced a step of -0.94283.
 Maximum step size (   0.505) exceeded in Quadratic search.
    -- Step size scaled by   0.523
 Iteration  1 RMS(Cart)=  0.11608418 RMS(Int)=  0.01782670
 Iteration  2 RMS(Cart)=  0.02624019 RMS(Int)=  0.00015202
 Iteration  3 RMS(Cart)=  0.00018081 RMS(Int)=  0.00007488
 Iteration  4 RMS(Cart)=  0.00000002 RMS(Int)=  0.00007488
 ClnCor:  largest displacement from symmetrization is 2.66D-08 for atom     8.
 Variable       Old X    -DE/DX   Delta X   Delta X   Delta X     New X
                                 (Linear)    (Quad)   (Total)
    R1        2.79803  -0.11094  -0.15350   0.00400  -0.14957   2.64846
    R2        2.74726  -0.08647  -0.09241   0.02048  -0.07206   2.67520
    R3        3.36722  -0.03755  -0.05202  -0.03938  -0.09140   3.27581
    R4        2.85894  -0.14854  -0.22864  -0.01908  -0.24766   2.61128
    R5        2.98271  -0.12460   0.17390  -0.30306  -0.12916   2.85355
    R6        2.90937  -0.16563  -0.28742  -0.03158  -0.31886   2.59051
    R7        3.19385  -0.06786   0.03117  -0.17972  -0.14856   3.04529
    R8        2.85895  -0.14854  -0.22864  -0.01909  -0.24766   2.61129
    R9        3.19393  -0.06787   0.03109  -0.17971  -0.14862   3.04531
   R10        2.79800  -0.11093  -0.15349   0.00401  -0.14954   2.64846
   R11        2.98268  -0.12460   0.17389  -0.30308  -0.12919   2.85350
   R12        3.36720  -0.03754  -0.05202  -0.03937  -0.09139   3.27581
    A1        2.12947  -0.01459  -0.04337  -0.01244  -0.05602   2.07345
    A2        2.08376   0.00129   0.01201   0.00206   0.01417   2.09793
    A3        2.06995   0.01331   0.03136   0.01039   0.04185   2.11181
    A4        2.07034   0.00697   0.03017   0.00924   0.03942   2.10975
    A5        2.10055  -0.00458  -0.01188  -0.01082  -0.02270   2.07784
    A6        2.11230  -0.00239  -0.01829   0.00158  -0.01671   2.09559
    A7        2.08338   0.00762   0.01320   0.00321   0.01661   2.09998
    A8        2.10118  -0.00111  -0.00837  -0.00330  -0.01176   2.08942
    A9        2.09863  -0.00651  -0.00483   0.00009  -0.00484   2.09378
   A10        2.08335   0.00763   0.01322   0.00320   0.01662   2.09997
   A11        2.09864  -0.00652  -0.00484   0.00009  -0.00485   2.09379
   A12        2.10119  -0.00111  -0.00837  -0.00329  -0.01177   2.08942
   A13        2.07035   0.00697   0.03016   0.00924   0.03941   2.10976
   A14        2.11229  -0.00239  -0.01829   0.00158  -0.01671   2.09558
   A15        2.10055  -0.00458  -0.01188  -0.01082  -0.02270   2.07785
   A16        2.12948  -0.01460  -0.04338  -0.01245  -0.05603   2.07345
   A17        2.06994   0.01331   0.03137   0.01039   0.04186   2.11180
   A18        2.08376   0.00129   0.01201   0.00206   0.01417   2.09793
    D1       -0.00000   0.00000   0.00000   0.00000   0.00000   0.00000
    D2        3.14159   0.00000   0.00000   0.00000   0.00000   3.14159
    D3        3.14159  -0.00000   0.00000  -0.00000   0.00000   3.14159
    D4        0.00000   0.00000   0.00000   0.00000  -0.00000   0.00000
    D5        0.00000  -0.00000   0.00000  -0.00000  -0.00000   0.00000
    D6        3.14159  -0.00000   0.00000  -0.00000   0.00000   3.14159
    D7        3.14159   0.00000   0.00000  -0.00000   0.00000   3.14159
    D8       -0.00000  -0.00000   0.00000   0.00000   0.00000   0.00000
    D9        0.00000   0.00000   0.00000   0.00000   0.00000   0.00000
   D10        3.14159   0.00000   0.00000   0.00000   0.00000   3.14159
   D11        3.14159  -0.00000   0.00000  -0.00000   0.00000   3.14159
   D12        0.00000  -0.00000   0.00000  -0.00000  -0.00000   0.00000
   D13        0.00000  -0.00000   0.00000  -0.00000  -0.00000   0.00000
   D14        3.14159   0.00000   0.00000   0.00000   0.00000   3.14159
   D15        3.14159  -0.00000   0.00000  -0.00000   0.00000   3.14159
   D16       -0.00000   0.00000   0.00000  -0.00000   0.00000   0.00000
   D17        0.00000   0.00000   0.00000   0.00000  -0.00000   0.00000
   D18        3.14159   0.00000   0.00000   0.00000   0.00000   3.14159
   D19        3.14159  -0.00000   0.00000  -0.00000   0.00000   3.14159
   D20        0.00000   0.00000   0.00000  -0.00000   0.00000   0.00000
   D21       -0.00000  -0.00000   0.00000   0.00000   0.00000   0.00000
   D22        3.14159   0.00000   0.00000   0.00000   0.00000   3.14159
   D23        3.14159  -0.00000   0.00000   0.00000   0.00000   3.14159
   D24        0.00000  -0.00000   0.00000  -0.00000  -0.00000   0.00000
         Item               Value     Threshold  Converged?
 Maximum Force            0.165629     0.000450     NO 
 RMS     Force            0.052329     0.000300     NO 
 Maximum Displacement     0.374910     0.001800     NO 
 RMS     Displacement     0.137911     0.001200     NO 
 Predicted change in Energy=-8.456921D-02
 GradGradGradGradGradGradGradGradGradGradGradGradGradGradGradGradGradGrad

                          Input orientation:                          
 ---------------------------------------------------------------------
 Center     Atomic      Atomic             Coordinates (Angstroms)
 Number     Number       Type             X           Y           Z
 ---------------------------------------------------------------------
      1          6           0       -3.194383    0.204718    0.000000
      2          6           0       -1.985240    0.913369   -0.000000
      3          6           0       -0.773710    0.248800   -0.000000
      4          6           0       -0.736059   -1.121525   -0.000000
      5          6           0       -1.909282   -1.851601   -0.000000
      6          6           0       -3.155506   -1.210402    0.000000
      7         17           0       -4.616354   -2.143614    0.000000
      8         17           0       -4.704263    1.056323    0.000000
      9          1           0        0.681612   -1.887792   -0.000000
     10          1           0       -1.861185   -3.360841   -0.000000
     11          1           0       -2.020078    2.423000   -0.000000
     12          1           0        0.599748    1.091735   -0.000000
 ---------------------------------------------------------------------
                    Distance matrix (angstroms):
                    1          2          3          4          5
     1  C    0.000000
     2  C    1.401503   0.000000
     3  C    2.421073   1.381830   0.000000
     4  C    2.793255   2.387727   1.370841   0.000000
     5  C    2.424857   2.766013   2.387720   1.381833   0.000000
     6  C    1.415654   2.424855   2.793245   2.421078   1.401503
     7  Cl   2.745299   4.033350   4.526539   4.012649   2.722777
     8  Cl   1.733485   2.722779   4.012647   4.526551   4.033354
     9  H    4.404762   3.867635   2.585147   1.611508   2.591147
    10  H    3.806656   4.276010   3.769895   2.506082   1.510006
    11  H    2.509933   1.510034   2.506109   3.769929   4.276037
    12  H    3.896437   2.591134   1.611499   2.585130   3.867616
                    6          7          8          9         10
     6  C    0.000000
     7  Cl   1.733483   0.000000
     8  Cl   2.745303   3.201144   0.000000
     9  H    3.896451   5.304139   6.138034   0.000000
    10  H    2.509912   3.012076   5.253041   2.938654   0.000000
    11  H    3.806679   5.253058   3.012085   5.087441   5.786024
    12  H    4.404743   6.138013   5.304130   2.980651   5.087398
                   11         12
    11  H    0.000000
    12  H    2.938666   0.000000
 Stoichiometry    C6H4Cl2(1-,2)
 Framework group  CS[SG(C6H4Cl2)]
 Deg. of freedom    21
 Full point group                 CS      NOp   2
 Largest Abelian subgroup         CS      NOp   2
 Largest concise Abelian subgroup C1      NOp   1
                         Standard orientation:                         
 ---------------------------------------------------------------------
 Center     Atomic      Atomic             Coordinates (Angstroms)
 Number     Number       Type             X           Y           Z
 ---------------------------------------------------------------------
      1          6           0       -0.090938   -0.703438   -0.000000
      2          6           0        1.091302   -1.456114    0.000000
      3          6           0        2.326472   -0.836589    0.000000
      4          6           0        2.414535    0.531421    0.000000
      5          6           0        1.268980    1.304186    0.000000
      6          6           0        0.000000    0.709292   -0.000000
      7         17           0       -1.425509    1.695642   -0.000000
      8         17           0       -1.631141   -1.498891   -0.000000
      9          1           0        3.859451    1.244988    0.000000
     10          1           0        1.372596    2.810633    0.000000
     11          1           0        1.000921   -2.963440    0.000000
     12          1           0        3.667973   -1.729506    0.000000
 ---------------------------------------------------------------------
 Rotational constants (GHZ):           1.8737159           1.3904340           0.7981491
 Standard basis: VSTO-6G (5D, 7F)
 There are    28 symmetry adapted cartesian basis functions of A'  symmetry.
 There are     8 symmetry adapted cartesian basis functions of A"  symmetry.
 There are    28 symmetry adapted basis functions of A'  symmetry.
 There are     8 symmetry adapted basis functions of A"  symmetry.
    36 basis functions,   216 primitive gaussians,    36 cartesian basis functions
    22 alpha electrons       21 beta electrons
       nuclear repulsion energy       201.7887913839 Hartrees.
 Integral buffers will be    131072 words long.
 Regular integral format.
 Two-electron integral symmetry is turned off.
 Do NDO integrals.
 One-electron integrals computed using PRISM.
 NBasis=    36 RedAO= T EigKep=  1.00D+00  NBF=    28     8
 NBsUse=    36 1.00D-06 EigRej= -1.00D+00 NBFU=    28     8
 Lowest energy guess from the checkpoint file:  "geometry_chks/12ClBzAnionRadical.chk"
 B after Tr=     0.000000   -0.000000    0.000000
         Rot=    0.999484   -0.000000    0.000000    0.032135 Ang=   3.68 deg.
 B after Tr=     0.000000   -0.000000    0.000000
         Rot=    0.999483   -0.000000    0.000000    0.032137 Ang=   3.68 deg.
 Initial guess orbital symmetries:
 Alpha Orbitals:
       Occupied  (A') (A') (A') (A') (A') (A') (A") (A') (A') (A')
                 (A") (A') (A") (A') (A") (A") (A") (A") (A") (A")
                 (A") (A")
       Virtual   (A') (A') (A') (A') (A') (A') (A") (A') (A') (A')
                 (A") (A') (A") (A')
 Beta  Orbitals:
       Occupied  (A') (A') (A') (A') (A") (A') (A') (A') (A') (A')
                 (A') (A") (A') (A") (A') (A") (A") (A") (A") (A")
                 (A")
       Virtual   (A') (A') (A') (A') (A") (A') (A') (A') (A') (A')
                 (A') (A") (A') (A") (A')
 Initial guess <Sx>= 0.0000 <Sy>= 0.0000 <Sz>= 0.5000 <S**2>= 1.0700 S= 0.6489
 Keep J ints in memory in canonical form, NReq=862905.
 Overlap will be assumed to be unity.
 Requested convergence on RMS density matrix=1.00D-08 within**** cycles.
 Requested convergence on MAX density matrix=1.00D-06.
 Requested convergence on             energy=1.00D-06.
 No special actions if energy rises.
 An orbital has undefined symmetry, so N**3 symmetry is turned off.
 SCF Done:  E(UAM1) =  0.313859613244     A.U. after   38 cycles
            NFock= 37  Conv=0.69D-08     -V/T= 1.0034
 <Sx>= 0.0000 <Sy>= 0.0000 <Sz>= 0.5000 <S**2>= 0.8624 S= 0.5547
 <L.S>=  0.00000000000    
 Annihilation of the first spin contaminant:
 S**2 before annihilation     0.8624,   after     0.7515
 Calling FoFJK, ICntrl=      2127 FMM=F ISym2X=1 I1Cent= 0 IOpClX= 1 NMat=1 NMatS=1 NMatT=0.
 ***** Axes restored to original set *****
 -------------------------------------------------------------------
 Center     Atomic                   Forces (Hartrees/Bohr)
 Number     Number              X              Y              Z
 -------------------------------------------------------------------
      1        6           0.001612080    0.000898467    0.000000000
      2        6           0.005622786    0.099204822   -0.000000000
      3        6           0.037085674    0.020012288   -0.000000000
      4        6           0.038126068   -0.017945636   -0.000000000
      5        6           0.011063043   -0.098749436   -0.000000000
      6        6           0.001658651   -0.000807125   -0.000000000
      7       17           0.011242942    0.006571845   -0.000000000
      8       17           0.011587604   -0.005945507    0.000000000
      9        1          -0.058006004    0.031781293    0.000000000
     10        1          -0.005116047    0.116593422    0.000000000
     11        1           0.001293449   -0.116698855    0.000000000
     12        1          -0.056170245   -0.034915578    0.000000000
 -------------------------------------------------------------------
 Cartesian Forces:  Max     0.116698855 RMS     0.040700122

 GradGradGradGradGradGradGradGradGradGradGradGradGradGradGradGradGradGrad
 Berny optimization.
 Using GEDIIS/GDIIS optimizer.
 FormGI is forming the generalized inverse of G from B-inverse, IUseBI=4.
 Internal  Forces:  Max     0.116697634 RMS     0.026707016
 Search for a local minimum.
 Step number   4 out of a maximum of   64
 All quantities printed in internal units (Hartrees-Bohrs-Radians)
 Mixed Optimization -- RFO/linear search
 Update second derivatives using D2CorX and points    2    4
 DE= -9.82D-02 DEPred=-8.46D-02 R= 1.16D+00
 TightC=F SS=  1.41D+00  RLast= 5.17D-01 DXNew= 8.4853D-01 1.5509D+00
 Trust test= 1.16D+00 RLast= 5.17D-01 DXMaxT set to 8.49D-01
 ITU=  1  0  1  0
 Use linear search instead of GDIIS.
     Eigenvalues ---   -0.11481   0.01733   0.02011   0.02011   0.02011
     Eigenvalues ---    0.02011   0.02011   0.02011   0.02011   0.02011
     Eigenvalues ---    0.02011   0.06524   0.06524   0.06871   0.15991
     Eigenvalues ---    0.16000   0.16000   0.16129   0.22000   0.22998
     Eigenvalues ---    0.24464   0.25000   0.25012   0.29033   0.30782
     Eigenvalues ---    0.40673   0.44501   0.44610   0.44657   0.49960
 RFO step:  Lambda=-2.07123943D-01 EMin=-1.14807042D-01
 Skip linear search -- no minimum in search direction.
 Maximum step size (   0.849) exceeded in Quadratic search.
    -- Step size scaled by   0.670
 Iteration  1 RMS(Cart)=  0.05414155 RMS(Int)=  0.05869609
 Iteration  2 RMS(Cart)=  0.04311900 RMS(Int)=  0.01688169
 Iteration  3 RMS(Cart)=  0.01688072 RMS(Int)=  0.00009362
 Iteration  4 RMS(Cart)=  0.00000315 RMS(Int)=  0.00009359
 Iteration  5 RMS(Cart)=  0.00000000 RMS(Int)=  0.00009359
 ClnCor:  largest displacement from symmetrization is 1.04D-08 for atom     9.
 Variable       Old X    -DE/DX   Delta X   Delta X   Delta X     New X
                                 (Linear)    (Quad)   (Total)
    R1        2.64846  -0.01552   0.00000  -0.00223  -0.00215   2.64631
    R2        2.67520  -0.01388   0.00000  -0.08973  -0.08956   2.58563
    R3        3.27581  -0.01301   0.00000   0.04559   0.04559   3.32140
    R4        2.61128  -0.02147   0.00000   0.08440   0.08432   2.69560
    R5        2.85355  -0.11670   0.00000  -0.48567  -0.48567   2.36788
    R6        2.59051  -0.02358   0.00000   0.14945   0.14929   2.73980
    R7        3.04529  -0.06614   0.00000  -0.30082  -0.30082   2.74448
    R8        2.61129  -0.02147   0.00000   0.08442   0.08433   2.69562
    R9        3.04531  -0.06614   0.00000  -0.30103  -0.30103   2.74428
   R10        2.64846  -0.01552   0.00000  -0.00227  -0.00218   2.64628
   R11        2.85350  -0.11670   0.00000  -0.48556  -0.48556   2.36794
   R12        3.27581  -0.01301   0.00000   0.04557   0.04557   3.32138
    A1        2.07345  -0.00161   0.00000   0.05871   0.05897   2.13242
    A2        2.09793  -0.00004   0.00000  -0.01799  -0.01812   2.07981
    A3        2.11181   0.00165   0.00000  -0.04072  -0.04085   2.07096
    A4        2.10975  -0.00037   0.00000  -0.04672  -0.04671   2.06304
    A5        2.07784  -0.00181   0.00000   0.02176   0.02176   2.09960
    A6        2.09559   0.00218   0.00000   0.02495   0.02495   2.12054
    A7        2.09998   0.00198   0.00000  -0.01202  -0.01227   2.08771
    A8        2.08942  -0.00042   0.00000   0.01819   0.01831   2.10773
    A9        2.09378  -0.00156   0.00000  -0.00617  -0.00604   2.08774
   A10        2.09997   0.00198   0.00000  -0.01195  -0.01221   2.08776
   A11        2.09379  -0.00157   0.00000  -0.00621  -0.00608   2.08772
   A12        2.08942  -0.00042   0.00000   0.01816   0.01829   2.10771
   A13        2.10976  -0.00037   0.00000  -0.04674  -0.04674   2.06302
   A14        2.09558   0.00218   0.00000   0.02498   0.02497   2.12056
   A15        2.07785  -0.00181   0.00000   0.02177   0.02177   2.09961
   A16        2.07345  -0.00161   0.00000   0.05872   0.05897   2.13242
   A17        2.11180   0.00165   0.00000  -0.04072  -0.04084   2.07096
   A18        2.09793  -0.00004   0.00000  -0.01800  -0.01813   2.07980
    D1       -0.00000  -0.00000   0.00000  -0.00000   0.00000   0.00000
    D2        3.14159   0.00000   0.00000   0.00000   0.00000   3.14159
    D3        3.14159  -0.00000   0.00000  -0.00000   0.00000   3.14159
    D4        0.00000   0.00000   0.00000   0.00000  -0.00000   0.00000
    D5        0.00000   0.00000   0.00000  -0.00000  -0.00000   0.00000
    D6        3.14159  -0.00000   0.00000  -0.00000   0.00000   3.14159
    D7        3.14159   0.00000   0.00000   0.00000   0.00000   3.14159
    D8       -0.00000  -0.00000   0.00000  -0.00000   0.00000   0.00000
    D9        0.00000  -0.00000   0.00000   0.00000  -0.00000   0.00000
   D10        3.14159   0.00000   0.00000   0.00000   0.00000   3.14159
   D11        3.14159  -0.00000   0.00000  -0.00000   0.00000   3.14159
   D12       -0.00000  -0.00000   0.00000  -0.00000   0.00000   0.00000
   D13       -0.00000   0.00000   0.00000   0.00000   0.00000   0.00000
   D14        3.14159   0.00000   0.00000   0.00000   0.00000   3.14159
   D15        3.14159  -0.00000   0.00000  -0.00000   0.00000   3.14159
   D16        0.00000   0.00000   0.00000   0.00000  -0.00000   0.00000
   D17        0.00000   0.00000   0.00000  -0.00000   0.00000   0.00000
   D18        3.14159   0.00000   0.00000   0.00000   0.00000   3.14159
   D19        3.14159  -0.00000   0.00000  -0.00000   0.00000   3.14159
   D20       -0.00000   0.00000   0.00000   0.00000   0.00000   0.00000
   D21       -0.00000  -0.00000   0.00000   0.00000   0.00000   0.00000
   D22        3.14159   0.00000   0.00000   0.00000   0.00000   3.14159
   D23        3.14159  -0.00000   0.00000  -0.00000   0.00000   3.14159
   D24       -0.00000  -0.00000   0.00000   0.00000   0.00000   0.00000
         Item               Value     Threshold  Converged?
 Maximum Force            0.116698     0.000450     NO 
 RMS     Force            0.026707     0.000300     NO 
 Maximum Displacement     0.400129     0.001800     NO 
 RMS     Displacement     0.096118     0.001200     NO 
 Predicted change in Energy=-1.688272D-01
 GradGradGradGradGradGradGradGradGradGradGradGradGradGradGradGradGradGrad

                          Input orientation:                          
 ---------------------------------------------------------------------
 Center     Atomic      Atomic             Coordinates (Angstroms)
 Number     Number       Type             X           Y           Z
 ---------------------------------------------------------------------
      1          6           0       -3.141285    0.182464   -0.000000
      2          6           0       -1.976950    0.960509   -0.000000
      3          6           0       -0.717987    0.289857   -0.000000
      4          6           0       -0.678196   -1.159437   -0.000000
      5          6           0       -1.898435   -1.898224   -0.000000
      6          6           0       -3.103711   -1.185279   -0.000000
      7         17           0       -4.622281   -2.070203    0.000000
      8         17           0       -4.706163    0.982684    0.000000
      9          1           0        0.603497   -1.842207   -0.000000
     10          1           0       -1.905135   -3.151265   -0.000000
     11          1           0       -2.052436    2.211261   -0.000000
     12          1           0        0.524382    1.042010   -0.000000
 ---------------------------------------------------------------------
                    Distance matrix (angstroms):
                    1          2          3          4          5
     1  C    0.000000
     2  C    1.400368   0.000000
     3  C    2.425677   1.426451   0.000000
     4  C    2.804908   2.486148   1.449840   0.000000
     5  C    2.423621   2.859811   2.486193   1.426461   0.000000
     6  C    1.368259   2.423633   2.804943   2.425653   1.400350
     7  Cl   2.695897   4.022809   4.562170   4.047876   2.729270
     8  Cl   1.757611   2.729303   4.047908   4.562149   4.022806
     9  H    4.257075   3.809715   2.508389   1.452209   2.502559
    10  H    3.555533   4.112401   3.640142   2.339392   1.253059
    11  H    2.302523   1.253028   2.339348   3.640075   4.112370
    12  H    3.765094   2.502660   1.452314   2.508498   3.809858
                    6          7          8          9         10
     6  C    0.000000
     7  Cl   1.757597   0.000000
     8  Cl   2.695907   3.054040   0.000000
     9  H    3.764963   5.230750   6.014358   0.000000
    10  H    2.302539   2.924308   4.993525   2.829641   0.000000
    11  H    3.555512   4.993500   2.924324   4.846090   5.364549
    12  H    4.257214   6.014484   5.230882   2.885302   4.846246
                   11         12
    11  H    0.000000
    12  H    2.829689   0.000000
 Stoichiometry    C6H4Cl2(1-,2)
 Framework group  CS[SG(C6H4Cl2)]
 Deg. of freedom    21
 Full point group                 CS      NOp   2
 Largest Abelian subgroup         CS      NOp   2
 Largest concise Abelian subgroup C1      NOp   1
                         Standard orientation:                         
 ---------------------------------------------------------------------
 Center     Atomic      Atomic             Coordinates (Angstroms)
 Number     Number       Type             X           Y           Z
 ---------------------------------------------------------------------
      1          6           0        0.000000   -0.684166    0.000000
      2          6           0        1.193329   -1.416966    0.000000
      3          6           0        2.425634   -0.698504    0.000000
      4          6           0        2.409791    0.751249    0.000000
      5          6           0        1.162104    1.442675    0.000000
      6          6           0       -0.014930    0.684011    0.000000
      7         17           0       -1.566334    1.510021    0.000000
      8         17           0       -1.533023   -1.543837    0.000000
      9          1           0        3.664344    1.482691    0.000000
     10          1           0        1.107334    2.694536    0.000000
     11          1           0        1.165887   -2.669694    0.000000
     12          1           0        3.695947   -1.402437    0.000000
 ---------------------------------------------------------------------
 Rotational constants (GHZ):           1.9842676           1.3644159           0.8084868
 Standard basis: VSTO-6G (5D, 7F)
 There are    28 symmetry adapted cartesian basis functions of A'  symmetry.
 There are     8 symmetry adapted cartesian basis functions of A"  symmetry.
 There are    28 symmetry adapted basis functions of A'  symmetry.
 There are     8 symmetry adapted basis functions of A"  symmetry.
    36 basis functions,   216 primitive gaussians,    36 cartesian basis functions
    22 alpha electrons       21 beta electrons
       nuclear repulsion energy       202.6512319087 Hartrees.
 Integral buffers will be    131072 words long.
 Regular integral format.
 Two-electron integral symmetry is turned off.
 Do NDO integrals.
 One-electron integrals computed using PRISM.
 NBasis=    36 RedAO= T EigKep=  1.00D+00  NBF=    28     8
 NBsUse=    36 1.00D-06 EigRej= -1.00D+00 NBFU=    28     8
 Initial guess from the checkpoint file:  "geometry_chks/12ClBzAnionRadical.chk"
 B after Tr=    -0.000000    0.000000   -0.000000
         Rot=    0.999293   -0.000000   -0.000000   -0.037586 Ang=  -4.31 deg.
 Initial guess orbital symmetries:
 Alpha Orbitals:
       Occupied  (A') (A') (A') (A') (A') (A') (A') (A') (A') (A')
                 (A") (A") (A') (A') (A') (A') (A") (A') (A') (A")
                 (A") (A')
       Virtual   (A") (A') (A') (A") (A') (A') (A') (A") (A') (A')
                 (A') (A') (A') (A')
 Beta  Orbitals:
[...]
   A16        2.09935  -0.00001  -0.00002   0.00000  -0.00002   2.09933
   A17        2.10976   0.00000   0.00003  -0.00006  -0.00002   2.10974
   A18        2.07407   0.00001  -0.00001   0.00005   0.00004   2.07412
    D1        0.00000   0.00000   0.00000  -0.00000   0.00000   0.00000
    D2        3.14159   0.00000   0.00000  -0.00000   0.00000   3.14159
    D3        3.14159  -0.00000   0.00000   0.00000   0.00000   3.14159
    D4        0.00000  -0.00000   0.00000   0.00000   0.00000   0.00000
    D5        0.00000  -0.00000   0.00000   0.00000   0.00000   0.00000
    D6        3.14159  -0.00000   0.00000   0.00000   0.00000   3.14159
    D7        3.14159   0.00000   0.00000   0.00000   0.00000   3.14159
    D8        0.00000   0.00000   0.00000  -0.00000   0.00000   0.00000
    D9        0.00000  -0.00000   0.00000  -0.00000   0.00000   0.00000
   D10        3.14159   0.00000   0.00000  -0.00000   0.00000   3.14159
   D11        3.14159  -0.00000   0.00000  -0.00000   0.00000   3.14159
   D12        0.00000  -0.00000   0.00000  -0.00000   0.00000   0.00000
   D13        0.00000  -0.00000   0.00000   0.00000   0.00000   0.00000
   D14        3.14159   0.00000   0.00000   0.00000   0.00000   3.14159
   D15        3.14159  -0.00000   0.00000   0.00000   0.00000   3.14159
   D16        0.00000  -0.00000   0.00000   0.00000   0.00000   0.00000
   D17        0.00000   0.00000   0.00000  -0.00000   0.00000   0.00000
   D18        3.14159   0.00000   0.00000  -0.00000   0.00000   3.14159
   D19        3.14159  -0.00000   0.00000  -0.00000   0.00000   3.14159
   D20        0.00000   0.00000   0.00000  -0.00000   0.00000   0.00000
   D21        0.00000  -0.00000   0.00000  -0.00000   0.00000   0.00000
   D22        3.14159   0.00000   0.00000   0.00000   0.00000   3.14159
   D23        3.14159  -0.00000   0.00000  -0.00000   0.00000   3.14159
   D24        0.00000  -0.00000   0.00000   0.00000   0.00000   0.00000
         Item               Value     Threshold  Converged?
 Maximum Force            0.000146     0.000450     YES
 RMS     Force            0.000030     0.000300     YES
 Maximum Displacement     0.000506     0.001800     YES
 RMS     Displacement     0.000104     0.001200     YES
 Predicted change in Energy=-5.248567D-08
 Optimization completed.
    -- Stationary point found.
                           ----------------------------
                           !   Optimized Parameters   !
                           ! (Angstroms and Degrees)  !
 --------------------------                            --------------------------
 ! Name  Definition              Value          Derivative Info.                !
 --------------------------------------------------------------------------------
 ! R1    R(1,2)                  1.4062         -DE/DX =    0.0                 !
 ! R2    R(1,6)                  1.3978         -DE/DX =    0.0001              !
 ! R3    R(1,8)                  1.718          -DE/DX =    0.0                 !
 ! R4    R(2,3)                  1.386          -DE/DX =    0.0001              !
 ! R5    R(2,11)                 1.0989         -DE/DX =    0.0                 !
 ! R6    R(3,4)                  1.3703         -DE/DX =    0.0                 !
 ! R7    R(3,12)                 1.197          -DE/DX =    0.0                 !
 ! R8    R(4,5)                  1.386          -DE/DX =    0.0001              !
 ! R9    R(4,9)                  1.197          -DE/DX =    0.0                 !
 ! R10   R(5,6)                  1.4062         -DE/DX =    0.0                 !
 ! R11   R(5,10)                 1.0989         -DE/DX =    0.0                 !
 ! R12   R(6,7)                  1.718          -DE/DX =    0.0                 !
 ! A1    A(2,1,6)              120.2838         -DE/DX =    0.0                 !
 ! A2    A(2,1,8)              118.835          -DE/DX =    0.0                 !
 ! A3    A(6,1,8)              120.8811         -DE/DX =    0.0                 !
 ! A4    A(1,2,3)              118.2782         -DE/DX =    0.0                 !
 ! A5    A(1,2,11)             119.3846         -DE/DX =    0.0                 !
 ! A6    A(3,2,11)             122.3372         -DE/DX =    0.0                 !
 ! A7    A(2,3,4)              121.4375         -DE/DX =    0.0                 !
 ! A8    A(2,3,12)             117.8247         -DE/DX =    0.0                 !
 ! A9    A(4,3,12)             120.7379         -DE/DX =    0.0                 !
 ! A10   A(3,4,5)              121.4391         -DE/DX =    0.0                 !
 ! A11   A(3,4,9)              120.7326         -DE/DX =    0.0                 !
 ! A12   A(5,4,9)              117.8284         -DE/DX =    0.0                 !
 ! A13   A(4,5,6)              118.2777         -DE/DX =    0.0                 !
 ! A14   A(4,5,10)             122.3387         -DE/DX =    0.0                 !
 ! A15   A(6,5,10)             119.3836         -DE/DX =    0.0                 !
 ! A16   A(1,6,5)              120.2837         -DE/DX =    0.0                 !
 ! A17   A(1,6,7)              120.8806         -DE/DX =    0.0                 !
 ! A18   A(5,6,7)              118.8357         -DE/DX =    0.0                 !
 ! D1    D(6,1,2,3)              0.0            -DE/DX =    0.0                 !
 ! D2    D(6,1,2,11)           180.0            -DE/DX =    0.0                 !
 ! D3    D(8,1,2,3)            180.0            -DE/DX =    0.0                 !
 ! D4    D(8,1,2,11)             0.0            -DE/DX =    0.0                 !
 ! D5    D(2,1,6,5)              0.0            -DE/DX =    0.0                 !
 ! D6    D(2,1,6,7)            180.0            -DE/DX =    0.0                 !
 ! D7    D(8,1,6,5)            180.0            -DE/DX =    0.0                 !
 ! D8    D(8,1,6,7)              0.0            -DE/DX =    0.0                 !
 ! D9    D(1,2,3,4)              0.0            -DE/DX =    0.0                 !
 ! D10   D(1,2,3,12)           180.0            -DE/DX =    0.0                 !
 ! D11   D(11,2,3,4)           180.0            -DE/DX =    0.0                 !
 ! D12   D(11,2,3,12)            0.0            -DE/DX =    0.0                 !
 ! D13   D(2,3,4,5)              0.0            -DE/DX =    0.0                 !
 ! D14   D(2,3,4,9)            180.0            -DE/DX =    0.0                 !
 ! D15   D(12,3,4,5)           180.0            -DE/DX =    0.0                 !
 ! D16   D(12,3,4,9)             0.0            -DE/DX =    0.0                 !
 ! D17   D(3,4,5,6)              0.0            -DE/DX =    0.0                 !
 ! D18   D(3,4,5,10)           180.0            -DE/DX =    0.0                 !
 ! D19   D(9,4,5,6)            180.0            -DE/DX =    0.0                 !
 ! D20   D(9,4,5,10)             0.0            -DE/DX =    0.0                 !
 ! D21   D(4,5,6,1)              0.0            -DE/DX =    0.0                 !
 ! D22   D(4,5,6,7)            180.0            -DE/DX =    0.0                 !
 ! D23   D(10,5,6,1)           180.0            -DE/DX =    0.0                 !
 ! D24   D(10,5,6,7)             0.0            -DE/DX =    0.0                 !
 --------------------------------------------------------------------------------
 GradGradGradGradGradGradGradGradGradGradGradGradGradGradGradGradGradGrad

                          Input orientation:                          
 ---------------------------------------------------------------------
 Center     Atomic      Atomic             Coordinates (Angstroms)
 Number     Number       Type             X           Y           Z
 ---------------------------------------------------------------------
      1          6           0       -3.118247    0.197859   -0.000000
      2          6           0       -1.923841    0.940075   -0.000000
      3          6           0       -0.721914    0.249926   -0.000000
      4          6           0       -0.684301   -1.119824   -0.000000
      5          6           0       -1.846509   -1.874916   -0.000000
      6          6           0       -3.079868   -1.199383   -0.000000
      7         17           0       -4.529563   -2.121305   -0.000000
      8         17           0       -4.616351    1.038821   -0.000000
      9          1           0        0.361007   -1.703061   -0.000000
     10          1           0       -1.833595   -2.973722   -0.000000
     11          1           0       -1.971251    2.037970   -0.000000
     12          1           0        0.289734    0.889731   -0.000000
 ---------------------------------------------------------------------
                    Distance matrix (angstroms):
                    1          2          3          4          5
     1  C    0.000000
     2  C    1.406233   0.000000
     3  C    2.396899   1.385978   0.000000
     4  C    2.767740   2.404089   1.370266   0.000000
     5  C    2.431813   2.816053   2.404094   1.385962   0.000000
     6  C    1.397769   2.431806   2.767751   2.396888   1.406243
     7  Cl   2.714836   4.020178   4.485636   3.973538   2.694344
     8  Cl   1.718003   2.694320   3.973537   4.485618   4.020186
     9  H    3.964683   3.493809   2.233132   1.197011   2.214195
    10  H    3.421878   3.914837   3.409947   2.181241   1.098881
    11  H    2.168320   1.098919   2.181272   3.409972   3.914875
    12  H    3.477503   2.214148   1.196989   2.233172   3.493824
                    6          7          8          9         10
     6  C    0.000000
     7  Cl   1.718009   0.000000
     8  Cl   2.714837   3.161317   0.000000
     9  H    3.477544   4.908422   5.682606   0.000000
    10  H    2.168288   2.827518   4.883055   2.535913   0.000000
    11  H    3.421913   4.883086   2.827517   4.408486   5.013582
    12  H    3.964671   5.682602   4.908350   2.593772   4.408491
                   11         12
    11  H    0.000000
    12  H    2.535845   0.000000
 Stoichiometry    C6H4Cl2(1-,2)
 Framework group  CS[SG(C6H4Cl2)]
 Deg. of freedom    21
 Full point group                 CS      NOp   2
 Largest Abelian subgroup         CS      NOp   2
 Largest concise Abelian subgroup C1      NOp   1
                         Standard orientation:                         
 ---------------------------------------------------------------------
 Center     Atomic      Atomic             Coordinates (Angstroms)
 Number     Number       Type             X           Y           Z
 ---------------------------------------------------------------------
      1          6           0        0.000000   -0.699663    0.000000
      2          6           0        1.246512   -1.350585    0.000000
      3          6           0        2.393528   -0.572581    0.000000
      4          6           0        2.328716    0.796152    0.000000
      5          6           0        1.113351    1.462319    0.000000
      6          6           0       -0.066101    0.696542    0.000000
      7         17           0       -1.580613    1.507596    0.000000
      8         17           0       -1.431099   -1.650183    0.000000
      9          1           0        3.327536    1.455843    0.000000
     10          1           0        1.044148    2.559018    0.000000
     11          1           0        1.281246   -2.448954    0.000000
     12          1           0        3.450142   -1.135029    0.000000
 ---------------------------------------------------------------------
 Rotational constants (GHZ):           1.9336225           1.4377402           0.8246063

 **********************************************************************

            Population analysis using the SCF Density.

 **********************************************************************

 Orbital symmetries:
 Alpha Orbitals:
       Occupied  (A') (A') (A') (A') (A') (A') (A') (A') (A') (A')
                 (A") (A') (A') (A") (A') (A') (A") (A') (A') (A")
                 (A") (A')
       Virtual   (A") (A") (A') (A') (A") (A') (A') (A') (A') (A')
                 (A') (A') (A') (A')
 Beta  Orbitals:
       Occupied  (A') (A') (A') (A') (A') (A') (A') (A') (A') (A')
                 (A") (A') (A') (A") (A') (A') (A") (A') (A') (A")
                 (A")
       Virtual   (A") (A") (A') (A') (A") (A') (A') (A') (A') (A')
                 (A') (A') (A') (A') (A')
 The electronic state is 2-A'.
 Alpha  occ. eigenvalues --   -1.28588  -1.23128  -1.21366  -0.98072  -0.95713
 Alpha  occ. eigenvalues --   -0.69002  -0.67206  -0.50369  -0.43457  -0.43075
 Alpha  occ. eigenvalues --   -0.38861  -0.37143  -0.35797  -0.33119  -0.30571
 Alpha  occ. eigenvalues --   -0.30330  -0.28443  -0.26518  -0.24577  -0.18601
 Alpha  occ. eigenvalues --   -0.17488   0.06643
 Alpha virt. eigenvalues --    0.18018   0.18543   0.19105   0.20340   0.28591
 Alpha virt. eigenvalues --    0.28859   0.30392   0.31989   0.33597   0.33956
 Alpha virt. eigenvalues --    0.34874   0.37100   0.38744   0.41094
  Beta  occ. eigenvalues --   -1.28495  -1.23141  -1.21258  -0.97960  -0.95208
  Beta  occ. eigenvalues --   -0.68668  -0.66848  -0.50133  -0.43153  -0.42799
  Beta  occ. eigenvalues --   -0.38833  -0.37119  -0.34884  -0.33123  -0.30397
  Beta  occ. eigenvalues --   -0.30260  -0.28284  -0.25486  -0.23231  -0.18652
  Beta  occ. eigenvalues --   -0.17118
  Beta virt. eigenvalues --    0.18183   0.18620   0.19185   0.20600   0.28939
  Beta virt. eigenvalues --    0.30191   0.32192   0.33196   0.33836   0.34414
  Beta virt. eigenvalues --    0.36551   0.37261   0.39840   0.41091   0.41790
          Condensed to atoms (all electrons):
               1          2          3          4          5          6
     1  C    4.096294   0.000000   0.000000   0.000000   0.000000   0.000000
     2  C    0.000000   4.146535   0.000000   0.000000   0.000000   0.000000
     3  C    0.000000   0.000000   4.112892   0.000000   0.000000   0.000000
     4  C    0.000000   0.000000   0.000000   4.112932   0.000000   0.000000
     5  C    0.000000   0.000000   0.000000   0.000000   4.146505   0.000000
     6  C    0.000000   0.000000   0.000000   0.000000   0.000000   4.096310
     7  Cl   0.000000   0.000000   0.000000   0.000000   0.000000   0.000000
     8  Cl   0.000000   0.000000   0.000000   0.000000   0.000000   0.000000
     9  H    0.000000   0.000000   0.000000   0.000000   0.000000   0.000000
    10  H    0.000000   0.000000   0.000000   0.000000   0.000000   0.000000
    11  H    0.000000   0.000000   0.000000   0.000000   0.000000   0.000000
    12  H    0.000000   0.000000   0.000000   0.000000   0.000000   0.000000
               7          8          9         10         11         12
     1  C    0.000000   0.000000   0.000000   0.000000   0.000000   0.000000
     2  C    0.000000   0.000000   0.000000   0.000000   0.000000   0.000000
     3  C    0.000000   0.000000   0.000000   0.000000   0.000000   0.000000
     4  C    0.000000   0.000000   0.000000   0.000000   0.000000   0.000000
     5  C    0.000000   0.000000   0.000000   0.000000   0.000000   0.000000
     6  C    0.000000   0.000000   0.000000   0.000000   0.000000   0.000000
     7  Cl   7.103809   0.000000   0.000000   0.000000   0.000000   0.000000
     8  Cl   0.000000   7.103801   0.000000   0.000000   0.000000   0.000000
     9  H    0.000000   0.000000   1.140640   0.000000   0.000000   0.000000
    10  H    0.000000   0.000000   0.000000   0.899789   0.000000   0.000000
    11  H    0.000000   0.000000   0.000000   0.000000   0.899778   0.000000
    12  H    0.000000   0.000000   0.000000   0.000000   0.000000   1.140717
          Atomic-Atomic Spin Densities.
               1          2          3          4          5          6
     1  C    0.011633   0.000000   0.000000   0.000000   0.000000   0.000000
     2  C    0.000000  -0.003396   0.000000   0.000000   0.000000   0.000000
     3  C    0.000000   0.000000   0.160437   0.000000   0.000000   0.000000
     4  C    0.000000   0.000000   0.000000   0.160154   0.000000   0.000000
     5  C    0.000000   0.000000   0.000000   0.000000  -0.003164   0.000000
     6  C    0.000000   0.000000   0.000000   0.000000   0.000000   0.011420
     7  Cl   0.000000   0.000000   0.000000   0.000000   0.000000   0.000000
     8  Cl   0.000000   0.000000   0.000000   0.000000   0.000000   0.000000
     9  H    0.000000   0.000000   0.000000   0.000000   0.000000   0.000000
    10  H    0.000000   0.000000   0.000000   0.000000   0.000000   0.000000
    11  H    0.000000   0.000000   0.000000   0.000000   0.000000   0.000000
    12  H    0.000000   0.000000   0.000000   0.000000   0.000000   0.000000
               7          8          9         10         11         12
     1  C    0.000000   0.000000   0.000000   0.000000   0.000000   0.000000
     2  C    0.000000   0.000000   0.000000   0.000000   0.000000   0.000000
     3  C    0.000000   0.000000   0.000000   0.000000   0.000000   0.000000
     4  C    0.000000   0.000000   0.000000   0.000000   0.000000   0.000000
     5  C    0.000000   0.000000   0.000000   0.000000   0.000000   0.000000
     6  C    0.000000   0.000000   0.000000   0.000000   0.000000   0.000000
     7  Cl  -0.001998   0.000000   0.000000   0.000000   0.000000   0.000000
     8  Cl   0.000000  -0.002006   0.000000   0.000000   0.000000   0.000000
     9  H    0.000000   0.000000   0.322480   0.000000   0.000000   0.000000
    10  H    0.000000   0.000000   0.000000   0.010943   0.000000   0.000000
    11  H    0.000000   0.000000   0.000000   0.000000   0.010945   0.000000
    12  H    0.000000   0.000000   0.000000   0.000000   0.000000   0.322553
 Mulliken charges and spin densities:
               1          2
     1  C   -0.096294   0.011633
     2  C   -0.146535  -0.003396
     3  C   -0.112892   0.160437
     4  C   -0.112932   0.160154
     5  C   -0.146505  -0.003164
     6  C   -0.096310   0.011420
     7  Cl  -0.103809  -0.001998
     8  Cl  -0.103801  -0.002006
     9  H   -0.140640   0.322480
    10  H    0.100211   0.010943
    11  H    0.100222   0.010945
    12  H   -0.140717   0.322553
 Sum of Mulliken charges =  -1.00000   1.00000
 Mulliken charges and spin densities with hydrogens summed into heavy atoms:
               1          2
     1  C   -0.096294   0.011633
     2  C   -0.046313   0.007548
     3  C   -0.253609   0.482990
     4  C   -0.253572   0.482634
     5  C   -0.046294   0.007779
     6  C   -0.096310   0.011420
     7  Cl  -0.103809  -0.001998
     8  Cl  -0.103801  -0.002006
 Charge=             -1.0000 electrons
 Dipole moment (field-independent basis, Debye):
    X=             -7.2633    Y=             -0.3436    Z=              0.0000  Tot=              7.2714
 N-N= 2.054629854094D+02 E-N=-2.953531210222D+02  KE=-9.223941833038D+01
 Symmetry A'   KE=-7.178081605219D+01
 Symmetry A"   KE=-2.045860227819D+01
 Symmetry A'   SP= 1.000000000000D+00
 Symmetry A"   SP= 2.553512956638D-15
 1\1\GINC-SH02-01N30\FOpt\UAM1\ZDO\C6H4Cl2(1-,2)\JLAPIER\08-Dec-2025\0\
 \# opt am1 SCF(maxcyc=100000)\\2-Chloro-Benzene Anion Radical (12)\\-1
 ,2\C,-3.1182472672,0.1978586161,0.\C,-1.9238412441,0.9400748215,0.\C,-
 0.7219140489,0.2499259961,0.\C,-0.684300953,-1.1198240371,0.\C,-1.8465
 08639,-1.8749164464,0.\C,-3.0798679222,-1.1993834634,0.\Cl,-4.52956324
 43,-2.1213048776,0.\Cl,-4.6163513427,1.0388208393,0.\H,0.3610071185,-1
 .703061231,0.\H,-1.8335952015,-2.9737215695,0.\H,-1.9712514459,2.03797
 0448,0.\H,0.2897341903,0.8897309038,0.\\Version=ES64L-G16RevB.01\State
 =2-A'\HF=0.1175583\S2=0.759229\S2-1=0.\S2A=0.750027\RMSD=6.316e-09\RMS
 F=5.265e-05\Dipole=-2.8597196,-0.0786498,0.\PG=CS [SG(C6H4Cl2)]\\@


 Money is a good servant but a bad master.
                        -- French Proverb
 Job cpu time:       0 days  0 hours  0 minutes 12.0 seconds.
 Elapsed time:       0 days  0 hours  0 minutes 25.9 seconds.
 File lengths (MBytes):  RWF=     10 Int=      0 D2E=      0 Chk=      2 Scr=      1
 Normal termination of Gaussian 16 at Mon Dec  8 18:17:49 2025.
