 Entering Gaussian System, Link 0=g16
 Initial command:
 /share/software/user/restricted/gaussian/g16.B01/l1.exe "/home/users/jlapier/Chloroaromatics/Gau-242553.inp" -scrdir="/home/users/jlapier/Chloroaromatics/"
 Entering Link 1 = /share/software/user/restricted/gaussian/g16.B01/l1.exe PID=    242554.
  
 Copyright (c) 1988-2017, Gaussian, Inc.  All Rights Reserved.
  
 This is part of the Gaussian(R) 16 program.  It is based on
 the Gaussian(R) 09 system (copyright 2009, Gaussian, Inc.),
 the Gaussian(R) 03 system (copyright 2003, Gaussian, Inc.),
 the Gaussian(R) 98 system (copyright 1998, Gaussian, Inc.),
 the Gaussian(R) 94 system (copyright 1995, Gaussian, Inc.),
 the Gaussian 92(TM) system (copyright 1992, Gaussian, Inc.),
 the Gaussian 90(TM) system (copyright 1990, Gaussian, Inc.),
 the Gaussian 88(TM) system (copyright 1988, Gaussian, Inc.),
 the Gaussian 86(TM) system (copyright 1986, Carnegie Mellon
 University), and the Gaussian 82(TM) system (copyright 1983,
 Carnegie Mellon University). Gaussian is a federally registered
 trademark of Gaussian, Inc.
  
 This software contains proprietary and confidential information,
 including trade secrets, belonging to Gaussian, Inc.
  
 This software is provided under written license and may be
 used, copied, transmitted, or stored only in accord with that
 written license.
  
 The following legend is applicable only to US Government
 contracts under FAR:
  
                    RESTRICTED RIGHTS LEGEND
  
 Use, reproduction and disclosure by the US Government is
 subject to restrictions as set forth in subparagraphs (a)
 and (c) of the Commercial Computer Software - Restricted
 Rights clause in FAR 52.227-19.
  
 Gaussian, Inc.
 340 Quinnipiac St., Bldg. 40, Wallingford CT 06492
  
  
 ---------------------------------------------------------------
 Warning -- This program may not be used in any manner that
 competes with the business of Gaussian, Inc. or will provide
 assistance to any competitor of Gaussian, Inc.  The licensee
 of this program is prohibited from giving any competitor of
 Gaussian, Inc. access to this program.  By using this program,
 the user acknowledges that Gaussian, Inc. is engaged in the
 business of creating and licensing software in the field of
 computational chemistry and represents and warrants to the
 licensee that it is not a competitor of Gaussian, Inc. and that
 it will not use this program in any manner prohibited above.
 ---------------------------------------------------------------
  

 Cite this work as:
 Gaussian 16, Revision B.01,
 M. J. Frisch, G. W. Trucks, H. B. Schlegel, G. E. Scuseria, 
 M. A. Robb, J. R. Cheeseman, G. Scalmani, V. Barone, 
 G. A. Petersson, H. Nakatsuji, X. Li, M. Caricato, A. V. Marenich, 
 J. Bloino, B. G. Janesko, R. Gomperts, B. Mennucci, H. P. Hratchian, 
 J. V. Ortiz, A. F. Izmaylov, J. L. Sonnenberg, D. Williams-Young, 
 F. Ding, F. Lipparini, F. Egidi, J. Goings, B. Peng, A. Petrone, 
 T. Henderson, D. Ranasinghe, V. G. Zakrzewski, J. Gao, N. Rega, 
 G. Zheng, W. Liang, M. Hada, M. Ehara, K. Toyota, R. Fukuda, 
 J. Hasegawa, M. Ishida, T. Nakajima, Y. Honda, O. Kitao, H. Nakai, 
 T. Vreven, K. Throssell, J. A. Montgomery, Jr., J. E. Peralta, 
 F. Ogliaro, M. J. Bearpark, J. J. Heyd, E. N. Brothers, K. N. Kudin, 
 V. N. Staroverov, T. A. Keith, R. Kobayashi, J. Normand, 
 K. Raghavachari, A. P. Rendell, J. C. Burant, S. S. Iyengar, 
 J. Tomasi, M. Cossi, J. M. Millam, M. Klene, C. Adamo, R. Cammi, 
 J. W. Ochterski, R. L. Martin, K. Morokuma, O. Farkas, 
 J. B. Foresman, and D. J. Fox, Gaussian, Inc., Wallingford CT, 2016.
 
 ******************************************
 Gaussian 16:  ES64L-G16RevB.01 20-Dec-2017
                 8-Dec-2025 
 ******************************************
 %mem=2GB
 %nprocshare=1
 Will use up to    1 processors via shared memory.
 %chk=geometry_chks/12ClBzAnionRadical.chk
 ------------------
 # opt am1 pop=None
 ------------------
 1/18=20,19=15,26=1,38=1/1,3;
 2/9=110,12=2,17=6,18=5,40=1/2;
 3/5=2,25=1,41=700000,71=1/1,2,3;
 4/35=1/1;
 5/5=2,35=1,38=5/2;
 7//1,2,3,16;
 1/18=20,19=15,26=1/3(2);
 2/9=110/2;
 99//99;
 2/9=110/2;
 3/5=2,25=1,41=700000,71=1,135=20/1,2,3;
 4/5=5,16=3,35=1/1;
 5/5=2,35=1,38=5/2;
 7//1,2,3,16;
 1/18=20,19=15,26=1/3(-5);
 2/9=110/2;
 99/9=1/99;
 -----------------------------------
 2-Chloro-Benzene Anion Radical (12)
 -----------------------------------
 Symbolic Z-matrix:
 Charge = -1 Multiplicity = 2
 C                    -3.20928   0.19943   0. 
 C                    -2.0115    0.93555   0. 
 C                    -0.77511   0.2663    0. 
 C                    -0.7365   -1.13907   0. 
 C                    -1.93429  -1.87519   0. 
 C                    -3.17067  -1.20594   0. 
 Cl                   -4.67483  -2.13035   0. 
 Cl                   -4.76193   1.03987   0. 
 H                     0.81614  -1.97951   0. 
 H                    -1.8858   -3.64003   0. 
 H                    -2.05998   2.7004    0. 
 H                     0.72905   1.19071   0. 
 
 Add virtual bond connecting atoms H10        and C5         Dist= 3.34D+00.
 Add virtual bond connecting atoms H9         and C4         Dist= 3.34D+00.
 Add virtual bond connecting atoms H12        and C3         Dist= 3.34D+00.
 Add virtual bond connecting atoms H11        and C2         Dist= 3.34D+00.

 GradGradGradGradGradGradGradGradGradGradGradGradGradGradGradGradGradGrad
 Berny optimization.
 Initialization pass.
                           ----------------------------
                           !    Initial Parameters    !
                           ! (Angstroms and Degrees)  !
 --------------------------                            --------------------------
 ! Name  Definition              Value          Derivative Info.                !
 --------------------------------------------------------------------------------
 ! R1    R(1,2)                  1.4059         estimate D2E/DX2                !
 ! R2    R(1,6)                  1.4059         estimate D2E/DX2                !
 ! R3    R(1,8)                  1.7655         estimate D2E/DX2                !
 ! R4    R(2,3)                  1.4059         estimate D2E/DX2                !
 ! R5    R(2,11)                 1.7655         estimate D2E/DX2                !
 ! R6    R(3,4)                  1.4059         estimate D2E/DX2                !
 ! R7    R(3,12)                 1.7655         estimate D2E/DX2                !
 ! R8    R(4,5)                  1.4059         estimate D2E/DX2                !
 ! R9    R(4,9)                  1.7655         estimate D2E/DX2                !
 ! R10   R(5,6)                  1.4059         estimate D2E/DX2                !
 ! R11   R(5,10)                 1.7655         estimate D2E/DX2                !
 ! R12   R(6,7)                  1.7655         estimate D2E/DX2                !
 ! A1    A(2,1,6)              119.9999         estimate D2E/DX2                !
 ! A2    A(2,1,8)              119.9999         estimate D2E/DX2                !
 ! A3    A(6,1,8)              120.0001         estimate D2E/DX2                !
 ! A4    A(1,2,3)              120.0            estimate D2E/DX2                !
 ! A5    A(1,2,11)             120.0001         estimate D2E/DX2                !
 ! A6    A(3,2,11)             119.9999         estimate D2E/DX2                !
 ! A7    A(2,3,4)              120.0001         estimate D2E/DX2                !
 ! A8    A(2,3,12)             120.0            estimate D2E/DX2                !
 ! A9    A(4,3,12)             119.9999         estimate D2E/DX2                !
 ! A10   A(3,4,5)              119.9997         estimate D2E/DX2                !
 ! A11   A(3,4,9)              120.0003         estimate D2E/DX2                !
 ! A12   A(5,4,9)              120.0            estimate D2E/DX2                !
 ! A13   A(4,5,6)              120.0            estimate D2E/DX2                !
 ! A14   A(4,5,10)             119.9996         estimate D2E/DX2                !
 ! A15   A(6,5,10)             120.0004         estimate D2E/DX2                !
 ! A16   A(1,6,5)              120.0003         estimate D2E/DX2                !
 ! A17   A(1,6,7)              119.9999         estimate D2E/DX2                !
 ! A18   A(5,6,7)              119.9998         estimate D2E/DX2                !
 ! D1    D(6,1,2,3)              0.0            estimate D2E/DX2                !
 ! D2    D(6,1,2,11)           180.0            estimate D2E/DX2                !
 ! D3    D(8,1,2,3)            180.0            estimate D2E/DX2                !
 ! D4    D(8,1,2,11)             0.0            estimate D2E/DX2                !
 ! D5    D(2,1,6,5)              0.0            estimate D2E/DX2                !
 ! D6    D(2,1,6,7)            180.0            estimate D2E/DX2                !
 ! D7    D(8,1,6,5)            180.0            estimate D2E/DX2                !
 ! D8    D(8,1,6,7)              0.0            estimate D2E/DX2                !
 ! D9    D(1,2,3,4)              0.0            estimate D2E/DX2                !
 ! D10   D(1,2,3,12)           180.0            estimate D2E/DX2                !
 ! D11   D(11,2,3,4)           180.0            estimate D2E/DX2                !
 ! D12   D(11,2,3,12)            0.0            estimate D2E/DX2                !
 ! D13   D(2,3,4,5)              0.0            estimate D2E/DX2                !
 ! D14   D(2,3,4,9)            180.0            estimate D2E/DX2                !
 ! D15   D(12,3,4,5)           180.0            estimate D2E/DX2                !
 ! D16   D(12,3,4,9)             0.0            estimate D2E/DX2                !
 ! D17   D(3,4,5,6)              0.0            estimate D2E/DX2                !
 ! D18   D(3,4,5,10)           180.0            estimate D2E/DX2                !
 ! D19   D(9,4,5,6)            180.0            estimate D2E/DX2                !
 ! D20   D(9,4,5,10)             0.0            estimate D2E/DX2                !
 ! D21   D(4,5,6,1)              0.0            estimate D2E/DX2                !
 ! D22   D(4,5,6,7)            180.0            estimate D2E/DX2                !
 ! D23   D(10,5,6,1)           180.0            estimate D2E/DX2                !
 ! D24   D(10,5,6,7)             0.0            estimate D2E/DX2                !
 --------------------------------------------------------------------------------
 Trust Radius=3.00D-01 FncErr=1.00D-07 GrdErr=1.00D-07 EigMax=2.50D+02 EigMin=1.00D-04
 Number of steps in this run=     64 maximum allowed number of steps=    100.
 GradGradGradGradGradGradGradGradGradGradGradGradGradGradGradGradGradGrad

                          Input orientation:                          
 ---------------------------------------------------------------------
 Center     Atomic      Atomic             Coordinates (Angstroms)
 Number     Number       Type             X           Y           Z
 ---------------------------------------------------------------------
      1          6           0       -3.209280    0.199430    0.000000
      2          6           0       -2.011500    0.935550    0.000000
      3          6           0       -0.775110    0.266300    0.000000
      4          6           0       -0.736500   -1.139070    0.000000
      5          6           0       -1.934290   -1.875190    0.000000
      6          6           0       -3.170670   -1.205940    0.000000
      7         17           0       -4.674830   -2.130350    0.000000
      8         17           0       -4.761930    1.039870    0.000000
      9          1           0        0.816140   -1.979510    0.000000
     10          1           0       -1.885800   -3.640030    0.000000
     11          1           0       -2.059980    2.700400    0.000000
     12          1           0        0.729050    1.190710    0.000000
 ---------------------------------------------------------------------
                    Distance matrix (angstroms):
                    1          2          3          4          5
     1  C    0.000000
     2  C    1.405898   0.000000
     3  C    2.435088   1.405900   0.000000
     4  C    2.811801   2.435092   1.405900   0.000000
     5  C    2.435087   2.811800   2.435093   1.405907   0.000000
     6  C    1.405900   2.435088   2.811796   2.435088   1.405892
     7  Cl   2.752401   4.061166   4.577308   4.061167   2.752393
     8  Cl   1.765520   2.752408   4.061175   4.577321   4.061173
     9  H    4.577312   4.061173   2.752406   1.765511   2.752408
    10  H    4.061164   4.577306   4.061163   2.752397   1.765506
    11  H    2.752406   1.765516   2.752405   4.061173   4.577316
    12  H    4.061167   2.752403   1.765512   2.752401   4.061173
                    6          7          8          9         10
     6  C    0.000000
     7  Cl   1.765512   0.000000
     8  Cl   2.752412   3.171416   0.000000
     9  H    4.061165   5.493041   6.342832   0.000000
    10  H    2.752396   3.171407   5.493049   3.171404   0.000000
    11  H    4.061173   5.493049   3.171418   5.493052   6.342822
    12  H    4.577308   6.342819   5.493051   3.171416   5.493040
                   11         12
    11  H    0.000000
    12  H    3.171412   0.000000
 Stoichiometry    C6H4Cl2(1-,2)
 Framework group  CS[SG(C6H4Cl2)]
 Deg. of freedom    21
 Full point group                 CS      NOp   2
 Largest Abelian subgroup         CS      NOp   2
 Largest concise Abelian subgroup C1      NOp   1
                         Standard orientation:                         
 ---------------------------------------------------------------------
 Center     Atomic      Atomic             Coordinates (Angstroms)
 Number     Number       Type             X           Y           Z
 ---------------------------------------------------------------------
      1          6           0        0.593843   -0.377332   -0.000000
      2          6           0        1.811387    0.325616   -0.000000
      3          6           0        1.811387    1.731516   -0.000000
      4          6           0        0.593843    2.434469    0.000000
      5          6           0       -0.623706    1.731512    0.000000
      6          6           0       -0.623701    0.325620    0.000000
      7         17           0       -2.152679   -0.557136    0.000000
      8         17           0        0.593843   -2.142852   -0.000000
      9          1           0        0.593838    4.199980    0.000000
     10          1           0       -2.152675    2.614271    0.000000
     11          1           0        3.340370   -0.557139   -0.000000
     12          1           0        3.340365    2.614272   -0.000000
 ---------------------------------------------------------------------
 Rotational constants (GHZ):           1.8555983           1.3458235           0.7800621
 Standard basis: VSTO-6G (5D, 7F)
 There are    28 symmetry adapted cartesian basis functions of A'  symmetry.
 There are     8 symmetry adapted cartesian basis functions of A"  symmetry.
 There are    28 symmetry adapted basis functions of A'  symmetry.
 There are     8 symmetry adapted basis functions of A"  symmetry.
    36 basis functions,   216 primitive gaussians,    36 cartesian basis functions
    22 alpha electrons       21 beta electrons
       nuclear repulsion energy       199.4607519287 Hartrees.
 Integral buffers will be    131072 words long.
 Regular integral format.
 Two-electron integral symmetry is turned off.
 Do NDO integrals.
 One-electron integrals computed using PRISM.
 NBasis=    36 RedAO= T EigKep=  1.00D+00  NBF=    28     8
 NBsUse=    36 1.00D-06 EigRej= -1.00D+00 NBFU=    28     8
 Simple Huckel Guess.
 Initial guess orbital symmetries:
 Alpha Orbitals:
       Occupied  (A') (A') (A') (A') (A') (A') (A') (A') (A') (A")
                 (A') (A') (A') (A") (A") (A') (A') (A') (A") (A')
                 (A") (A')
       Virtual   (A') (A") (A") (A') (A') (A") (A') (A') (A') (A')
                 (A') (A') (A') (A')
 Beta  Orbitals:
       Occupied  (A') (A') (A') (A') (A') (A') (A') (A') (A') (A")
                 (A') (A') (A') (A") (A") (A') (A') (A') (A") (A')
                 (A")
       Virtual   (A') (A') (A") (A") (A') (A') (A") (A') (A') (A')
                 (A') (A') (A') (A') (A')
 The electronic state of the initial guess is 2-A'.
 Initial guess <Sx>= 0.0000 <Sy>= 0.0000 <Sz>= 0.5000 <S**2>= 0.7500 S= 0.5000
 Keep J ints in memory in canonical form, NReq=862905.
 Overlap will be assumed to be unity.
 Requested convergence on RMS density matrix=1.00D-08 within 128 cycles.
 Requested convergence on MAX density matrix=1.00D-06.
 Requested convergence on             energy=1.00D-06.
 No special actions if energy rises.
 Fock symm off for IB=2 I1=    1 I=   29 J=   24 Cut=1.00D-07 Err=1.10D-02
 Fock matrix is not symmetric: symmetry in diagonalization turned off.
 Rare condition: small coef for last iteration:  0.000D+00
 Rare condition: small coef for last iteration:  0.000D+00
 SCF Done:  E(UAM1) =  0.468754274854     A.U. after   29 cycles
            NFock= 28  Conv=0.98D-08     -V/T= 1.0051
 <Sx>= 0.0000 <Sy>= 0.0000 <Sz>= 0.5000 <S**2>= 1.5547 S= 0.8434
 <L.S>=  0.00000000000    
 Annihilation of the first spin contaminant:
 S**2 before annihilation     1.5547,   after     1.4257
 Calling FoFJK, ICntrl=      2127 FMM=F ISym2X=1 I1Cent= 0 IOpClX= 1 NMat=1 NMatS=1 NMatT=0.
 ***** Axes restored to original set *****
 -------------------------------------------------------------------
 Center     Atomic                   Forces (Hartrees/Bohr)
 Number     Number              X              Y              Z
 -------------------------------------------------------------------
      1        6          -0.001759072    0.024966411   -0.000000000
      2        6           0.028692147    0.033576313    0.000000000
      3        6          -0.001028583   -0.018130710    0.000000000
      4        6          -0.002022585    0.018045210   -0.000000000
      5        6           0.030501135   -0.031959538   -0.000000000
      6        6          -0.000390376   -0.025020093    0.000000000
      7       17           0.023872144    0.012310932    0.000000000
      8       17           0.024515952   -0.010984117   -0.000000000
      9        1          -0.050833887    0.027202732    0.000000000
     10        1          -0.003590786    0.089079599    0.000000000
     11        1           0.001305389   -0.089135706   -0.000000000
     12        1          -0.049261478   -0.029951031    0.000000000
 -------------------------------------------------------------------
 Cartesian Forces:  Max     0.089135706 RMS     0.028771278

 GradGradGradGradGradGradGradGradGradGradGradGradGradGradGradGradGradGrad
 Berny optimization.
 FormGI is forming the generalized inverse of G from B-inverse, IUseBI=4.
 Internal  Forces:  Max     0.089144616 RMS     0.027290115
 Search for a local minimum.
 Step number   1 out of a maximum of   64
 All quantities printed in internal units (Hartrees-Bohrs-Radians)
 Mixed Optimization -- RFO/linear search
 Second derivative matrix not updated -- first step.
 ITU=  0
     Eigenvalues ---    0.02011   0.02011   0.02011   0.02011   0.02011
     Eigenvalues ---    0.02011   0.02011   0.02011   0.02011   0.06524
     Eigenvalues ---    0.06524   0.06524   0.06524   0.16000   0.16000
     Eigenvalues ---    0.16000   0.16000   0.22000   0.22493   0.24487
     Eigenvalues ---    0.25000   0.25000   0.29033   0.29033   0.40787
     Eigenvalues ---    0.40956   0.44656   0.44657   0.44657   0.44657
 RFO step:  Lambda=-1.40956826D-01 EMin= 2.01065826D-02
 Linear search not attempted -- first point.
 Maximum step size (   0.300) exceeded in Quadratic search.
    -- Step size scaled by   0.391
 Iteration  1 RMS(Cart)=  0.05149108 RMS(Int)=  0.00006655
 Iteration  2 RMS(Cart)=  0.00013948 RMS(Int)=  0.00001550
 Iteration  3 RMS(Cart)=  0.00000001 RMS(Int)=  0.00001550
 ClnCor:  largest displacement from symmetrization is 4.77D-10 for atom     7.
 Variable       Old X    -DE/DX   Delta X   Delta X   Delta X     New X
                                 (Linear)    (Quad)   (Total)
    R1        2.65676  -0.03329   0.00000  -0.02154  -0.02155   2.63521
    R2        2.65677  -0.01317   0.00000  -0.00749  -0.00751   2.64925
    R3        3.33635  -0.02679   0.00000  -0.02431  -0.02431   3.31204
    R4        2.65677  -0.05960   0.00000  -0.04035  -0.04033   2.61643
    R5        3.33634  -0.08914   0.00000  -0.16919  -0.16919   3.16715
    R6        2.65677  -0.07653   0.00000  -0.05226  -0.05223   2.60453
    R7        3.33633  -0.05765   0.00000  -0.10943  -0.10943   3.22691
    R8        2.65678  -0.05960   0.00000  -0.04035  -0.04033   2.61644
    R9        3.33633  -0.05765   0.00000  -0.10943  -0.10943   3.22690
   R10        2.65675  -0.03328   0.00000  -0.02153  -0.02154   2.63521
   R11        3.33632  -0.08914   0.00000  -0.16920  -0.16920   3.16712
   R12        3.33633  -0.02678   0.00000  -0.02431  -0.02431   3.31203
    A1        2.09439  -0.01355   0.00000  -0.01088  -0.01092   2.08347
    A2        2.09439   0.00342   0.00000   0.00208   0.00210   2.09650
    A3        2.09440   0.01013   0.00000   0.00880   0.00882   2.10322
    A4        2.09439   0.00761   0.00000   0.00795   0.00795   2.10234
    A5        2.09440  -0.00571   0.00000  -0.00645  -0.00645   2.08794
    A6        2.09439  -0.00190   0.00000  -0.00149  -0.00149   2.09290
    A7        2.09440   0.00594   0.00000   0.00294   0.00298   2.09737
    A8        2.09440  -0.00343   0.00000  -0.00207  -0.00209   2.09231
    A9        2.09439  -0.00251   0.00000  -0.00087  -0.00089   2.09350
   A10        2.09439   0.00594   0.00000   0.00294   0.00298   2.09737
   A11        2.09440  -0.00251   0.00000  -0.00087  -0.00089   2.09351
   A12        2.09440  -0.00343   0.00000  -0.00207  -0.00209   2.09231
   A13        2.09439   0.00761   0.00000   0.00795   0.00795   2.10234
   A14        2.09439  -0.00190   0.00000  -0.00149  -0.00149   2.09289
   A15        2.09440  -0.00571   0.00000  -0.00645  -0.00645   2.08795
   A16        2.09440  -0.01355   0.00000  -0.01088  -0.01093   2.08347
   A17        2.09439   0.01013   0.00000   0.00880   0.00882   2.10321
   A18        2.09439   0.00342   0.00000   0.00208   0.00211   2.09650
    D1        0.00000   0.00000   0.00000   0.00000   0.00000   0.00000
    D2        3.14159   0.00000   0.00000   0.00000   0.00000   3.14159
    D3        3.14159  -0.00000   0.00000  -0.00000   0.00000   3.14159
    D4        0.00000   0.00000   0.00000   0.00000   0.00000   0.00000
    D5        0.00000  -0.00000   0.00000  -0.00000  -0.00000   0.00000
    D6        3.14159  -0.00000   0.00000  -0.00000   0.00000   3.14159
    D7        3.14159  -0.00000   0.00000  -0.00000   0.00000   3.14159
    D8       -0.00000   0.00000   0.00000   0.00000   0.00000   0.00000
    D9       -0.00000   0.00000   0.00000   0.00000   0.00000   0.00000
   D10        3.14159   0.00000   0.00000   0.00000   0.00000   3.14159
   D11        3.14159   0.00000   0.00000   0.00000   0.00000   3.14159
   D12        0.00000  -0.00000   0.00000  -0.00000   0.00000   0.00000
   D13        0.00000  -0.00000   0.00000  -0.00000  -0.00000   0.00000
   D14        3.14159  -0.00000   0.00000  -0.00000   0.00000   3.14159
   D15        3.14159  -0.00000   0.00000  -0.00000   0.00000   3.14159
   D16       -0.00000  -0.00000   0.00000  -0.00000   0.00000   0.00000
   D17       -0.00000   0.00000   0.00000   0.00000   0.00000   0.00000
   D18        3.14159   0.00000   0.00000   0.00000   0.00000   3.14159
   D19        3.14159  -0.00000   0.00000  -0.00000   0.00000   3.14159
   D20        0.00000  -0.00000   0.00000  -0.00000  -0.00000   0.00000
   D21        0.00000   0.00000   0.00000   0.00000  -0.00000   0.00000
   D22        3.14159   0.00000   0.00000   0.00000   0.00000   3.14159
   D23        3.14159   0.00000   0.00000   0.00000   0.00000   3.14159
   D24       -0.00000  -0.00000   0.00000   0.00000   0.00000   0.00000
         Item               Value     Threshold  Converged?
 Maximum Force            0.089145     0.000450     NO 
 RMS     Force            0.027290     0.000300     NO 
 Maximum Displacement     0.209600     0.001800     NO 
 RMS     Displacement     0.051491     0.001200     NO 
 Predicted change in Energy=-5.071519D-02
 GradGradGradGradGradGradGradGradGradGradGradGradGradGradGradGradGradGrad

                          Input orientation:                          
 ---------------------------------------------------------------------
 Center     Atomic      Atomic             Coordinates (Angstroms)
 Number     Number       Type             X           Y           Z
 ---------------------------------------------------------------------
      1          6           0       -3.196999    0.197778    0.000000
      2          6           0       -2.001028    0.914904   -0.000000
      3          6           0       -0.785376    0.252191   -0.000000
      4          6           0       -0.747525   -1.125548   -0.000000
      5          6           0       -1.924966   -1.854002   -0.000000
      6          6           0       -3.158499   -1.203617    0.000000
      7         17           0       -4.643549   -2.134427    0.000000
      8         17           0       -4.730917    1.045657    0.000000
      9          1           0        0.754912   -1.937083   -0.000000
     10          1           0       -1.871443   -3.529115   -0.000000
     11          1           0       -2.039556    2.590445   -0.000000
     12          1           0        0.670246    1.144986   -0.000000
 ---------------------------------------------------------------------
                    Distance matrix (angstroms):
                    1          2          3          4          5
     1  C    0.000000
     2  C    1.394495   0.000000
     3  C    2.412237   1.384558   0.000000
     4  C    2.784083   2.394727   1.378259   0.000000
     5  C    2.414098   2.769951   2.394727   1.384563   0.000000
     6  C    1.401924   2.414099   2.784079   2.412238   1.394491
     7  Cl   2.744392   4.035014   4.536678   4.024531   2.733008
     8  Cl   1.752656   2.733018   4.024535   4.536689   4.035020
     9  H    4.491685   3.965985   2.676828   1.707602   2.681166
    10  H    3.955607   4.445908   3.934186   2.653361   1.675967
    11  H    2.657918   1.675983   2.653375   3.934202   4.445924
    12  H    3.981556   2.681164   1.707605   2.676825   3.965987
                    6          7          8          9         10
     6  C    0.000000
     7  Cl   1.752650   0.000000
     8  Cl   2.744400   3.181284   0.000000
     9  H    3.981553   5.402067   6.244282   0.000000
    10  H    2.657904   3.103180   5.394917   3.071206   0.000000
    11  H    3.955621   5.394923   3.103190   5.320484   6.121868
    12  H    4.491684   6.244274   5.402076   3.083231   5.320469
                   11         12
    11  H    0.000000
    12  H    3.071218   0.000000
 Stoichiometry    C6H4Cl2(1-,2)
 Framework group  CS[SG(C6H4Cl2)]
 Deg. of freedom    21
 Full point group                 CS      NOp   2
 Largest Abelian subgroup         CS      NOp   2
 Largest concise Abelian subgroup C1      NOp   1
                         Standard orientation:                         
 ---------------------------------------------------------------------
 Center     Atomic      Atomic             Coordinates (Angstroms)
 Number     Number       Type             X           Y           Z
 ---------------------------------------------------------------------
      1          6           0       -0.032651   -0.700961   -0.000000
      2          6           0        1.182563   -1.384972   -0.000000
      3          6           0        2.379557   -0.689124   -0.000000
      4          6           0        2.379557    0.689135   -0.000000
      5          6           0        1.182554    1.384979   -0.000000
      6          6           0       -0.032652    0.700963    0.000000
      7         17           0       -1.542705    1.590638    0.000000
      8         17           0       -1.542705   -1.590646    0.000000
      9          1           0        3.859140    1.541626   -0.000000
     10          1           0        1.190054    3.060930   -0.000000
     11          1           0        1.190065   -3.060938   -0.000000
     12          1           0        3.859148   -1.541605   -0.000000
 ---------------------------------------------------------------------
 Rotational constants (GHZ):           1.8727893           1.3746382           0.7927530
 Standard basis: VSTO-6G (5D, 7F)
 There are    28 symmetry adapted cartesian basis functions of A'  symmetry.
 There are     8 symmetry adapted cartesian basis functions of A"  symmetry.
 There are    28 symmetry adapted basis functions of A'  symmetry.
 There are     8 symmetry adapted basis functions of A"  symmetry.
    36 basis functions,   216 primitive gaussians,    36 cartesian basis functions
    22 alpha electrons       21 beta electrons
       nuclear repulsion energy       200.8518996089 Hartrees.
 Integral buffers will be    131072 words long.
 Regular integral format.
 Two-electron integral symmetry is turned off.
 Do NDO integrals.
 One-electron integrals computed using PRISM.
 NBasis=    36 RedAO= T EigKep=  1.00D+00  NBF=    28     8
 NBsUse=    36 1.00D-06 EigRej= -1.00D+00 NBFU=    28     8
 Initial guess from the checkpoint file:  "geometry_chks/12ClBzAnionRadical.chk"
 B after Tr=    -0.000000   -0.000000    0.000000
         Rot=    0.866026   -0.000000    0.000000    0.499999 Ang=  60.00 deg.
 Initial guess orbital symmetries:
 Alpha Orbitals:
       Occupied  (A') (A') (A') (A') (A') (A') (A') (A') (A') (A')
                 (A") (A") (A') (A') (A') (A") (A') (A') (A') (A")
                 (A") (A')
       Virtual   (A') (A') (A') (A") (A") (A') (A') (A") (A') (A')
                 (A') (A') (A') (A')
 Beta  Orbitals:
       Occupied  (A') (A') (A') (A') (A') (A') (A') (A') (A') (A')
                 (A") (A") (A') (A') (A") (A') (A') (A") (A') (A')
                 (A")
       Virtual   (A") (A") (A') (A') (A') (A') (A') (A') (A") (A')
                 (A') (A') (A') (A') (A')
 Initial guess <Sx>= 0.0000 <Sy>= 0.0000 <Sz>= 0.5000 <S**2>= 1.5547 S= 0.8434
 Keep J ints in memory in canonical form, NReq=862905.
 Overlap will be assumed to be unity.
 Requested convergence on RMS density matrix=1.00D-08 within 128 cycles.
 Requested convergence on MAX density matrix=1.00D-06.
 Requested convergence on             energy=1.00D-06.
 No special actions if energy rises.
 Fock symm off for IB=2 I1=    1 I=   29 J=   18 Cut=1.00D-07 Err=6.53D-03
 Fock matrix is not symmetric: symmetry in diagonalization turned off.
 SCF Done:  E(UAM1) =  0.412021646558     A.U. after   40 cycles
            NFock= 39  Conv=0.93D-08     -V/T= 1.0045
 <Sx>= 0.0000 <Sy>= 0.0000 <Sz>= 0.5000 <S**2>= 1.0857 S= 0.6557
 <L.S>=  0.00000000000    
 Annihilation of the first spin contaminant:
 S**2 before annihilation     1.0857,   after     0.8226
 Calling FoFJK, ICntrl=      2127 FMM=F ISym2X=1 I1Cent= 0 IOpClX= 1 NMat=1 NMatS=1 NMatT=0.
 ***** Axes restored to original set *****
 -------------------------------------------------------------------
 Center     Atomic                   Forces (Hartrees/Bohr)
 Number     Number              X              Y              Z
 -------------------------------------------------------------------
      1        6          -0.011352996    0.020785582   -0.000000000
      2        6           0.017920116    0.085394928   -0.000000000
      3        6           0.027707044    0.006769528   -0.000000000
      4        6           0.028032393   -0.005237577   -0.000000000
      5        6           0.022587841   -0.084287033    0.000000000
      6        6          -0.010197078   -0.021374230   -0.000000000
      7       17           0.018169034    0.009831957   -0.000000000
      8       17           0.018684856   -0.008821441   -0.000000000
      9        1          -0.054645194    0.029340557    0.000000000
     10        1          -0.005018522    0.110762197    0.000000000
     11        1           0.001070149   -0.110864575    0.000000000
     12        1          -0.052957641   -0.032299893    0.000000000
 -------------------------------------------------------------------
 Cartesian Forces:  Max     0.110864575 RMS     0.037679384

 GradGradGradGradGradGradGradGradGradGradGradGradGradGradGradGradGradGrad
 Berny optimization.
 Using GEDIIS/GDIIS optimizer.
 FormGI is forming the generalized inverse of G from B-inverse, IUseBI=4.
 Internal  Forces:  Max     0.110865970 RMS     0.026173996
 Search for a local minimum.
 Step number   2 out of a maximum of   64
 All quantities printed in internal units (Hartrees-Bohrs-Radians)
 Mixed Optimization -- RFO/linear search
 Update second derivatives using D2CorX and points    1    2
 DE= -5.67D-02 DEPred=-5.07D-02 R= 1.12D+00
 TightC=F SS=  1.41D+00  RLast= 3.00D-01 DXNew= 5.0454D-01 9.0000D-01
 Trust test= 1.12D+00 RLast= 3.00D-01 DXMaxT set to 5.05D-01
 ITU=  1  0
 Use linear search instead of GDIIS.
     Eigenvalues ---   -2.09430   0.00319   0.02011   0.02011   0.02011
     Eigenvalues ---    0.02011   0.02011   0.02011   0.02011   0.02011
     Eigenvalues ---    0.02011   0.06524   0.06524   0.07130   0.15993
     Eigenvalues ---    0.16000   0.16000   0.16001   0.22000   0.22759
     Eigenvalues ---    0.24475   0.25000   0.25032   0.29033   0.29339
     Eigenvalues ---    0.40686   0.41265   0.44655   0.44657   0.44657
 RFO step:  Lambda=-2.09446041D+00 EMin=-2.09430388D+00
 I=     1 Eig=   -2.09D+00 Dot1= -1.08D-02
 I=     1 Stepn= -6.00D-01 RXN=   6.00D-01 EDone=F
 Mixed    1 eigenvectors in step.  Raw Step.Grad=  1.08D-02.
 RFO eigenvector is Hessian eigenvector with negative curvature.
 Taking step of  6.00D-01 in eigenvector direction(s).  Step.Grad= -1.54D-02.
 Skip linear search -- no minimum in search direction.
 Maximum step size (   0.505) exceeded in Quadratic search.
    -- Step size not scaled.
 Iteration  1 RMS(Cart)=  0.07835374 RMS(Int)=  0.01568188
 Iteration  2 RMS(Cart)=  0.02256656 RMS(Int)=  0.00054580
 Iteration  3 RMS(Cart)=  0.00011135 RMS(Int)=  0.00053822
 Iteration  4 RMS(Cart)=  0.00000003 RMS(Int)=  0.00053822
 ClnCor:  largest displacement from symmetrization is 6.01D-09 for atom     9.
 Variable       Old X    -DE/DX   Delta X   Delta X   Delta X     New X
                                 (Linear)    (Quad)   (Total)
    R1        2.63521  -0.01264   0.00000   0.16329   0.16281   2.79803
    R2        2.64925  -0.00041   0.00000   0.09892   0.09801   2.74726
    R3        3.31204  -0.02062   0.00000   0.05518   0.05518   3.36722
    R4        2.61643  -0.02937   0.00000   0.24206   0.24251   2.85894
    R5        3.16715  -0.11086   0.00000  -0.18444  -0.18444   2.98271
    R6        2.60453  -0.03864   0.00000   0.30393   0.30484   2.90937
    R7        3.22691  -0.06203   0.00000  -0.03306  -0.03306   3.19385
    R8        2.61644  -0.02937   0.00000   0.24206   0.24250   2.85895
    R9        3.22690  -0.06202   0.00000  -0.03297  -0.03297   3.19393
   R10        2.63521  -0.01264   0.00000   0.16328   0.16279   2.79800
   R11        3.16712  -0.11087   0.00000  -0.18444  -0.18444   2.98268
   R12        3.31203  -0.02062   0.00000   0.05517   0.05517   3.36720
    A1        2.08347  -0.00801   0.00000   0.04747   0.04600   2.12947
    A2        2.09650   0.00182   0.00000  -0.01347  -0.01274   2.08376
    A3        2.10322   0.00619   0.00000  -0.03400  -0.03326   2.06995
    A4        2.10234   0.00391   0.00000  -0.03198  -0.03200   2.07034
    A5        2.08794  -0.00430   0.00000   0.01259   0.01260   2.10055
    A6        2.09290   0.00038   0.00000   0.01939   0.01940   2.11230
    A7        2.09737   0.00410   0.00000  -0.01549  -0.01400   2.08338
    A8        2.09231  -0.00230   0.00000   0.00962   0.00887   2.10118
    A9        2.09350  -0.00180   0.00000   0.00587   0.00512   2.09863
   A10        2.09737   0.00410   0.00000  -0.01551  -0.01402   2.08335
   A11        2.09351  -0.00180   0.00000   0.00588   0.00513   2.09864
   A12        2.09231  -0.00230   0.00000   0.00963   0.00888   2.10119
   A13        2.10234   0.00392   0.00000  -0.03197  -0.03199   2.07035
   A14        2.09289   0.00038   0.00000   0.01938   0.01939   2.11229
   A15        2.08795  -0.00430   0.00000   0.01258   0.01260   2.10055
   A16        2.08347  -0.00801   0.00000   0.04747   0.04601   2.12948
   A17        2.10321   0.00619   0.00000  -0.03400  -0.03327   2.06994
   A18        2.09650   0.00182   0.00000  -0.01347  -0.01274   2.08376
    D1        0.00000   0.00000   0.00000  -0.00000  -0.00000   0.00000
    D2        3.14159   0.00000   0.00000  -0.00000   0.00000   3.14159
    D3        3.14159  -0.00000   0.00000  -0.00000   0.00000   3.14159
    D4       -0.00000   0.00000   0.00000   0.00000   0.00000   0.00000
    D5       -0.00000   0.00000   0.00000   0.00000   0.00000   0.00000
    D6        3.14159  -0.00000   0.00000   0.00000   0.00000   3.14159
    D7        3.14159   0.00000   0.00000   0.00000   0.00000   3.14159
    D8       -0.00000   0.00000   0.00000  -0.00000   0.00000   0.00000
    D9       -0.00000  -0.00000   0.00000  -0.00000   0.00000   0.00000
   D10        3.14159   0.00000   0.00000   0.00000   0.00000   3.14159
   D11        3.14159  -0.00000   0.00000  -0.00000   0.00000   3.14159
   D12        0.00000  -0.00000   0.00000  -0.00000  -0.00000   0.00000
   D13        0.00000  -0.00000   0.00000   0.00000  -0.00000   0.00000
   D14        3.14159   0.00000   0.00000   0.00000   0.00000   3.14159
   D15        3.14159  -0.00000   0.00000   0.00000   0.00000   3.14159
   D16       -0.00000  -0.00000   0.00000   0.00000   0.00000   0.00000
   D17       -0.00000   0.00000   0.00000  -0.00000   0.00000   0.00000
   D18        3.14159   0.00000   0.00000  -0.00000   0.00000   3.14159
   D19        3.14159  -0.00000   0.00000   0.00000   0.00000   3.14159
   D20        0.00000   0.00000   0.00000   0.00000  -0.00000   0.00000
   D21        0.00000  -0.00000   0.00000  -0.00000  -0.00000   0.00000
   D22        3.14159   0.00000   0.00000  -0.00000   0.00000   3.14159
   D23        3.14159  -0.00000   0.00000  -0.00000   0.00000   3.14159
   D24       -0.00000  -0.00000   0.00000  -0.00000   0.00000   0.00000
         Item               Value     Threshold  Converged?
 Maximum Force            0.110866     0.000450     NO 
 RMS     Force            0.026174     0.000300     NO 
 Maximum Displacement     0.239742     0.001800     NO 
 RMS     Displacement     0.095427     0.001200     NO 
 Predicted change in Energy=-3.877265D-01
 GradGradGradGradGradGradGradGradGradGradGradGradGradGradGradGradGradGrad

                          Input orientation:                          
 ---------------------------------------------------------------------
 Center     Atomic      Atomic             Coordinates (Angstroms)
 Number     Number       Type             X           Y           Z
 ---------------------------------------------------------------------
      1          6           0       -3.243888    0.222434    0.000000
      2          6           0       -2.010387    1.041460   -0.000000
      3          6           0       -0.672053    0.335991   -0.000000
      4          6           0       -0.629764   -1.203002   -0.000000
      5          6           0       -1.927362   -1.980868   -0.000000
      6          6           0       -3.203957   -1.230805    0.000000
      7         17           0       -4.744383   -2.126383    0.000000
      8         17           0       -4.831168    1.032092    0.000000
      9          1           0        0.853180   -2.013862   -0.000000
     10          1           0       -1.929673   -3.559235   -0.000000
     11          1           0       -2.099351    2.617332   -0.000000
     12          1           0        0.764106    1.227015   -0.000000
 ---------------------------------------------------------------------
                    Distance matrix (angstroms):
                    1          2          3          4          5
     1  C    0.000000
     2  C    1.480651   0.000000
     3  C    2.574341   1.512886   0.000000
     4  C    2.977501   2.635096   1.539574   0.000000
     5  C    2.566667   3.023469   2.635079   1.512890   0.000000
     6  C    1.453787   2.566671   2.977481   2.574343   1.480638
     7  Cl   2.787189   4.184491   4.758903   4.216956   2.820776
     8  Cl   1.781854   2.820796   4.216965   4.758933   4.184497
     9  H    4.667652   4.187482   2.801454   1.690152   2.780737
    10  H    4.003521   4.601403   4.093214   2.691021   1.578368
    11  H    2.654336   1.578381   2.691040   4.093243   4.601416
    12  H    4.131973   2.780691   1.690111   2.801403   4.187423
                    6          7          8          9         10
     6  C    0.000000
     7  Cl   1.781844   0.000000
     8  Cl   2.787206   3.159667   0.000000
     9  H    4.132014   5.598693   6.449003   0.000000
    10  H    2.654314   3.158426   5.431294   3.183151   0.000000
    11  H    4.003537   5.431300   3.158450   5.492303   6.178897
    12  H    4.667591   6.448932   5.598668   3.242100   5.492234
                   11         12
    11  H    0.000000
    12  H    3.183138   0.000000
 Stoichiometry    C6H4Cl2(1-,2)
 Framework group  CS[SG(C6H4Cl2)]
 Deg. of freedom    21
 Full point group                 CS      NOp   2
 Largest Abelian subgroup         CS      NOp   2
 Largest concise Abelian subgroup C1      NOp   1
                         Standard orientation:                         
 ---------------------------------------------------------------------
 Center     Atomic      Atomic             Coordinates (Angstroms)
 Number     Number       Type             X           Y           Z
 ---------------------------------------------------------------------
      1          6           0       -0.043931   -0.726894   -0.000000
      2          6           0        1.211600   -1.511731   -0.000000
      3          6           0        2.530052   -0.769769   -0.000000
      4          6           0        2.530054    0.769806    0.000000
      5          6           0        1.211580    1.511738    0.000000
      6          6           0       -0.043931    0.726894    0.000000
      7         17           0       -1.608374    1.579823    0.000000
      8         17           0       -1.608374   -1.579843   -0.000000
      9          1           0        3.990167    1.621091    0.000000
     10          1           0        1.165918    3.089445    0.000000
     11          1           0        1.165953   -3.089451   -0.000000
     12          1           0        3.990143   -1.621009   -0.000000
 ---------------------------------------------------------------------
 Rotational constants (GHZ):           1.7995132           1.2526867           0.7385579
 Standard basis: VSTO-6G (5D, 7F)
 There are    28 symmetry adapted cartesian basis functions of A'  symmetry.
 There are     8 symmetry adapted cartesian basis functions of A"  symmetry.
 There are    28 symmetry adapted basis functions of A'  symmetry.
 There are     8 symmetry adapted basis functions of A"  symmetry.
    36 basis functions,   216 primitive gaussians,    36 cartesian basis functions
    22 alpha electrons       21 beta electrons
       nuclear repulsion energy       195.8863001658 Hartrees.
 Integral buffers will be    131072 words long.
 Regular integral format.
 Two-electron integral symmetry is turned off.
 Do NDO integrals.
 One-electron integrals computed using PRISM.
 NBasis=    36 RedAO= T EigKep=  1.00D+00  NBF=    28     8
 NBsUse=    36 1.00D-06 EigRej= -1.00D+00 NBFU=    28     8
 Initial guess from the checkpoint file:  "geometry_chks/12ClBzAnionRadical.chk"
 B after Tr=     0.000000   -0.000000    0.000000
         Rot=    1.000000    0.000000   -0.000000   -0.000001 Ang=  -0.00 deg.
 Initial guess orbital symmetries:
 Alpha Orbitals:
       Occupied  (A') (A') (A') (A') (A') (A') (A') (A') (A') (A')
                 (A") (A") (A') (A') (A') (A") (A') (A') (A') (A")
                 (A") (A')
       Virtual   (A') (A') (A') (A") (A") (A') (A') (A") (A') (A')
                 (A') (A') (A') (A')
 Beta  Orbitals:
       Occupied  (A') (A') (A') (A') (A') (A') (A') (A') (A') (A')
                 (A") (A") (A') (A') (A') (A") (A') (A") (A') (A')
                 (A")
       Virtual   (A") (A') (A") (A') (A') (A') (A') (A') (A") (A')
                 (A') (A') (A') (A') (A')
 Initial guess <Sx>= 0.0000 <Sy>= 0.0000 <Sz>= 0.5000 <S**2>= 1.0857 S= 0.6557
 Keep J ints in memory in canonical form, NReq=862905.
 Overlap will be assumed to be unity.
 Requested convergence on RMS density matrix=1.00D-08 within 128 cycles.
 Requested convergence on MAX density matrix=1.00D-06.
 Requested convergence on             energy=1.00D-06.
 No special actions if energy rises.
 Fock symm off for IB=2 I1=    1 I=   29 J=   22 Cut=1.00D-07 Err=8.81D-03
 Fock matrix is not symmetric: symmetry in diagonalization turned off.
 SCF Done:  E(UAM1) =  0.477710380822     A.U. after   34 cycles
            NFock= 33  Conv=0.54D-08     -V/T= 1.0052
 <Sx>= 0.0000 <Sy>= 0.0000 <Sz>= 0.5000 <S**2>= 0.8898 S= 0.5676
 <L.S>=  0.00000000000    
 Annihilation of the first spin contaminant:
 S**2 before annihilation     0.8898,   after     0.7515
 Calling FoFJK, ICntrl=      2127 FMM=F ISym2X=1 I1Cent= 0 IOpClX= 1 NMat=1 NMatS=1 NMatT=0.
 ***** Axes restored to original set *****
 -------------------------------------------------------------------
 Center     Atomic                   Forces (Hartrees/Bohr)
 Number     Number              X              Y              Z
 -------------------------------------------------------------------
      1        6           0.054303578   -0.003023575   -0.000000000
      2        6           0.038013219   -0.014553654   -0.000000000
      3        6          -0.069977064   -0.058891696    0.000000000
      4        6          -0.073110918    0.054960027   -0.000000000
      5        6           0.037170246    0.016608359   -0.000000000
      6        6           0.054048700    0.006007381   -0.000000000
      7       17           0.034251959    0.015782610    0.000000000
      8       17           0.035070476   -0.013880968   -0.000000000
      9        1          -0.058738560    0.034046501    0.000000000
     10        1          -0.000553041    0.124600233    0.000000000
     11        1           0.006289348   -0.124443708    0.000000000
     12        1          -0.056767943   -0.037211510    0.000000000
 -------------------------------------------------------------------
 Cartesian Forces:  Max     0.124600233 RMS     0.043803026

 GradGradGradGradGradGradGradGradGradGradGradGradGradGradGradGradGradGrad
 Berny optimization.
 Using GEDIIS/GDIIS optimizer.
 FormGI is forming the generalized inverse of G from B-inverse, IUseBI=4.
 Internal  Forces:  Max     0.165628970 RMS     0.052329406
 Search for a local minimum.
 Step number   3 out of a maximum of   64
 All quantities printed in internal units (Hartrees-Bohrs-Radians)
 Mixed Optimization -- RFO/linear search
 Update second derivatives using D2CorX and points    1    3    2
 ITU=  0  1  0
 Use linear search instead of GDIIS.
     Eigenvalues ---    0.00251   0.02011   0.02011   0.02011   0.02011
     Eigenvalues ---    0.02011   0.02011   0.02011   0.02011   0.02011
     Eigenvalues ---    0.06524   0.06524   0.06819   0.15974   0.15994
     Eigenvalues ---    0.16000   0.16000   0.22000   0.22248   0.24524
     Eigenvalues ---    0.25000   0.25015   0.28478   0.29033   0.35980
     Eigenvalues ---    0.41246   0.44574   0.44654   0.44657   0.61258
 RFO step:  Lambda=-1.79928906D-01 EMin= 2.50645538D-03
 Quartic linear search produced a step of -0.94283.
 Maximum step size (   0.505) exceeded in Quadratic search.
    -- Step size scaled by   0.523
 Iteration  1 RMS(Cart)=  0.11608418 RMS(Int)=  0.01782670
 Iteration  2 RMS(Cart)=  0.02624019 RMS(Int)=  0.00015202
 Iteration  3 RMS(Cart)=  0.00018081 RMS(Int)=  0.00007488
 Iteration  4 RMS(Cart)=  0.00000002 RMS(Int)=  0.00007488
 ClnCor:  largest displacement from symmetrization is 2.66D-08 for atom     8.
 Variable       Old X    -DE/DX   Delta X   Delta X   Delta X     New X
                                 (Linear)    (Quad)   (Total)
    R1        2.79803  -0.11094  -0.15350   0.00400  -0.14957   2.64846
    R2        2.74726  -0.08647  -0.09241   0.02048  -0.07206   2.67520
    R3        3.36722  -0.03755  -0.05202  -0.03938  -0.09140   3.27581
    R4        2.85894  -0.14854  -0.22864  -0.01908  -0.24766   2.61128
    R5        2.98271  -0.12460   0.17390  -0.30306  -0.12916   2.85355
    R6        2.90937  -0.16563  -0.28742  -0.03158  -0.31886   2.59051
    R7        3.19385  -0.06786   0.03117  -0.17972  -0.14856   3.04529
    R8        2.85895  -0.14854  -0.22864  -0.01909  -0.24766   2.61129
    R9        3.19393  -0.06787   0.03109  -0.17971  -0.14862   3.04531
   R10        2.79800  -0.11093  -0.15349   0.00401  -0.14954   2.64846
   R11        2.98268  -0.12460   0.17389  -0.30308  -0.12919   2.85350
   R12        3.36720  -0.03754  -0.05202  -0.03937  -0.09139   3.27581
    A1        2.12947  -0.01459  -0.04337  -0.01244  -0.05602   2.07345
    A2        2.08376   0.00129   0.01201   0.00206   0.01417   2.09793
    A3        2.06995   0.01331   0.03136   0.01039   0.04185   2.11181
    A4        2.07034   0.00697   0.03017   0.00924   0.03942   2.10975
    A5        2.10055  -0.00458  -0.01188  -0.01082  -0.02270   2.07784
    A6        2.11230  -0.00239  -0.01829   0.00158  -0.01671   2.09559
    A7        2.08338   0.00762   0.01320   0.00321   0.01661   2.09998
    A8        2.10118  -0.00111  -0.00837  -0.00330  -0.01176   2.08942
    A9        2.09863  -0.00651  -0.00483   0.00009  -0.00484   2.09378
   A10        2.08335   0.00763   0.01322   0.00320   0.01662   2.09997
   A11        2.09864  -0.00652  -0.00484   0.00009  -0.00485   2.09379
   A12        2.10119  -0.00111  -0.00837  -0.00329  -0.01177   2.08942
   A13        2.07035   0.00697   0.03016   0.00924   0.03941   2.10976
   A14        2.11229  -0.00239  -0.01829   0.00158  -0.01671   2.09558
   A15        2.10055  -0.00458  -0.01188  -0.01082  -0.02270   2.07785
   A16        2.12948  -0.01460  -0.04338  -0.01245  -0.05603   2.07345
   A17        2.06994   0.01331   0.03137   0.01039   0.04186   2.11180
   A18        2.08376   0.00129   0.01201   0.00206   0.01417   2.09793
    D1       -0.00000   0.00000   0.00000   0.00000   0.00000   0.00000
    D2        3.14159   0.00000   0.00000   0.00000   0.00000   3.14159
    D3        3.14159  -0.00000   0.00000  -0.00000   0.00000   3.14159
    D4        0.00000   0.00000   0.00000   0.00000  -0.00000   0.00000
    D5        0.00000  -0.00000   0.00000  -0.00000  -0.00000   0.00000
    D6        3.14159  -0.00000   0.00000  -0.00000   0.00000   3.14159
    D7        3.14159   0.00000   0.00000  -0.00000   0.00000   3.14159
    D8       -0.00000  -0.00000   0.00000   0.00000   0.00000   0.00000
    D9        0.00000   0.00000   0.00000   0.00000   0.00000   0.00000
   D10        3.14159   0.00000   0.00000   0.00000   0.00000   3.14159
   D11        3.14159  -0.00000   0.00000  -0.00000   0.00000   3.14159
   D12        0.00000  -0.00000   0.00000  -0.00000  -0.00000   0.00000
   D13        0.00000  -0.00000   0.00000  -0.00000  -0.00000   0.00000
   D14        3.14159   0.00000   0.00000   0.00000   0.00000   3.14159
   D15        3.14159  -0.00000   0.00000  -0.00000   0.00000   3.14159
   D16       -0.00000   0.00000   0.00000  -0.00000   0.00000   0.00000
   D17        0.00000   0.00000   0.00000   0.00000  -0.00000   0.00000
   D18        3.14159   0.00000   0.00000   0.00000   0.00000   3.14159
   D19        3.14159  -0.00000   0.00000  -0.00000   0.00000   3.14159
   D20        0.00000   0.00000   0.00000  -0.00000   0.00000   0.00000
   D21       -0.00000  -0.00000   0.00000   0.00000   0.00000   0.00000
   D22        3.14159   0.00000   0.00000   0.00000   0.00000   3.14159
   D23        3.14159  -0.00000   0.00000   0.00000   0.00000   3.14159
   D24        0.00000  -0.00000   0.00000  -0.00000  -0.00000   0.00000
         Item               Value     Threshold  Converged?
 Maximum Force            0.165629     0.000450     NO 
 RMS     Force            0.052329     0.000300     NO 
 Maximum Displacement     0.374910     0.001800     NO 
 RMS     Displacement     0.137911     0.001200     NO 
 Predicted change in Energy=-8.456921D-02
 GradGradGradGradGradGradGradGradGradGradGradGradGradGradGradGradGradGrad

                          Input orientation:                          
 ---------------------------------------------------------------------
 Center     Atomic      Atomic             Coordinates (Angstroms)
 Number     Number       Type             X           Y           Z
 ---------------------------------------------------------------------
      1          6           0       -3.194383    0.204718    0.000000
      2          6           0       -1.985240    0.913369   -0.000000
      3          6           0       -0.773710    0.248800   -0.000000
      4          6           0       -0.736059   -1.121525   -0.000000
      5          6           0       -1.909282   -1.851601   -0.000000
      6          6           0       -3.155506   -1.210402    0.000000
      7         17           0       -4.616354   -2.143614    0.000000
      8         17           0       -4.704263    1.056323    0.000000
      9          1           0        0.681612   -1.887792   -0.000000
     10          1           0       -1.861185   -3.360841   -0.000000
     11          1           0       -2.020078    2.423000   -0.000000
     12          1           0        0.599748    1.091735   -0.000000
 ---------------------------------------------------------------------
                    Distance matrix (angstroms):
                    1          2          3          4          5
     1  C    0.000000
     2  C    1.401503   0.000000
     3  C    2.421073   1.381830   0.000000
     4  C    2.793255   2.387727   1.370841   0.000000
     5  C    2.424857   2.766013   2.387720   1.381833   0.000000
     6  C    1.415654   2.424855   2.793245   2.421078   1.401503
     7  Cl   2.745299   4.033350   4.526539   4.012649   2.722777
     8  Cl   1.733485   2.722779   4.012647   4.526551   4.033354
     9  H    4.404762   3.867635   2.585147   1.611508   2.591147
    10  H    3.806656   4.276010   3.769895   2.506082   1.510006
    11  H    2.509933   1.510034   2.506109   3.769929   4.276037
    12  H    3.896437   2.591134   1.611499   2.585130   3.867616
                    6          7          8          9         10
     6  C    0.000000
     7  Cl   1.733483   0.000000
     8  Cl   2.745303   3.201144   0.000000
     9  H    3.896451   5.304139   6.138034   0.000000
    10  H    2.509912   3.012076   5.253041   2.938654   0.000000
    11  H    3.806679   5.253058   3.012085   5.087441   5.786024
    12  H    4.404743   6.138013   5.304130   2.980651   5.087398
                   11         12
    11  H    0.000000
    12  H    2.938666   0.000000
 Stoichiometry    C6H4Cl2(1-,2)
 Framework group  CS[SG(C6H4Cl2)]
 Deg. of freedom    21
 Full point group                 CS      NOp   2
 Largest Abelian subgroup         CS      NOp   2
 Largest concise Abelian subgroup C1      NOp   1
                         Standard orientation:                         
 ---------------------------------------------------------------------
 Center     Atomic      Atomic             Coordinates (Angstroms)
 Number     Number       Type             X           Y           Z
 ---------------------------------------------------------------------
      1          6           0       -0.090938   -0.703438   -0.000000
      2          6           0        1.091302   -1.456114    0.000000
      3          6           0        2.326472   -0.836589    0.000000
      4          6           0        2.414535    0.531421    0.000000
      5          6           0        1.268980    1.304186    0.000000
      6          6           0        0.000000    0.709292   -0.000000
      7         17           0       -1.425509    1.695642   -0.000000
      8         17           0       -1.631141   -1.498891   -0.000000
      9          1           0        3.859451    1.244988    0.000000
     10          1           0        1.372596    2.810633    0.000000
     11          1           0        1.000921   -2.963440    0.000000
     12          1           0        3.667973   -1.729506    0.000000
 ---------------------------------------------------------------------
 Rotational constants (GHZ):           1.8737159           1.3904340           0.7981491
 Standard basis: VSTO-6G (5D, 7F)
 There are    28 symmetry adapted cartesian basis functions of A'  symmetry.
 There are     8 symmetry adapted cartesian basis functions of A"  symmetry.
 There are    28 symmetry adapted basis functions of A'  symmetry.
 There are     8 symmetry adapted basis functions of A"  symmetry.
    36 basis functions,   216 primitive gaussians,    36 cartesian basis functions
    22 alpha electrons       21 beta electrons
       nuclear repulsion energy       201.7887913839 Hartrees.
 Integral buffers will be    131072 words long.
 Regular integral format.
 Two-electron integral symmetry is turned off.
 Do NDO integrals.
 One-electron integrals computed using PRISM.
 NBasis=    36 RedAO= T EigKep=  1.00D+00  NBF=    28     8
 NBsUse=    36 1.00D-06 EigRej= -1.00D+00 NBFU=    28     8
 Lowest energy guess from the checkpoint file:  "geometry_chks/12ClBzAnionRadical.chk"
 B after Tr=     0.000000   -0.000000    0.000000
         Rot=    0.999484   -0.000000    0.000000    0.032135 Ang=   3.68 deg.
 B after Tr=     0.000000   -0.000000    0.000000
         Rot=    0.999483   -0.000000    0.000000    0.032137 Ang=   3.68 deg.
 Initial guess orbital symmetries:
 Alpha Orbitals:
       Occupied  (A') (A') (A') (A') (A') (A') (A") (A') (A') (A')
                 (A") (A') (A") (A') (A") (A") (A") (A") (A") (A")
                 (A") (A")
       Virtual   (A') (A') (A') (A') (A') (A') (A") (A') (A') (A')
                 (A") (A') (A") (A')
 Beta  Orbitals:
       Occupied  (A') (A') (A') (A') (A") (A') (A') (A') (A') (A')
                 (A') (A") (A') (A") (A') (A") (A") (A") (A") (A")
                 (A")
       Virtual   (A') (A') (A') (A') (A") (A') (A') (A') (A') (A')
                 (A') (A") (A') (A") (A')
 Initial guess <Sx>= 0.0000 <Sy>= 0.0000 <Sz>= 0.5000 <S**2>= 1.0700 S= 0.6489
 Keep J ints in memory in canonical form, NReq=862905.
 Overlap will be assumed to be unity.
 Requested convergence on RMS density matrix=1.00D-08 within 128 cycles.
 Requested convergence on MAX density matrix=1.00D-06.
 Requested convergence on             energy=1.00D-06.
 No special actions if energy rises.
 An orbital has undefined symmetry, so N**3 symmetry is turned off.
 SCF Done:  E(UAM1) =  0.313859613244     A.U. after   38 cycles
            NFock= 37  Conv=0.69D-08     -V/T= 1.0034
 <Sx>= 0.0000 <Sy>= 0.0000 <Sz>= 0.5000 <S**2>= 0.8624 S= 0.5547
 <L.S>=  0.00000000000    
 Annihilation of the first spin contaminant:
 S**2 before annihilation     0.8624,   after     0.7515
 Calling FoFJK, ICntrl=      2127 FMM=F ISym2X=1 I1Cent= 0 IOpClX= 1 NMat=1 NMatS=1 NMatT=0.
 ***** Axes restored to original set *****
 -------------------------------------------------------------------
 Center     Atomic                   Forces (Hartrees/Bohr)
 Number     Number              X              Y              Z
 -------------------------------------------------------------------
      1        6           0.001612080    0.000898467    0.000000000
      2        6           0.005622786    0.099204822   -0.000000000
      3        6           0.037085674    0.020012288   -0.000000000
      4        6           0.038126068   -0.017945636   -0.000000000
      5        6           0.011063043   -0.098749436   -0.000000000
      6        6           0.001658651   -0.000807125   -0.000000000
      7       17           0.011242942    0.006571845   -0.000000000
      8       17           0.011587604   -0.005945507    0.000000000
      9        1          -0.058006004    0.031781293    0.000000000
     10        1          -0.005116047    0.116593422    0.000000000
     11        1           0.001293449   -0.116698855    0.000000000
     12        1          -0.056170245   -0.034915578    0.000000000
 -------------------------------------------------------------------
 Cartesian Forces:  Max     0.116698855 RMS     0.040700122

 GradGradGradGradGradGradGradGradGradGradGradGradGradGradGradGradGradGrad
 Berny optimization.
 Using GEDIIS/GDIIS optimizer.
 FormGI is forming the generalized inverse of G from B-inverse, IUseBI=4.
 Internal  Forces:  Max     0.116697634 RMS     0.026707016
 Search for a local minimum.
 Step number   4 out of a maximum of   64
 All quantities printed in internal units (Hartrees-Bohrs-Radians)
 Mixed Optimization -- RFO/linear search
 Update second derivatives using D2CorX and points    2    4
 DE= -9.82D-02 DEPred=-8.46D-02 R= 1.16D+00
 TightC=F SS=  1.41D+00  RLast= 5.17D-01 DXNew= 8.4853D-01 1.5509D+00
 Trust test= 1.16D+00 RLast= 5.17D-01 DXMaxT set to 8.49D-01
 ITU=  1  0  1  0
 Use linear search instead of GDIIS.
     Eigenvalues ---   -0.11481   0.01733   0.02011   0.02011   0.02011
     Eigenvalues ---    0.02011   0.02011   0.02011   0.02011   0.02011
     Eigenvalues ---    0.02011   0.06524   0.06524   0.06871   0.15991
     Eigenvalues ---    0.16000   0.16000   0.16129   0.22000   0.22998
     Eigenvalues ---    0.24464   0.25000   0.25012   0.29033   0.30782
     Eigenvalues ---    0.40673   0.44501   0.44610   0.44657   0.49960
 RFO step:  Lambda=-2.07123943D-01 EMin=-1.14807042D-01
 Skip linear search -- no minimum in search direction.
 Maximum step size (   0.849) exceeded in Quadratic search.
    -- Step size scaled by   0.670
 Iteration  1 RMS(Cart)=  0.05414155 RMS(Int)=  0.05869609
 Iteration  2 RMS(Cart)=  0.04311900 RMS(Int)=  0.01688169
 Iteration  3 RMS(Cart)=  0.01688072 RMS(Int)=  0.00009362
 Iteration  4 RMS(Cart)=  0.00000315 RMS(Int)=  0.00009359
 Iteration  5 RMS(Cart)=  0.00000000 RMS(Int)=  0.00009359
 ClnCor:  largest displacement from symmetrization is 1.04D-08 for atom     9.
 Variable       Old X    -DE/DX   Delta X   Delta X   Delta X     New X
                                 (Linear)    (Quad)   (Total)
    R1        2.64846  -0.01552   0.00000  -0.00223  -0.00215   2.64631
    R2        2.67520  -0.01388   0.00000  -0.08973  -0.08956   2.58563
    R3        3.27581  -0.01301   0.00000   0.04559   0.04559   3.32140
    R4        2.61128  -0.02147   0.00000   0.08440   0.08432   2.69560
    R5        2.85355  -0.11670   0.00000  -0.48567  -0.48567   2.36788
    R6        2.59051  -0.02358   0.00000   0.14945   0.14929   2.73980
    R7        3.04529  -0.06614   0.00000  -0.30082  -0.30082   2.74448
    R8        2.61129  -0.02147   0.00000   0.08442   0.08433   2.69562
    R9        3.04531  -0.06614   0.00000  -0.30103  -0.30103   2.74428
   R10        2.64846  -0.01552   0.00000  -0.00227  -0.00218   2.64628
   R11        2.85350  -0.11670   0.00000  -0.48556  -0.48556   2.36794
   R12        3.27581  -0.01301   0.00000   0.04557   0.04557   3.32138
    A1        2.07345  -0.00161   0.00000   0.05871   0.05897   2.13242
    A2        2.09793  -0.00004   0.00000  -0.01799  -0.01812   2.07981
    A3        2.11181   0.00165   0.00000  -0.04072  -0.04085   2.07096
    A4        2.10975  -0.00037   0.00000  -0.04672  -0.04671   2.06304
    A5        2.07784  -0.00181   0.00000   0.02176   0.02176   2.09960
    A6        2.09559   0.00218   0.00000   0.02495   0.02495   2.12054
    A7        2.09998   0.00198   0.00000  -0.01202  -0.01227   2.08771
    A8        2.08942  -0.00042   0.00000   0.01819   0.01831   2.10773
    A9        2.09378  -0.00156   0.00000  -0.00617  -0.00604   2.08774
   A10        2.09997   0.00198   0.00000  -0.01195  -0.01221   2.08776
   A11        2.09379  -0.00157   0.00000  -0.00621  -0.00608   2.08772
   A12        2.08942  -0.00042   0.00000   0.01816   0.01829   2.10771
   A13        2.10976  -0.00037   0.00000  -0.04674  -0.04674   2.06302
   A14        2.09558   0.00218   0.00000   0.02498   0.02497   2.12056
   A15        2.07785  -0.00181   0.00000   0.02177   0.02177   2.09961
   A16        2.07345  -0.00161   0.00000   0.05872   0.05897   2.13242
   A17        2.11180   0.00165   0.00000  -0.04072  -0.04084   2.07096
   A18        2.09793  -0.00004   0.00000  -0.01800  -0.01813   2.07980
    D1       -0.00000  -0.00000   0.00000  -0.00000   0.00000   0.00000
    D2        3.14159   0.00000   0.00000   0.00000   0.00000   3.14159
    D3        3.14159  -0.00000   0.00000  -0.00000   0.00000   3.14159
    D4        0.00000   0.00000   0.00000   0.00000  -0.00000   0.00000
    D5        0.00000   0.00000   0.00000  -0.00000  -0.00000   0.00000
    D6        3.14159  -0.00000   0.00000  -0.00000   0.00000   3.14159
    D7        3.14159   0.00000   0.00000   0.00000   0.00000   3.14159
    D8       -0.00000  -0.00000   0.00000  -0.00000   0.00000   0.00000
    D9        0.00000  -0.00000   0.00000   0.00000  -0.00000   0.00000
   D10        3.14159   0.00000   0.00000   0.00000   0.00000   3.14159
   D11        3.14159  -0.00000   0.00000  -0.00000   0.00000   3.14159
   D12       -0.00000  -0.00000   0.00000  -0.00000   0.00000   0.00000
   D13       -0.00000   0.00000   0.00000   0.00000   0.00000   0.00000
   D14        3.14159   0.00000   0.00000   0.00000   0.00000   3.14159
   D15        3.14159  -0.00000   0.00000  -0.00000   0.00000   3.14159
   D16        0.00000   0.00000   0.00000   0.00000  -0.00000   0.00000
   D17        0.00000   0.00000   0.00000  -0.00000   0.00000   0.00000
   D18        3.14159   0.00000   0.00000   0.00000   0.00000   3.14159
   D19        3.14159  -0.00000   0.00000  -0.00000   0.00000   3.14159
   D20       -0.00000   0.00000   0.00000   0.00000   0.00000   0.00000
   D21       -0.00000  -0.00000   0.00000   0.00000   0.00000   0.00000
   D22        3.14159   0.00000   0.00000   0.00000   0.00000   3.14159
   D23        3.14159  -0.00000   0.00000  -0.00000   0.00000   3.14159
   D24       -0.00000  -0.00000   0.00000   0.00000   0.00000   0.00000
         Item               Value     Threshold  Converged?
 Maximum Force            0.116698     0.000450     NO 
 RMS     Force            0.026707     0.000300     NO 
 Maximum Displacement     0.400129     0.001800     NO 
 RMS     Displacement     0.096118     0.001200     NO 
 Predicted change in Energy=-1.688272D-01
 GradGradGradGradGradGradGradGradGradGradGradGradGradGradGradGradGradGrad

                          Input orientation:                          
 ---------------------------------------------------------------------
 Center     Atomic      Atomic             Coordinates (Angstroms)
 Number     Number       Type             X           Y           Z
 ---------------------------------------------------------------------
      1          6           0       -3.141285    0.182464   -0.000000
      2          6           0       -1.976950    0.960509   -0.000000
      3          6           0       -0.717987    0.289857   -0.000000
      4          6           0       -0.678196   -1.159437   -0.000000
      5          6           0       -1.898435   -1.898224   -0.000000
      6          6           0       -3.103711   -1.185279   -0.000000
      7         17           0       -4.622281   -2.070203    0.000000
      8         17           0       -4.706163    0.982684    0.000000
      9          1           0        0.603497   -1.842207   -0.000000
     10          1           0       -1.905135   -3.151265   -0.000000
     11          1           0       -2.052436    2.211261   -0.000000
     12          1           0        0.524382    1.042010   -0.000000
 ---------------------------------------------------------------------
                    Distance matrix (angstroms):
                    1          2          3          4          5
     1  C    0.000000
     2  C    1.400368   0.000000
     3  C    2.425677   1.426451   0.000000
     4  C    2.804908   2.486148   1.449840   0.000000
     5  C    2.423621   2.859811   2.486193   1.426461   0.000000
     6  C    1.368259   2.423633   2.804943   2.425653   1.400350
     7  Cl   2.695897   4.022809   4.562170   4.047876   2.729270
     8  Cl   1.757611   2.729303   4.047908   4.562149   4.022806
     9  H    4.257075   3.809715   2.508389   1.452209   2.502559
    10  H    3.555533   4.112401   3.640142   2.339392   1.253059
    11  H    2.302523   1.253028   2.339348   3.640075   4.112370
    12  H    3.765094   2.502660   1.452314   2.508498   3.809858
                    6          7          8          9         10
     6  C    0.000000
     7  Cl   1.757597   0.000000
     8  Cl   2.695907   3.054040   0.000000
     9  H    3.764963   5.230750   6.014358   0.000000
    10  H    2.302539   2.924308   4.993525   2.829641   0.000000
    11  H    3.555512   4.993500   2.924324   4.846090   5.364549
    12  H    4.257214   6.014484   5.230882   2.885302   4.846246
                   11         12
    11  H    0.000000
    12  H    2.829689   0.000000
 Stoichiometry    C6H4Cl2(1-,2)
 Framework group  CS[SG(C6H4Cl2)]
 Deg. of freedom    21
 Full point group                 CS      NOp   2
 Largest Abelian subgroup         CS      NOp   2
 Largest concise Abelian subgroup C1      NOp   1
                         Standard orientation:                         
 ---------------------------------------------------------------------
 Center     Atomic      Atomic             Coordinates (Angstroms)
 Number     Number       Type             X           Y           Z
 ---------------------------------------------------------------------
      1          6           0        0.000000   -0.684166    0.000000
      2          6           0        1.193329   -1.416966    0.000000
      3          6           0        2.425634   -0.698504    0.000000
      4          6           0        2.409791    0.751249    0.000000
      5          6           0        1.162104    1.442675    0.000000
      6          6           0       -0.014930    0.684011    0.000000
      7         17           0       -1.566334    1.510021    0.000000
      8         17           0       -1.533023   -1.543837    0.000000
      9          1           0        3.664344    1.482691    0.000000
     10          1           0        1.107334    2.694536    0.000000
     11          1           0        1.165887   -2.669694    0.000000
     12          1           0        3.695947   -1.402437    0.000000
 ---------------------------------------------------------------------
 Rotational constants (GHZ):           1.9842676           1.3644159           0.8084868
 Standard basis: VSTO-6G (5D, 7F)
 There are    28 symmetry adapted cartesian basis functions of A'  symmetry.
 There are     8 symmetry adapted cartesian basis functions of A"  symmetry.
 There are    28 symmetry adapted basis functions of A'  symmetry.
 There are     8 symmetry adapted basis functions of A"  symmetry.
    36 basis functions,   216 primitive gaussians,    36 cartesian basis functions
    22 alpha electrons       21 beta electrons
       nuclear repulsion energy       202.6512319087 Hartrees.
 Integral buffers will be    131072 words long.
 Regular integral format.
 Two-electron integral symmetry is turned off.
 Do NDO integrals.
 One-electron integrals computed using PRISM.
 NBasis=    36 RedAO= T EigKep=  1.00D+00  NBF=    28     8
 NBsUse=    36 1.00D-06 EigRej= -1.00D+00 NBFU=    28     8
 Initial guess from the checkpoint file:  "geometry_chks/12ClBzAnionRadical.chk"
 B after Tr=    -0.000000    0.000000   -0.000000
         Rot=    0.999293   -0.000000   -0.000000   -0.037586 Ang=  -4.31 deg.
 Initial guess orbital symmetries:
 Alpha Orbitals:
       Occupied  (A') (A') (A') (A') (A') (A') (A') (A') (A') (A')
                 (A") (A") (A') (A') (A') (A') (A") (A') (A') (A")
                 (A") (A')
       Virtual   (A") (A') (A') (A") (A') (A') (A') (A") (A') (A')
                 (A') (A') (A') (A')
 Beta  Orbitals:
       Occupied  (A') (A') (A') (A') (A') (A') (A') (A') (A') (A')
                 (A") (A") (A') (A') (A') (A') (A") (A') (A") (A')
                 (A")
       Virtual   (A") (A') (A") (A') (A') (A') (A') (A") (A') (A')
                 (A') (A') (A') (A') (A')
 Initial guess <Sx>= 0.0000 <Sy>= 0.0000 <Sz>= 0.5000 <S**2>= 0.8624 S= 0.5547
 Keep J ints in memory in canonical form, NReq=862905.
 Overlap will be assumed to be unity.
 Requested convergence on RMS density matrix=1.00D-08 within 128 cycles.
 Requested convergence on MAX density matrix=1.00D-06.
 Requested convergence on             energy=1.00D-06.
 No special actions if energy rises.
 Fock symm off for IB=2 I1=    1 I=   29 J=   20 Cut=1.00D-07 Err=1.91D-03
 Fock matrix is not symmetric: symmetry in diagonalization turned off.
 SCF Done:  E(UAM1) =  0.194195141193     A.U. after   43 cycles
            NFock= 42  Conv=0.82D-08     -V/T= 1.0021
 <Sx>= 0.0000 <Sy>= 0.0000 <Sz>= 0.5000 <S**2>= 0.7758 S= 0.5128
 <L.S>=  0.00000000000    
 Annihilation of the first spin contaminant:
 S**2 before annihilation     0.7758,   after     0.7501
 Calling FoFJK, ICntrl=      2127 FMM=F ISym2X=1 I1Cent= 0 IOpClX= 1 NMat=1 NMatS=1 NMatT=0.
 ***** Axes restored to original set *****
 -------------------------------------------------------------------
 Center     Atomic                   Forces (Hartrees/Bohr)
 Number     Number              X              Y              Z
 -------------------------------------------------------------------
      1        6          -0.012496244    0.041043286   -0.000000000
      2        6           0.046916024    0.038687238   -0.000000000
      3        6          -0.002282107   -0.028546144   -0.000000000
      4        6          -0.003730183    0.028329222   -0.000000000
      5        6           0.048976522   -0.036088551   -0.000000000
      6        6          -0.010243697   -0.041653376   -0.000000000
      7       17           0.016012035    0.002494565    0.000000000
      8       17           0.016128984   -0.001615567    0.000000000
      9        1          -0.053765748    0.030905446    0.000000000
     10        1           0.001041753    0.077839869    0.000000000
     11        1           0.005314644   -0.077657521    0.000000000
     12        1          -0.051871985   -0.033738467    0.000000000
 -------------------------------------------------------------------
 Cartesian Forces:  Max     0.077839869 RMS     0.030292743

 GradGradGradGradGradGradGradGradGradGradGradGradGradGradGradGradGradGrad
 Berny optimization.
 Using GEDIIS/GDIIS optimizer.
 FormGI is forming the generalized inverse of G from B-inverse, IUseBI=4.
 Internal  Forces:  Max     0.086883201 RMS     0.026729228
 Search for a local minimum.
 Step number   5 out of a maximum of   64
 All quantities printed in internal units (Hartrees-Bohrs-Radians)
 Mixed Optimization -- RFO/linear search
 Update second derivatives using D2CorX and points    4    5
 DE= -1.20D-01 DEPred=-1.69D-01 R= 7.09D-01
 TightC=F SS=  1.41D+00  RLast= 8.49D-01 DXNew= 1.4270D+00 2.5456D+00
 Trust test= 7.09D-01 RLast= 8.49D-01 DXMaxT set to 1.43D+00
 ITU=  1  1  0  1  0
 Use linear search instead of GDIIS.
     Eigenvalues ---    0.01585   0.02011   0.02011   0.02011   0.02011
     Eigenvalues ---    0.02011   0.02011   0.02011   0.02011   0.02011
     Eigenvalues ---    0.05913   0.06524   0.06524   0.14337   0.15991
     Eigenvalues ---    0.16000   0.16000   0.17718   0.22000   0.23974
     Eigenvalues ---    0.24526   0.25000   0.25342   0.29033   0.37265
     Eigenvalues ---    0.40915   0.44592   0.44640   0.44657   0.50767
 RFO step:  Lambda=-1.66720904D-01 EMin= 1.58488156D-02
 Quartic linear search produced a step of  0.58981.
 Iteration  1 RMS(Cart)=  0.12614965 RMS(Int)=  0.08229002
 Iteration  2 RMS(Cart)=  0.06269996 RMS(Int)=  0.03374485
 Iteration  3 RMS(Cart)=  0.03373954 RMS(Int)=  0.00029424
 Iteration  4 RMS(Cart)=  0.00001879 RMS(Int)=  0.00029380
 Iteration  5 RMS(Cart)=  0.00000000 RMS(Int)=  0.00029380
 ClnCor:  largest displacement from symmetrization is 5.21D-09 for atom     3.
 Variable       Old X    -DE/DX   Delta X   Delta X   Delta X     New X
                                 (Linear)    (Quad)   (Total)
    R1        2.64631  -0.01159  -0.00127  -0.01080  -0.01231   2.63400
    R2        2.58563   0.02503  -0.05283   0.18405   0.13069   2.71632
    R3        3.32140  -0.01510   0.02689  -0.16447  -0.13758   3.18383
    R4        2.69560  -0.06146   0.04973  -0.24605  -0.19603   2.49957
    R5        2.36788  -0.07784  -0.28645  -0.28570  -0.57215   1.79573
    R6        2.73980  -0.08688   0.08805  -0.39611  -0.30752   2.43228
    R7        2.74448  -0.06185  -0.17742  -0.21240  -0.38983   2.35465
    R8        2.69562  -0.06144   0.04974  -0.24605  -0.19602   2.49960
    R9        2.74428  -0.06198  -0.17755  -0.21277  -0.39032   2.35396
   R10        2.64628  -0.01157  -0.00128  -0.01072  -0.01225   2.63403
   R11        2.36794  -0.07784  -0.28639  -0.28584  -0.57222   1.79571
   R12        3.32138  -0.01509   0.02688  -0.16442  -0.13754   3.18384
    A1        2.13242  -0.01966   0.03478  -0.12369  -0.08972   2.04270
    A2        2.07981   0.00003  -0.01069   0.02211   0.01183   2.09164
    A3        2.07096   0.01964  -0.02409   0.10158   0.07789   2.14885
    A4        2.06304   0.00427  -0.02755   0.06870   0.04117   2.10422
    A5        2.09960  -0.00139   0.01283  -0.04294  -0.03012   2.06948
    A6        2.12054  -0.00288   0.01472  -0.02576  -0.01105   2.10949
    A7        2.08771   0.01540  -0.00724   0.05502   0.04856   2.13627
    A8        2.10773  -0.00496   0.01080  -0.03469  -0.02428   2.08345
    A9        2.08774  -0.01044  -0.00356  -0.02033  -0.02428   2.06346
   A10        2.08776   0.01541  -0.00720   0.05498   0.04856   2.13632
   A11        2.08772  -0.01045  -0.00358  -0.02031  -0.02428   2.06343
   A12        2.10771  -0.00496   0.01079  -0.03467  -0.02428   2.08343
   A13        2.06302   0.00426  -0.02757   0.06870   0.04116   2.10418
   A14        2.12056  -0.00287   0.01473  -0.02576  -0.01105   2.10951
   A15        2.09961  -0.00139   0.01284  -0.04294  -0.03011   2.06950
   A16        2.13242  -0.01967   0.03478  -0.12371  -0.08974   2.04268
   A17        2.07096   0.01965  -0.02409   0.10159   0.07791   2.14887
   A18        2.07980   0.00003  -0.01069   0.02212   0.01183   2.09164
    D1        0.00000   0.00000   0.00000  -0.00000   0.00000   0.00000
    D2        3.14159   0.00000   0.00000  -0.00000   0.00000   3.14159
    D3        3.14159  -0.00000   0.00000  -0.00000   0.00000   3.14159
    D4        0.00000   0.00000   0.00000   0.00000   0.00000   0.00000
    D5        0.00000  -0.00000   0.00000   0.00000   0.00000   0.00000
    D6        3.14159  -0.00000   0.00000   0.00000   0.00000   3.14159
    D7        3.14159   0.00000   0.00000   0.00000   0.00000   3.14159
    D8        0.00000   0.00000   0.00000   0.00000   0.00000   0.00000
    D9        0.00000  -0.00000   0.00000  -0.00000   0.00000   0.00000
   D10        3.14159   0.00000   0.00000   0.00000   0.00000   3.14159
   D11        3.14159  -0.00000   0.00000  -0.00000   0.00000   3.14159
   D12        0.00000  -0.00000   0.00000  -0.00000   0.00000   0.00000
   D13        0.00000  -0.00000   0.00000   0.00000   0.00000   0.00000
   D14        3.14159   0.00000   0.00000   0.00000   0.00000   3.14159
   D15        3.14159  -0.00000   0.00000  -0.00000   0.00000   3.14159
[...]
     7  Cl   1.684814   0.000000
     8  Cl   2.747950   3.278582   0.000000
     9  H    3.493874   4.883890   5.651115   0.000000
    10  H    2.028015   2.758905   4.765248   2.436198   0.000000
    11  H    3.275873   4.765253   2.758881   4.157737   4.604466
    12  H    3.969131   5.651521   4.884178   2.465581   4.158090
                   11         12
    11  H    0.000000
    12  H    2.436401   0.000000
 Stoichiometry    C6H4Cl2(1-,2)
 Framework group  CS[SG(C6H4Cl2)]
 Deg. of freedom    21
 Full point group                 CS      NOp   2
 Largest Abelian subgroup         CS      NOp   2
 Largest concise Abelian subgroup C1      NOp   1
                         Standard orientation:                         
 ---------------------------------------------------------------------
 Center     Atomic      Atomic             Coordinates (Angstroms)
 Number     Number       Type             X           Y           Z
 ---------------------------------------------------------------------
      1          6           0       -0.063080   -0.718703    0.000000
      2          6           0        1.178435   -1.352320    0.000000
      3          6           0        2.295247   -0.643584    0.000000
      4          6           0        2.295247    0.643522    0.000000
      5          6           0        1.178456    1.352319    0.000000
      6          6           0       -0.063080    0.718713    0.000000
      7         17           0       -1.474144    1.639308    0.000000
      8         17           0       -1.474153   -1.639274    0.000000
      9          1           0        3.392787    1.232659    0.000000
     10          1           0        1.203933    2.302229    0.000000
     11          1           0        1.203887   -2.302237    0.000000
     12          1           0        3.393092   -1.232922    0.000000
 ---------------------------------------------------------------------
 Rotational constants (GHZ):           1.8863341           1.4997019           0.8354722
 Standard basis: VSTO-6G (5D, 7F)
 There are    28 symmetry adapted cartesian basis functions of A'  symmetry.
 There are     8 symmetry adapted cartesian basis functions of A"  symmetry.
 There are    28 symmetry adapted basis functions of A'  symmetry.
 There are     8 symmetry adapted basis functions of A"  symmetry.
    36 basis functions,   216 primitive gaussians,    36 cartesian basis functions
    22 alpha electrons       21 beta electrons
       nuclear repulsion energy       207.7018901492 Hartrees.
 Integral buffers will be    131072 words long.
 Regular integral format.
 Two-electron integral symmetry is turned off.
 Do NDO integrals.
 One-electron integrals computed using PRISM.
 NBasis=    36 RedAO= T EigKep=  1.00D+00  NBF=    28     8
 NBsUse=    36 1.00D-06 EigRej= -1.00D+00 NBFU=    28     8
 Initial guess from the checkpoint file:  "geometry_chks/12ClBzAnionRadical.chk"
 B after Tr=     0.000000   -0.000000   -0.000000
         Rot=    0.999985   -0.000000   -0.000000    0.005460 Ang=   0.63 deg.
 Initial guess orbital symmetries:
 Alpha Orbitals:
       Occupied  (A') (A') (A') (A') (A') (A') (A') (A') (A') (A')
                 (A") (A') (A') (A") (A') (A') (A") (A') (A') (A")
                 (A") (A')
       Virtual   (A") (A') (A") (A') (A') (A') (A") (A') (A') (A')
                 (A') (A') (A') (A')
 Beta  Orbitals:
       Occupied  (A') (A') (A') (A') (A') (A') (A') (A') (A') (A')
                 (A") (A') (A") (A') (A') (A') (A") (A') (A') (A")
                 (A")
       Virtual   (A") (A") (A') (A') (A') (A") (A') (A') (A') (A')
                 (A') (A') (A') (A') (A')
 Initial guess <Sx>= 0.0000 <Sy>= 0.0000 <Sz>= 0.5000 <S**2>= 0.7758 S= 0.5128
 Keep J ints in memory in canonical form, NReq=862905.
 Overlap will be assumed to be unity.
 Requested convergence on RMS density matrix=1.00D-08 within 128 cycles.
 Requested convergence on MAX density matrix=1.00D-06.
 Requested convergence on             energy=1.00D-06.
 No special actions if energy rises.
 Fock symm off for IB=2 I1=    1 I=   29 J=    4 Cut=1.00D-07 Err=9.87D-03
 Fock matrix is not symmetric: symmetry in diagonalization turned off.
 SCF Done:  E(UAM1) =  0.183337914944     A.U. after   47 cycles
            NFock= 46  Conv=0.45D-08     -V/T= 1.0020
 <Sx>= 0.0000 <Sy>= 0.0000 <Sz>= 0.5000 <S**2>= 0.7632 S= 0.5066
 <L.S>=  0.00000000000    
 Annihilation of the first spin contaminant:
 S**2 before annihilation     0.7632,   after     0.7500
 Calling FoFJK, ICntrl=      2127 FMM=F ISym2X=1 I1Cent= 0 IOpClX= 1 NMat=1 NMatS=1 NMatT=0.
 ***** Axes restored to original set *****
 -------------------------------------------------------------------
 Center     Atomic                   Forces (Hartrees/Bohr)
 Number     Number              X              Y              Z
 -------------------------------------------------------------------
      1        6          -0.008304280   -0.056937102   -0.000000000
      2        6          -0.061214919   -0.054170190   -0.000000000
      3        6           0.093345037    0.082158585   -0.000000000
      4        6           0.097400635   -0.076827167   -0.000000000
      5        6          -0.064029870    0.050792682   -0.000000000
      6        6          -0.011424991    0.056388764   -0.000000000
      7       17          -0.013361697   -0.004340870    0.000000000
      8       17          -0.013583750    0.003613919   -0.000000000
      9        1          -0.010591352    0.001694941    0.000000000
     10        1           0.005287458   -0.145918388    0.000000000
     11        1          -0.002729750    0.145984998    0.000000000
     12        1          -0.010792520   -0.002440170    0.000000000
 -------------------------------------------------------------------
 Cartesian Forces:  Max     0.145984998 RMS     0.051128021

 GradGradGradGradGradGradGradGradGradGradGradGradGradGradGradGradGradGrad
 Berny optimization.
 Using GEDIIS/GDIIS optimizer.
 FormGI is forming the generalized inverse of G from B-inverse, IUseBI=4.
 Internal  Forces:  Max     0.145990373 RMS     0.040658155
 Search for a local minimum.
 Step number   6 out of a maximum of   64
 All quantities printed in internal units (Hartrees-Bohrs-Radians)
 Mixed Optimization -- RFO/linear search
 Update second derivatives using D2CorX and points    5    6
 DE= -1.09D-02 DEPred=-1.92D-01 R= 5.65D-02
 Trust test= 5.65D-02 RLast= 1.11D+00 DXMaxT set to 7.14D-01
 ITU= -1  1  1  0  1  0
 Use linear search instead of GDIIS.
     Eigenvalues ---    0.02011   0.02011   0.02011   0.02011   0.02011
     Eigenvalues ---    0.02011   0.02011   0.02011   0.02011   0.05098
     Eigenvalues ---    0.06524   0.06524   0.14319   0.15991   0.16000
     Eigenvalues ---    0.16000   0.17102   0.21783   0.22000   0.24423
     Eigenvalues ---    0.25000   0.25232   0.25767   0.29033   0.40552
     Eigenvalues ---    0.44500   0.44610   0.44657   0.45165   0.60286
 RFO step:  Lambda=-5.65922655D-02 EMin= 2.01065774D-02
 Quartic linear search produced a step of -0.43640.
 Iteration  1 RMS(Cart)=  0.08062075 RMS(Int)=  0.03157734
 Iteration  2 RMS(Cart)=  0.03041761 RMS(Int)=  0.00013575
 Iteration  3 RMS(Cart)=  0.00008095 RMS(Int)=  0.00012178
 Iteration  4 RMS(Cart)=  0.00000001 RMS(Int)=  0.00012178
 ClnCor:  largest displacement from symmetrization is 9.49D-09 for atom    11.
 Variable       Old X    -DE/DX   Delta X   Delta X   Delta X     New X
                                 (Linear)    (Quad)   (Total)
    R1        2.63400   0.03813   0.00537   0.01867   0.02415   2.65815
    R2        2.71632  -0.01454  -0.05703  -0.01158  -0.06840   2.64793
    R3        3.18383   0.01347   0.06004   0.00976   0.06980   3.25363
    R4        2.49957   0.10121   0.08555   0.04079   0.12622   2.62579
    R5        1.79573   0.14599   0.24969   0.06841   0.31809   2.11382
    R6        2.43228   0.13279   0.13420   0.05841   0.19240   2.62467
    R7        2.35465  -0.01058   0.17012  -0.48377  -0.31364   2.04101
    R8        2.49960   0.10115   0.08554   0.04075   0.12618   2.62578
    R9        2.35396  -0.01023   0.17033  -0.48317  -0.31283   2.04113
   R10        2.63403   0.03816   0.00535   0.01872   0.02417   2.65820
   R11        1.79571   0.14599   0.24972   0.06838   0.31810   2.11382
   R12        3.18384   0.01346   0.06002   0.00975   0.06977   3.25361
    A1        2.04270   0.03190   0.03915   0.02555   0.06504   2.10773
    A2        2.09164  -0.00954  -0.00516  -0.02307  -0.02840   2.06324
    A3        2.14885  -0.02236  -0.03399  -0.00248  -0.03664   2.11221
    A4        2.10422  -0.01502  -0.01797  -0.03106  -0.04903   2.05518
    A5        2.06948   0.00514   0.01314   0.01321   0.02635   2.09584
    A6        2.10949   0.00987   0.00482   0.01785   0.02268   2.13216
    A7        2.13627  -0.01688  -0.02119   0.00552  -0.01601   2.12027
    A8        2.08345   0.00462   0.01060   0.00118   0.01194   2.09539
    A9        2.06346   0.01226   0.01060  -0.00669   0.00407   2.06753
   A10        2.13632  -0.01692  -0.02119   0.00549  -0.01603   2.12029
   A11        2.06343   0.01227   0.01060  -0.00672   0.00404   2.06747
   A12        2.08343   0.00465   0.01059   0.00123   0.01199   2.09542
   A13        2.10418  -0.01500  -0.01796  -0.03106  -0.04902   2.05516
   A14        2.10951   0.00986   0.00482   0.01786   0.02269   2.13219
   A15        2.06950   0.00513   0.01314   0.01319   0.02634   2.09583
   A16        2.04268   0.03192   0.03916   0.02556   0.06506   2.10774
   A17        2.14887  -0.02238  -0.03400  -0.00251  -0.03667   2.11220
   A18        2.09164  -0.00953  -0.00516  -0.02306  -0.02839   2.06325
    D1        0.00000   0.00000   0.00000   0.00000   0.00000   0.00000
    D2        3.14159   0.00000   0.00000   0.00000   0.00000   3.14159
    D3        3.14159  -0.00000   0.00000  -0.00000   0.00000   3.14159
    D4        0.00000  -0.00000   0.00000   0.00000   0.00000   0.00000
    D5        0.00000  -0.00000   0.00000  -0.00000   0.00000   0.00000
    D6        3.14159  -0.00000   0.00000  -0.00000   0.00000   3.14159
    D7        3.14159   0.00000   0.00000   0.00000   0.00000   3.14159
    D8        0.00000  -0.00000   0.00000  -0.00000   0.00000   0.00000
    D9        0.00000  -0.00000   0.00000  -0.00000   0.00000   0.00000
   D10        3.14159   0.00000   0.00000   0.00000   0.00000   3.14159
   D11        3.14159  -0.00000   0.00000  -0.00000   0.00000   3.14159
   D12        0.00000   0.00000   0.00000   0.00000   0.00000   0.00000
   D13        0.00000  -0.00000   0.00000  -0.00000   0.00000   0.00000
   D14        3.14159   0.00000   0.00000   0.00000   0.00000   3.14159
   D15        3.14159  -0.00000   0.00000  -0.00000   0.00000   3.14159
   D16        0.00000  -0.00000   0.00000  -0.00000   0.00000   0.00000
   D17        0.00000   0.00000   0.00000   0.00000   0.00000   0.00000
   D18        3.14159   0.00000   0.00000   0.00000   0.00000   3.14159
   D19        3.14159  -0.00000   0.00000  -0.00000   0.00000   3.14159
   D20        0.00000   0.00000   0.00000   0.00000   0.00000   0.00000
   D21        0.00000   0.00000   0.00000  -0.00000   0.00000   0.00000
   D22        3.14159   0.00000   0.00000   0.00000   0.00000   3.14159
   D23        3.14159  -0.00000   0.00000  -0.00000   0.00000   3.14159
   D24        0.00000   0.00000   0.00000  -0.00000   0.00000   0.00000
         Item               Value     Threshold  Converged?
 Maximum Force            0.145990     0.000450     NO 
 RMS     Force            0.040658     0.000300     NO 
 Maximum Displacement     0.448117     0.001800     NO 
 RMS     Displacement     0.103386     0.001200     NO 
 Predicted change in Energy=-9.955324D-02
 GradGradGradGradGradGradGradGradGradGradGradGradGradGradGradGradGradGrad

                          Input orientation:                          
 ---------------------------------------------------------------------
 Center     Atomic      Atomic             Coordinates (Angstroms)
 Number     Number       Type             X           Y           Z
 ---------------------------------------------------------------------
      1          6           0       -3.102625    0.200024   -0.000000
      2          6           0       -1.914145    0.952444   -0.000000
      3          6           0       -0.709692    0.259600   -0.000000
      4          6           0       -0.671556   -1.128793   -0.000000
      5          6           0       -1.836137   -1.886732   -0.000000
      6          6           0       -3.064148   -1.200671   -0.000000
      7         17           0       -4.514736   -2.128126   -0.000000
      8         17           0       -4.601937    1.046470   -0.000000
      9          1           0        0.291826   -1.617211   -0.000000
     10          1           0       -1.818735   -3.005180   -0.000000
     11          1           0       -1.958158    2.070164   -0.000000
     12          1           0        0.225342    0.800181   -0.000000
 ---------------------------------------------------------------------
                    Distance matrix (angstroms):
                    1          2          3          4          5
     1  C    0.000000
     2  C    1.406634   0.000000
     3  C    2.393674   1.389510   0.000000
     4  C    2.770532   2.423958   1.388918   0.000000
     5  C    2.441012   2.840247   2.423968   1.389503   0.000000
     6  C    1.401223   2.440986   2.770534   2.393672   1.406660
     7  Cl   2.722928   4.031499   4.492171   3.970982   2.689455
     8  Cl   1.721746   2.689436   3.970986   4.492178   4.031541
     9  H    3.850277   3.386655   2.127313   1.080119   2.144963
    10  H    3.452782   3.958773   3.448009   2.199283   1.118583
    11  H    2.192539   1.118586   2.199274   3.447995   3.958776
    12  H    3.381649   2.144898   1.080053   2.127291   3.386620
                    6          7          8          9         10
     6  C    0.000000
     7  Cl   1.721737   0.000000
     8  Cl   2.722946   3.175793   0.000000
     9  H    3.381726   4.833640   5.571724   0.000000
    10  H    2.192557   2.835074   4.915493   2.526049   0.000000
    11  H    3.452763   4.915458   2.835051   4.319625   5.077258
    12  H    3.850215   5.571653   4.833557   2.418306   4.319609
                   11         12
    11  H    0.000000
    12  H    2.525971   0.000000
 Stoichiometry    C6H4Cl2(1-,2)
 Framework group  CS[SG(C6H4Cl2)]
 Deg. of freedom    21
 Full point group                 CS      NOp   2
 Largest Abelian subgroup         CS      NOp   2
 Largest concise Abelian subgroup C1      NOp   1
                         Standard orientation:                         
 ---------------------------------------------------------------------
 Center     Atomic      Atomic             Coordinates (Angstroms)
 Number     Number       Type             X           Y           Z
 ---------------------------------------------------------------------
      1          6           0        0.000000   -0.701204    0.000000
      2          6           0        1.237317   -1.370282    0.000000
      3          6           0        2.391379   -0.596409    0.000000
      4          6           0        2.334137    0.791329    0.000000
      5          6           0        1.120284    1.467553    0.000000
      6          6           0       -0.057747    0.698829   -0.000000
      7         17           0       -1.568567    1.524540   -0.000000
      8         17           0       -1.437684   -1.648554   -0.000000
      9          1           0        3.261727    1.344713    0.000000
     10          1           0        1.060884    2.584558    0.000000
     11          1           0        1.270119   -2.488387    0.000000
     12          1           0        3.361309   -1.071541    0.000000
 ---------------------------------------------------------------------
 Rotational constants (GHZ):           1.9140518           1.4445512           0.8232428
 Standard basis: VSTO-6G (5D, 7F)
 There are    28 symmetry adapted cartesian basis functions of A'  symmetry.
 There are     8 symmetry adapted cartesian basis functions of A"  symmetry.
 There are    28 symmetry adapted basis functions of A'  symmetry.
 There are     8 symmetry adapted basis functions of A"  symmetry.
    36 basis functions,   216 primitive gaussians,    36 cartesian basis functions
    22 alpha electrons       21 beta electrons
       nuclear repulsion energy       205.5822081070 Hartrees.
 Integral buffers will be    131072 words long.
 Regular integral format.
 Two-electron integral symmetry is turned off.
 Do NDO integrals.
 One-electron integrals computed using PRISM.
 NBasis=    36 RedAO= T EigKep=  1.00D+00  NBF=    28     8
 NBsUse=    36 1.00D-06 EigRej= -1.00D+00 NBFU=    28     8
 Initial guess from the checkpoint file:  "geometry_chks/12ClBzAnionRadical.chk"
 B after Tr=    -0.000000    0.000000   -0.000000
         Rot=    0.999787   -0.000000   -0.000000   -0.020616 Ang=  -2.36 deg.
 Initial guess orbital symmetries:
 Alpha Orbitals:
       Occupied  (A') (A') (A') (A') (A') (A') (A') (A') (A') (A')
                 (A") (A') (A') (A") (A') (A') (A") (A') (A') (A")
                 (A") (A')
       Virtual   (A") (A") (A') (A') (A') (A") (A') (A') (A') (A')
                 (A') (A') (A') (A')
 Beta  Orbitals:
       Occupied  (A') (A') (A') (A') (A') (A') (A') (A') (A') (A')
                 (A") (A') (A') (A") (A') (A') (A") (A') (A') (A")
                 (A")
       Virtual   (A") (A") (A') (A') (A") (A') (A') (A') (A') (A')
                 (A') (A') (A') (A') (A')
 Initial guess <Sx>= 0.0000 <Sy>= 0.0000 <Sz>= 0.5000 <S**2>= 0.7632 S= 0.5066
 Keep J ints in memory in canonical form, NReq=862905.
 Overlap will be assumed to be unity.
 Requested convergence on RMS density matrix=1.00D-08 within 128 cycles.
 Requested convergence on MAX density matrix=1.00D-06.
 Requested convergence on             energy=1.00D-06.
 No special actions if energy rises.
 Fock symm off for IB=2 I1=    1 I=   29 J=    6 Cut=1.00D-07 Err=5.38D-03
 Fock matrix is not symmetric: symmetry in diagonalization turned off.
 Rare condition: small coef for last iteration:  0.000D+00
 Rare condition: small coef for last iteration:  0.000D+00
 Rare condition: small coef for last iteration:  0.000D+00
 Rare condition: small coef for last iteration:  0.000D+00
 Rare condition: small coef for last iteration:  0.000D+00
 Rare condition: small coef for last iteration:  0.000D+00
 Rare condition: small coef for last iteration:  0.000D+00
 Rare condition: small coef for last iteration:  0.000D+00
 Rare condition: small coef for last iteration:  0.000D+00
 Rare condition: small coef for last iteration:  0.000D+00
 Rare condition: small coef for last iteration:  0.000D+00
 Rare condition: small coef for last iteration:  0.000D+00
 Rare condition: small coef for last iteration:  0.000D+00
 Rare condition: small coef for last iteration:  0.000D+00
 >>>>>>>>>> Convergence criterion not met.
 SCF Done:  E(UAM1) =  0.130645214485     A.U. after  129 cycles
            NFock=128  Conv=0.64D-05     -V/T= 1.0014
 <Sx>= 0.0000 <Sy>= 0.0000 <Sz>= 0.5000 <S**2>= 0.7556 S= 0.5028
 <L.S>=  0.00000000000    
 Annihilation of the first spin contaminant:
 S**2 before annihilation     0.7556,   after     0.7500
 SCFChk:  SCF convergence  6.41D-06 required  1.00D-08


 SCF Error SCF Error SCF Error SCF Error SCF Error SCF Error SCF Error SCF Error

                                    ERROR!!!!

    SCF has not converged.  Gradients and post-SCF results would be GARBAGE!!

 SCF Error SCF Error SCF Error SCF Error SCF Error SCF Error SCF Error SCF Error


 Error termination via Lnk1e in /share/software/user/restricted/gaussian/g16.B01/l701.exe at Mon Dec  8 19:17:23 2025.
 Job cpu time:       0 days  0 hours  0 minutes  5.8 seconds.
 Elapsed time:       0 days  0 hours  0 minutes  8.4 seconds.
 File lengths (MBytes):  RWF=     10 Int=      0 D2E=      0 Chk=      2 Scr=      1
