 Entering Gaussian System, Link 0=g16
 Initial command:
 /share/software/user/restricted/gaussian/g16.B01/l1.exe "/home/users/jlapier/Chloroaromatics/Gau-9370.inp" -scrdir="/home/users/jlapier/Chloroaromatics/"
 Entering Link 1 = /share/software/user/restricted/gaussian/g16.B01/l1.exe PID=      9371.
  
 Copyright (c) 1988-2017, Gaussian, Inc.  All Rights Reserved.
  
 This is part of the Gaussian(R) 16 program.  It is based on
 the Gaussian(R) 09 system (copyright 2009, Gaussian, Inc.),
 the Gaussian(R) 03 system (copyright 2003, Gaussian, Inc.),
 the Gaussian(R) 98 system (copyright 1998, Gaussian, Inc.),
 the Gaussian(R) 94 system (copyright 1995, Gaussian, Inc.),
 the Gaussian 92(TM) system (copyright 1992, Gaussian, Inc.),
 the Gaussian 90(TM) system (copyright 1990, Gaussian, Inc.),
 the Gaussian 88(TM) system (copyright 1988, Gaussian, Inc.),
 the Gaussian 86(TM) system (copyright 1986, Carnegie Mellon
 University), and the Gaussian 82(TM) system (copyright 1983,
 Carnegie Mellon University). Gaussian is a federally registered
 trademark of Gaussian, Inc.
  
 This software contains proprietary and confidential information,
 including trade secrets, belonging to Gaussian, Inc.
  
 This software is provided under written license and may be
 used, copied, transmitted, or stored only in accord with that
 written license.
  
 The following legend is applicable only to US Government
 contracts under FAR:
  
                    RESTRICTED RIGHTS LEGEND
  
 Use, reproduction and disclosure by the US Government is
 subject to restrictions as set forth in subparagraphs (a)
 and (c) of the Commercial Computer Software - Restricted
 Rights clause in FAR 52.227-19.
  
 Gaussian, Inc.
 340 Quinnipiac St., Bldg. 40, Wallingford CT 06492
  
  
 ---------------------------------------------------------------
 Warning -- This program may not be used in any manner that
 competes with the business of Gaussian, Inc. or will provide
 assistance to any competitor of Gaussian, Inc.  The licensee
 of this program is prohibited from giving any competitor of
 Gaussian, Inc. access to this program.  By using this program,
 the user acknowledges that Gaussian, Inc. is engaged in the
 business of creating and licensing software in the field of
 computational chemistry and represents and warrants to the
 licensee that it is not a competitor of Gaussian, Inc. and that
 it will not use this program in any manner prohibited above.
 ---------------------------------------------------------------
  

 Cite this work as:
 Gaussian 16, Revision B.01,
 M. J. Frisch, G. W. Trucks, H. B. Schlegel, G. E. Scuseria, 
 M. A. Robb, J. R. Cheeseman, G. Scalmani, V. Barone, 
 G. A. Petersson, H. Nakatsuji, X. Li, M. Caricato, A. V. Marenich, 
 J. Bloino, B. G. Janesko, R. Gomperts, B. Mennucci, H. P. Hratchian, 
 J. V. Ortiz, A. F. Izmaylov, J. L. Sonnenberg, D. Williams-Young, 
 F. Ding, F. Lipparini, F. Egidi, J. Goings, B. Peng, A. Petrone, 
 T. Henderson, D. Ranasinghe, V. G. Zakrzewski, J. Gao, N. Rega, 
 G. Zheng, W. Liang, M. Hada, M. Ehara, K. Toyota, R. Fukuda, 
 J. Hasegawa, M. Ishida, T. Nakajima, Y. Honda, O. Kitao, H. Nakai, 
 T. Vreven, K. Throssell, J. A. Montgomery, Jr., J. E. Peralta, 
 F. Ogliaro, M. J. Bearpark, J. J. Heyd, E. N. Brothers, K. N. Kudin, 
 V. N. Staroverov, T. A. Keith, R. Kobayashi, J. Normand, 
 K. Raghavachari, A. P. Rendell, J. C. Burant, S. S. Iyengar, 
 J. Tomasi, M. Cossi, J. M. Millam, M. Klene, C. Adamo, R. Cammi, 
 J. W. Ochterski, R. L. Martin, K. Morokuma, O. Farkas, 
 J. B. Foresman, and D. J. Fox, Gaussian, Inc., Wallingford CT, 2016.
 
 ******************************************
 Gaussian 16:  ES64L-G16RevB.01 20-Dec-2017
                 9-Dec-2025 
 ******************************************
 %mem=2GB
 %nprocshare=1
 Will use up to    1 processors via shared memory.
 %chk=geometry_chks/12ClBz.chk
 -----------------
 # opt am1 SCF=XQC
 -----------------
 1/18=20,19=15,26=1,38=1/1,3;
 2/9=110,12=2,17=6,18=5,40=1/2;
 3/5=2,25=1,41=700000,71=1/1,2,3;
 4/35=1/1;
 5/5=2,8=3,13=1,35=1,38=5/2,8;
 6/7=2,8=2,9=2,10=2,28=1/1;
 7//1,2,3,16;
 1/18=20,19=15,26=1/3(2);
 2/9=110/2;
 99//99;
 2/9=110/2;
 3/5=2,25=1,41=700000,71=1,135=20/1,2,3;
 4/5=5,16=3,35=1/1;
 5/5=2,8=3,13=1,35=1,38=5/2,8;
 7//1,2,3,16;
 1/18=20,19=15,26=1/3(-5);
 2/9=110/2;
 6/7=2,8=2,9=2,10=2,19=2,28=1/1;
 99/9=1/99;
 ---------------------
 2-Chloro-Benzene (12)
 ---------------------
 Symbolic Z-matrix:
 Charge =  0 Multiplicity = 1
 C                    -3.20928   0.19943   0. 
 C                    -2.0115    0.93555   0. 
 C                    -0.77511   0.2663    0. 
 C                    -0.7365   -1.13907   0. 
 C                    -1.93429  -1.87519   0. 
 C                    -3.17067  -1.20594   0. 
 Cl                   -4.67483  -2.13035   0. 
 Cl                   -4.76193   1.03987   0. 
 H                    -2.05998   2.7004    0. 
 H                     0.72905   1.19071   0. 
 H                     0.81614  -1.97951   0. 
 H                    -1.8858   -3.64003   0. 
 
 Add virtual bond connecting atoms H12        and C5         Dist= 3.34D+00.
 Add virtual bond connecting atoms H11        and C4         Dist= 3.34D+00.
 Add virtual bond connecting atoms H10        and C3         Dist= 3.34D+00.
 Add virtual bond connecting atoms H9         and C2         Dist= 3.34D+00.

 GradGradGradGradGradGradGradGradGradGradGradGradGradGradGradGradGradGrad
 Berny optimization.
 Initialization pass.
                           ----------------------------
                           !    Initial Parameters    !
                           ! (Angstroms and Degrees)  !
 --------------------------                            --------------------------
 ! Name  Definition              Value          Derivative Info.                !
 --------------------------------------------------------------------------------
 ! R1    R(1,2)                  1.4059         estimate D2E/DX2                !
 ! R2    R(1,6)                  1.4059         estimate D2E/DX2                !
 ! R3    R(1,8)                  1.7655         estimate D2E/DX2                !
 ! R4    R(2,3)                  1.4059         estimate D2E/DX2                !
 ! R5    R(2,9)                  1.7655         estimate D2E/DX2                !
 ! R6    R(3,4)                  1.4059         estimate D2E/DX2                !
 ! R7    R(3,10)                 1.7655         estimate D2E/DX2                !
 ! R8    R(4,5)                  1.4059         estimate D2E/DX2                !
 ! R9    R(4,11)                 1.7655         estimate D2E/DX2                !
 ! R10   R(5,6)                  1.4059         estimate D2E/DX2                !
 ! R11   R(5,12)                 1.7655         estimate D2E/DX2                !
 ! R12   R(6,7)                  1.7655         estimate D2E/DX2                !
 ! A1    A(2,1,6)              119.9999         estimate D2E/DX2                !
 ! A2    A(2,1,8)              119.9999         estimate D2E/DX2                !
 ! A3    A(6,1,8)              120.0001         estimate D2E/DX2                !
 ! A4    A(1,2,3)              120.0            estimate D2E/DX2                !
 ! A5    A(1,2,9)              120.0001         estimate D2E/DX2                !
 ! A6    A(3,2,9)              119.9999         estimate D2E/DX2                !
 ! A7    A(2,3,4)              120.0001         estimate D2E/DX2                !
 ! A8    A(2,3,10)             120.0            estimate D2E/DX2                !
 ! A9    A(4,3,10)             119.9999         estimate D2E/DX2                !
 ! A10   A(3,4,5)              119.9997         estimate D2E/DX2                !
 ! A11   A(3,4,11)             120.0003         estimate D2E/DX2                !
 ! A12   A(5,4,11)             120.0            estimate D2E/DX2                !
 ! A13   A(4,5,6)              120.0            estimate D2E/DX2                !
 ! A14   A(4,5,12)             119.9996         estimate D2E/DX2                !
 ! A15   A(6,5,12)             120.0004         estimate D2E/DX2                !
 ! A16   A(1,6,5)              120.0003         estimate D2E/DX2                !
 ! A17   A(1,6,7)              119.9999         estimate D2E/DX2                !
 ! A18   A(5,6,7)              119.9998         estimate D2E/DX2                !
 ! D1    D(6,1,2,3)              0.0            estimate D2E/DX2                !
 ! D2    D(6,1,2,9)            180.0            estimate D2E/DX2                !
 ! D3    D(8,1,2,3)            180.0            estimate D2E/DX2                !
 ! D4    D(8,1,2,9)              0.0            estimate D2E/DX2                !
 ! D5    D(2,1,6,5)              0.0            estimate D2E/DX2                !
 ! D6    D(2,1,6,7)            180.0            estimate D2E/DX2                !
 ! D7    D(8,1,6,5)            180.0            estimate D2E/DX2                !
 ! D8    D(8,1,6,7)              0.0            estimate D2E/DX2                !
 ! D9    D(1,2,3,4)              0.0            estimate D2E/DX2                !
 ! D10   D(1,2,3,10)           180.0            estimate D2E/DX2                !
 ! D11   D(9,2,3,4)            180.0            estimate D2E/DX2                !
 ! D12   D(9,2,3,10)             0.0            estimate D2E/DX2                !
 ! D13   D(2,3,4,5)              0.0            estimate D2E/DX2                !
 ! D14   D(2,3,4,11)           180.0            estimate D2E/DX2                !
 ! D15   D(10,3,4,5)           180.0            estimate D2E/DX2                !
 ! D16   D(10,3,4,11)            0.0            estimate D2E/DX2                !
 ! D17   D(3,4,5,6)              0.0            estimate D2E/DX2                !
 ! D18   D(3,4,5,12)           180.0            estimate D2E/DX2                !
 ! D19   D(11,4,5,6)           180.0            estimate D2E/DX2                !
 ! D20   D(11,4,5,12)            0.0            estimate D2E/DX2                !
 ! D21   D(4,5,6,1)              0.0            estimate D2E/DX2                !
 ! D22   D(4,5,6,7)            180.0            estimate D2E/DX2                !
 ! D23   D(12,5,6,1)           180.0            estimate D2E/DX2                !
 ! D24   D(12,5,6,7)             0.0            estimate D2E/DX2                !
 --------------------------------------------------------------------------------
 Trust Radius=3.00D-01 FncErr=1.00D-07 GrdErr=1.00D-07 EigMax=2.50D+02 EigMin=1.00D-04
 Number of steps in this run=     64 maximum allowed number of steps=    100.
 GradGradGradGradGradGradGradGradGradGradGradGradGradGradGradGradGradGrad

                          Input orientation:                          
 ---------------------------------------------------------------------
 Center     Atomic      Atomic             Coordinates (Angstroms)
 Number     Number       Type             X           Y           Z
 ---------------------------------------------------------------------
      1          6           0       -3.209280    0.199430    0.000000
      2          6           0       -2.011500    0.935550    0.000000
      3          6           0       -0.775110    0.266300    0.000000
      4          6           0       -0.736500   -1.139070    0.000000
      5          6           0       -1.934290   -1.875190    0.000000
      6          6           0       -3.170670   -1.205940    0.000000
      7         17           0       -4.674830   -2.130350    0.000000
      8         17           0       -4.761930    1.039870    0.000000
      9          1           0       -2.059980    2.700400    0.000000
     10          1           0        0.729050    1.190710    0.000000
     11          1           0        0.816140   -1.979510    0.000000
     12          1           0       -1.885800   -3.640030    0.000000
 ---------------------------------------------------------------------
                    Distance matrix (angstroms):
                    1          2          3          4          5
     1  C    0.000000
     2  C    1.405898   0.000000
     3  C    2.435088   1.405900   0.000000
     4  C    2.811801   2.435092   1.405900   0.000000
     5  C    2.435087   2.811800   2.435093   1.405907   0.000000
     6  C    1.405900   2.435088   2.811796   2.435088   1.405892
     7  Cl   2.752401   4.061166   4.577308   4.061167   2.752393
     8  Cl   1.765520   2.752408   4.061175   4.577321   4.061173
     9  H    2.752406   1.765516   2.752405   4.061173   4.577316
    10  H    4.061167   2.752403   1.765512   2.752401   4.061173
    11  H    4.577312   4.061173   2.752406   1.765511   2.752408
    12  H    4.061164   4.577306   4.061163   2.752397   1.765506
                    6          7          8          9         10
     6  C    0.000000
     7  Cl   1.765512   0.000000
     8  Cl   2.752412   3.171416   0.000000
     9  H    4.061173   5.493049   3.171418   0.000000
    10  H    4.577308   6.342819   5.493051   3.171412   0.000000
    11  H    4.061165   5.493041   6.342832   5.493052   3.171416
    12  H    2.752396   3.171407   5.493049   6.342822   5.493040
                   11         12
    11  H    0.000000
    12  H    3.171404   0.000000
 Stoichiometry    C6H4Cl2
 Framework group  CS[SG(C6H4Cl2)]
 Deg. of freedom    21
 Full point group                 CS      NOp   2
 Largest Abelian subgroup         CS      NOp   2
 Largest concise Abelian subgroup C1      NOp   1
                         Standard orientation:                         
 ---------------------------------------------------------------------
 Center     Atomic      Atomic             Coordinates (Angstroms)
 Number     Number       Type             X           Y           Z
 ---------------------------------------------------------------------
      1          6           0        0.593843   -0.377332   -0.000000
      2          6           0        1.811387    0.325616   -0.000000
      3          6           0        1.811387    1.731516   -0.000000
      4          6           0        0.593843    2.434469   -0.000000
      5          6           0       -0.623706    1.731512    0.000000
      6          6           0       -0.623701    0.325620    0.000000
      7         17           0       -2.152679   -0.557136    0.000000
      8         17           0        0.593843   -2.142852   -0.000000
      9          1           0        3.340370   -0.557139   -0.000000
     10          1           0        3.340365    2.614272   -0.000000
     11          1           0        0.593838    4.199980   -0.000000
     12          1           0       -2.152675    2.614271    0.000000
 ---------------------------------------------------------------------
 Rotational constants (GHZ):           1.8555983           1.3458235           0.7800621
 Standard basis: VSTO-6G (5D, 7F)
 There are    28 symmetry adapted cartesian basis functions of A'  symmetry.
 There are     8 symmetry adapted cartesian basis functions of A"  symmetry.
 There are    28 symmetry adapted basis functions of A'  symmetry.
 There are     8 symmetry adapted basis functions of A"  symmetry.
    36 basis functions,   216 primitive gaussians,    36 cartesian basis functions
    21 alpha electrons       21 beta electrons
       nuclear repulsion energy       199.4607519287 Hartrees.
 Integral buffers will be    131072 words long.
 Regular integral format.
 Two-electron integral symmetry is turned off.
 Do NDO integrals.
 One-electron integrals computed using PRISM.
 NBasis=    36 RedAO= T EigKep=  1.00D+00  NBF=    28     8
 NBsUse=    36 1.00D-06 EigRej= -1.00D+00 NBFU=    28     8
 Simple Huckel Guess.
 Initial guess orbital symmetries:
       Occupied  (A') (A') (A') (A') (A') (A') (A') (A') (A') (A")
                 (A') (A') (A') (A") (A") (A') (A') (A') (A") (A')
                 (A")
       Virtual   (A') (A') (A") (A") (A') (A') (A") (A') (A') (A')
                 (A') (A') (A') (A') (A')
 The electronic state of the initial guess is 1-A'.
 Keep J ints in memory in canonical form, NReq=862905.
 Overlap will be assumed to be unity.
 Requested convergence on RMS density matrix=1.00D-08 within  32 cycles.
 Requested convergence on MAX density matrix=1.00D-06.
 Requested convergence on             energy=1.00D-06.
 No special actions if energy rises.
 Fock symm off for IB=2 I1=    1 I=   29 J=    2 Cut=1.00D-07 Err=4.80D-03
 Fock matrix is not symmetric: symmetry in diagonalization turned off.
 SCF Done:  E(RAM1) =  0.507689219256     A.U. after   15 cycles
            NFock= 14  Conv=0.31D-08     -V/T= 1.0056
 QCSCF skips out because SCF is already converged.

 **********************************************************************

            Population analysis using the SCF Density.

 **********************************************************************

 Orbital symmetries:
       Occupied  (A') (A') (A') (A') (A') (A') (A') (A') (A') (A')
                 (A") (A') (A") (A') (A') (A") (A') (A') (A') (A")
                 (A")
       Virtual   (A') (A') (A") (A') (A") (A') (A') (A') (A") (A')
                 (A') (A') (A') (A') (A')
 The electronic state is 1-A'.
 Alpha  occ. eigenvalues --   -1.41234  -1.35877  -1.34503  -1.10096  -1.08977
 Alpha  occ. eigenvalues --   -0.81407  -0.80059  -0.61145  -0.58547  -0.55143
 Alpha  occ. eigenvalues --   -0.52780  -0.46667  -0.45682  -0.43931  -0.43818
 Alpha  occ. eigenvalues --   -0.43762  -0.42496  -0.38558  -0.37104  -0.34772
 Alpha  occ. eigenvalues --   -0.34236
 Alpha virt. eigenvalues --   -0.00605   0.00670   0.00918   0.01638   0.01743
 Alpha virt. eigenvalues --    0.02487   0.04975   0.05852   0.10248   0.15916
 Alpha virt. eigenvalues --    0.16370   0.17991   0.18997   0.19585   0.21030
          Condensed to atoms (all electrons):
               1          2          3          4          5          6
     1  C    4.046360   0.000000   0.000000   0.000000   0.000000   0.000000
     2  C    0.000000   4.143461   0.000000   0.000000   0.000000   0.000000
     3  C    0.000000   0.000000   4.134252   0.000000   0.000000   0.000000
     4  C    0.000000   0.000000   0.000000   4.134250   0.000000   0.000000
     5  C    0.000000   0.000000   0.000000   0.000000   4.143463   0.000000
     6  C    0.000000   0.000000   0.000000   0.000000   0.000000   4.046360
     7  Cl   0.000000   0.000000   0.000000   0.000000   0.000000   0.000000
     8  Cl   0.000000   0.000000   0.000000   0.000000   0.000000   0.000000
     9  H    0.000000   0.000000   0.000000   0.000000   0.000000   0.000000
    10  H    0.000000   0.000000   0.000000   0.000000   0.000000   0.000000
    11  H    0.000000   0.000000   0.000000   0.000000   0.000000   0.000000
    12  H    0.000000   0.000000   0.000000   0.000000   0.000000   0.000000
               7          8          9         10         11         12
     1  C    0.000000   0.000000   0.000000   0.000000   0.000000   0.000000
     2  C    0.000000   0.000000   0.000000   0.000000   0.000000   0.000000
     3  C    0.000000   0.000000   0.000000   0.000000   0.000000   0.000000
     4  C    0.000000   0.000000   0.000000   0.000000   0.000000   0.000000
     5  C    0.000000   0.000000   0.000000   0.000000   0.000000   0.000000
     6  C    0.000000   0.000000   0.000000   0.000000   0.000000   0.000000
     7  Cl   7.030769   0.000000   0.000000   0.000000   0.000000   0.000000
     8  Cl   0.000000   7.030772   0.000000   0.000000   0.000000   0.000000
     9  H    0.000000   0.000000   0.807531   0.000000   0.000000   0.000000
    10  H    0.000000   0.000000   0.000000   0.837626   0.000000   0.000000
    11  H    0.000000   0.000000   0.000000   0.000000   0.837625   0.000000
    12  H    0.000000   0.000000   0.000000   0.000000   0.000000   0.807532
 Mulliken charges:
               1
     1  C   -0.046360
     2  C   -0.143461
     3  C   -0.134252
     4  C   -0.134250
     5  C   -0.143463
     6  C   -0.046360
     7  Cl  -0.030769
     8  Cl  -0.030772
     9  H    0.192469
    10  H    0.162374
    11  H    0.162375
    12  H    0.192468
 Sum of Mulliken charges =   0.00000
 Mulliken charges with hydrogens summed into heavy atoms:
               1
     1  C   -0.046360
     2  C    0.049008
     3  C    0.028122
     4  C    0.028125
     5  C    0.049005
     6  C   -0.046360
     7  Cl  -0.030769
     8  Cl  -0.030772
 Charge=              0.0000 electrons
 Dipole moment (field-independent basis, Debye):
    X=              1.7987    Y=              3.1155    Z=              0.0000  Tot=              3.5974
 N-N= 1.994607519287D+02 E-N=-2.784958252686D+02  KE=-9.079441779702D+01
 Symmetry A'   KE=-7.035307672784D+01
 Symmetry A"   KE=-2.044134106918D+01
 Calling FoFJK, ICntrl=      2127 FMM=F ISym2X=1 I1Cent= 0 IOpClX= 0 NMat=1 NMatS=1 NMatT=0.
 ***** Axes restored to original set *****
 -------------------------------------------------------------------
 Center     Atomic                   Forces (Hartrees/Bohr)
 Number     Number              X              Y              Z
 -------------------------------------------------------------------
      1        6          -0.007687288    0.025971591   -0.000000000
      2        6           0.016342432    0.071307179   -0.000000000
      3        6           0.058105802    0.035876538   -0.000000000
      4        6           0.059982412   -0.032635169   -0.000000000
      5        6           0.020244103   -0.070302973   -0.000000000
      6        6          -0.006253971   -0.026349813    0.000000000
      7       17           0.032348107    0.016598229   -0.000000000
      8       17           0.033214714   -0.014799432    0.000000000
      9        1           0.002119684   -0.117618516    0.000000000
     10        1          -0.100424688   -0.061506214    0.000000000
     11        1          -0.103649963    0.055900482    0.000000000
     12        1          -0.004341345    0.117558098    0.000000000
 -------------------------------------------------------------------
 Cartesian Forces:  Max     0.117618516 RMS     0.047009258

 GradGradGradGradGradGradGradGradGradGradGradGradGradGradGradGradGradGrad
 Berny optimization.
 FormGI is forming the generalized inverse of G from B-inverse, IUseBI=4.
 Internal  Forces:  Max     0.117763094 RMS     0.035525000
 Search for a local minimum.
 Step number   1 out of a maximum of   64
 All quantities printed in internal units (Hartrees-Bohrs-Radians)
 Mixed Optimization -- RFO/linear search
 Second derivative matrix not updated -- first step.
 ITU=  0
     Eigenvalues ---    0.02011   0.02011   0.02011   0.02011   0.02011
     Eigenvalues ---    0.02011   0.02011   0.02011   0.02011   0.06524
     Eigenvalues ---    0.06524   0.06524   0.06524   0.16000   0.16000
     Eigenvalues ---    0.16000   0.16000   0.22000   0.22493   0.24487
     Eigenvalues ---    0.25000   0.25000   0.29033   0.29033   0.40787
     Eigenvalues ---    0.40956   0.44656   0.44657   0.44657   0.44657
 RFO step:  Lambda=-2.16991669D-01 EMin= 2.01065826D-02
 Linear search not attempted -- first point.
 Maximum step size (   0.300) exceeded in Quadratic search.
    -- Step size scaled by   0.351
 Iteration  1 RMS(Cart)=  0.04708587 RMS(Int)=  0.00002272
 Iteration  2 RMS(Cart)=  0.00004560 RMS(Int)=  0.00000622
 Iteration  3 RMS(Cart)=  0.00000000 RMS(Int)=  0.00000622
 ClnCor:  largest displacement from symmetrization is 1.59D-08 for atom    12.
 Variable       Old X    -DE/DX   Delta X   Delta X   Delta X     New X
                                 (Linear)    (Quad)   (Total)
    R1        2.65676  -0.03341   0.00000  -0.01742  -0.01742   2.63934
    R2        2.65677  -0.01163   0.00000  -0.00562  -0.00563   2.65113
    R3        3.33635  -0.03625   0.00000  -0.02510  -0.02510   3.31125
    R4        2.65677  -0.04959   0.00000  -0.02652  -0.02651   2.63025
    R5        3.33634  -0.11763   0.00000  -0.14638  -0.14638   3.18996
    R6        2.65677  -0.04916   0.00000  -0.02655  -0.02654   2.63022
    R7        3.33633  -0.11776   0.00000  -0.14654  -0.14654   3.18979
    R8        2.65678  -0.04960   0.00000  -0.02652  -0.02652   2.63026
    R9        3.33633  -0.11776   0.00000  -0.14654  -0.14654   3.18979
   R10        2.65675  -0.03341   0.00000  -0.01741  -0.01742   2.63933
   R11        3.33632  -0.11763   0.00000  -0.14638  -0.14638   3.18994
   R12        3.33633  -0.03625   0.00000  -0.02509  -0.02509   3.31124
    A1        2.09439  -0.00819   0.00000  -0.00510  -0.00512   2.08928
    A2        2.09439  -0.00057   0.00000  -0.00096  -0.00095   2.09344
    A3        2.09440   0.00876   0.00000   0.00606   0.00607   2.10046
    A4        2.09439   0.00471   0.00000   0.00367   0.00367   2.09807
    A5        2.09440  -0.00421   0.00000  -0.00356  -0.00356   2.09084
    A6        2.09439  -0.00050   0.00000  -0.00011  -0.00011   2.09428
    A7        2.09440   0.00348   0.00000   0.00143   0.00144   2.09584
    A8        2.09440  -0.00204   0.00000  -0.00099  -0.00100   2.09339
    A9        2.09439  -0.00144   0.00000  -0.00043  -0.00044   2.09395
   A10        2.09439   0.00348   0.00000   0.00143   0.00145   2.09584
   A11        2.09440  -0.00144   0.00000  -0.00043  -0.00044   2.09396
   A12        2.09440  -0.00204   0.00000  -0.00099  -0.00100   2.09339
   A13        2.09439   0.00471   0.00000   0.00367   0.00367   2.09807
   A14        2.09439  -0.00050   0.00000  -0.00011  -0.00011   2.09428
   A15        2.09440  -0.00421   0.00000  -0.00356  -0.00356   2.09084
   A16        2.09440  -0.00819   0.00000  -0.00510  -0.00512   2.08928
   A17        2.09439   0.00876   0.00000   0.00606   0.00607   2.10046
   A18        2.09439  -0.00057   0.00000  -0.00096  -0.00095   2.09344
    D1       -0.00000   0.00000   0.00000   0.00000   0.00000   0.00000
    D2        3.14159   0.00000   0.00000   0.00000   0.00000   3.14159
    D3        3.14159  -0.00000   0.00000  -0.00000   0.00000   3.14159
    D4        0.00000   0.00000   0.00000   0.00000  -0.00000   0.00000
    D5        0.00000  -0.00000   0.00000  -0.00000   0.00000   0.00000
    D6        3.14159  -0.00000   0.00000  -0.00000   0.00000   3.14159
    D7        3.14159   0.00000   0.00000   0.00000   0.00000   3.14159
    D8       -0.00000   0.00000   0.00000   0.00000   0.00000   0.00000
    D9       -0.00000   0.00000   0.00000  -0.00000   0.00000   0.00000
   D10        3.14159   0.00000   0.00000   0.00000   0.00000   3.14159
   D11        3.14159  -0.00000   0.00000  -0.00000   0.00000   3.14159
   D12       -0.00000  -0.00000   0.00000  -0.00000   0.00000   0.00000
   D13        0.00000  -0.00000   0.00000  -0.00000  -0.00000   0.00000
   D14        3.14159   0.00000   0.00000   0.00000   0.00000   3.14159
   D15        3.14159  -0.00000   0.00000  -0.00000   0.00000   3.14159
   D16       -0.00000  -0.00000   0.00000   0.00000   0.00000   0.00000
   D17       -0.00000   0.00000   0.00000   0.00000   0.00000   0.00000
   D18        3.14159   0.00000   0.00000   0.00000   0.00000   3.14159
   D19        3.14159  -0.00000   0.00000  -0.00000   0.00000   3.14159
   D20        0.00000  -0.00000   0.00000  -0.00000  -0.00000   0.00000
   D21        0.00000   0.00000   0.00000  -0.00000  -0.00000   0.00000
   D22        3.14159   0.00000   0.00000   0.00000   0.00000   3.14159
   D23        3.14159  -0.00000   0.00000  -0.00000   0.00000   3.14159
   D24       -0.00000  -0.00000   0.00000  -0.00000   0.00000   0.00000
         Item               Value     Threshold  Converged?
 Maximum Force            0.117763     0.000450     NO 
 RMS     Force            0.035525     0.000300     NO 
 Maximum Displacement     0.170256     0.001800     NO 
 RMS     Displacement     0.047084     0.001200     NO 
 Predicted change in Energy=-7.259080D-02
 GradGradGradGradGradGradGradGradGradGradGradGradGradGradGradGradGradGrad

                          Input orientation:                          
 ---------------------------------------------------------------------
 Center     Atomic      Atomic             Coordinates (Angstroms)
 Number     Number       Type             X           Y           Z
 ---------------------------------------------------------------------
      1          6           0       -3.194022    0.198359    0.000000
      2          6           0       -2.000370    0.923554   -0.000000
      3          6           0       -0.777277    0.259214   -0.000000
      4          6           0       -0.739053   -1.132115   -0.000000
      5          6           0       -1.923834   -1.862601   -0.000000
      6          6           0       -3.155494   -1.204032    0.000000
      7         17           0       -4.642748   -2.130528    0.000000
      8         17           0       -4.729903    1.041809    0.000000
      9          1           0       -2.044100    2.611041   -0.000000
     10          1           0        0.661206    1.142385   -0.000000
     11          1           0        0.745745   -1.934983   -0.000000
     12          1           0       -1.874849   -3.549934   -0.000000
 ---------------------------------------------------------------------
                    Distance matrix (angstroms):
                    1          2          3          4          5
     1  C    0.000000
     2  C    1.396679   0.000000
     3  C    2.417511   1.391871   0.000000
     4  C    2.792316   2.411782   1.391854   0.000000
     5  C    2.420936   2.787205   2.411782   1.391875   0.000000
     6  C    1.402920   2.420936   2.792312   2.417511   1.396674
     7  Cl   2.742721   4.038511   4.544527   4.029350   2.732082
     8  Cl   1.752239   2.732093   4.029356   4.544538   4.038517
     9  H    2.672706   1.688054   2.671316   3.964135   4.475258
    10  H    3.969127   2.670557   1.687964   2.670969   3.963883
    11  H    4.480280   3.963884   2.670973   1.687964   2.670560
    12  H    3.973653   4.475248   3.964124   2.671308   1.688045
                    6          7          8          9         10
     6  C    0.000000
     7  Cl   1.752232   0.000000
     8  Cl   2.742730   3.173534   0.000000
     9  H    3.973661   5.406981   3.110631   0.000000
    10  H    4.480276   6.232486   5.392047   3.078252   0.000000
    11  H    3.969125   5.392039   6.232497   5.333814   3.078529
    12  H    2.672697   3.110623   5.406981   6.163300   5.333801
                   11         12
    11  H    0.000000
    12  H    3.078243   0.000000
 Stoichiometry    C6H4Cl2
 Framework group  CS[SG(C6H4Cl2)]
 Deg. of freedom    21
 Full point group                 CS      NOp   2
 Largest Abelian subgroup         CS      NOp   2
 Largest concise Abelian subgroup C1      NOp   1
                         Standard orientation:                         
 ---------------------------------------------------------------------
 Center     Atomic      Atomic             Coordinates (Angstroms)
 Number     Number       Type             X           Y           Z
 ---------------------------------------------------------------------
      1          6           0       -0.000000   -0.702175    0.000000
      2          6           0        1.243125   -1.338848    0.000000
      3          6           0        2.414790   -0.587513    0.000000
      4          6           0        2.351960    0.802922   -0.000000
      5          6           0        1.117298    1.445516   -0.000000
      6          6           0       -0.063330    0.699315   -0.000000
      7         17           0       -1.613889    1.515455   -0.000000
      8         17           0       -1.470633   -1.654844    0.000000
      9          1           0        1.321953   -3.025061    0.000000
     10          1           0        3.913563   -1.363981    0.000000
     11          1           0        3.774588    1.711410   -0.000000
     12          1           0        1.043722    3.131956   -0.000000
 ---------------------------------------------------------------------
 Rotational constants (GHZ):           1.8714105           1.3720401           0.7916416
 Standard basis: VSTO-6G (5D, 7F)
 There are    28 symmetry adapted cartesian basis functions of A'  symmetry.
 There are     8 symmetry adapted cartesian basis functions of A"  symmetry.
 There are    28 symmetry adapted basis functions of A'  symmetry.
 There are     8 symmetry adapted basis functions of A"  symmetry.
    36 basis functions,   216 primitive gaussians,    36 cartesian basis functions
    21 alpha electrons       21 beta electrons
       nuclear repulsion energy       200.6589250545 Hartrees.
 Integral buffers will be    131072 words long.
 Regular integral format.
 Two-electron integral symmetry is turned off.
 Do NDO integrals.
 One-electron integrals computed using PRISM.
 NBasis=    36 RedAO= T EigKep=  1.00D+00  NBF=    28     8
 NBsUse=    36 1.00D-06 EigRej= -1.00D+00 NBFU=    28     8
 Initial guess from the checkpoint file:  "geometry_chks/12ClBz.chk"
 B after Tr=     0.000000   -0.000000   -0.000000
         Rot=    0.877093   -0.000000    0.000000    0.480320 Ang=  57.41 deg.
 Initial guess orbital symmetries:
       Occupied  (A') (A') (A') (A') (A') (A') (A') (A') (A') (A')
                 (A") (A') (A") (A') (A') (A") (A') (A') (A') (A")
                 (A")
       Virtual   (A') (A') (A") (A') (A") (A') (A') (A') (A") (A')
                 (A') (A') (A') (A') (A')
 Keep J ints in memory in canonical form, NReq=862905.
 Overlap will be assumed to be unity.
 Requested convergence on RMS density matrix=1.00D-08 within  32 cycles.
 Requested convergence on MAX density matrix=1.00D-06.
 Requested convergence on             energy=1.00D-06.
 No special actions if energy rises.
 Fock symm off for IB=2 I1=    1 I=   29 J=    6 Cut=1.00D-07 Err=1.16D-03
 Fock matrix is not symmetric: symmetry in diagonalization turned off.
 SCF Done:  E(RAM1) =  0.431564969399     A.U. after   13 cycles
            NFock= 12  Conv=0.11D-08     -V/T= 1.0047
 QCSCF skips out because SCF is already converged.
 Calling FoFJK, ICntrl=      2127 FMM=F ISym2X=1 I1Cent= 0 IOpClX= 0 NMat=1 NMatS=1 NMatT=0.
 ***** Axes restored to original set *****
 -------------------------------------------------------------------
 Center     Atomic                   Forces (Hartrees/Bohr)
 Number     Number              X              Y              Z
 -------------------------------------------------------------------
      1        6          -0.014314184    0.023464254   -0.000000000
      2        6           0.011398502    0.092305282    0.000000000
      3        6           0.078049818    0.048700706    0.000000000
      4        6           0.080601176   -0.044344402   -0.000000000
      5        6           0.016457871   -0.091540520   -0.000000000
      6        6          -0.013007324   -0.024211161   -0.000000000
      7       17           0.026495314    0.013925082    0.000000000
      8       17           0.027223227   -0.012451312   -0.000000000
      9        1           0.002084116   -0.121148518    0.000000000
     10        1          -0.103548390   -0.063336010    0.000000000
     11        1          -0.106869409    0.057556031    0.000000000
     12        1          -0.004570717    0.121080568    0.000000000
 -------------------------------------------------------------------
 Cartesian Forces:  Max     0.121148518 RMS     0.051736593

 GradGradGradGradGradGradGradGradGradGradGradGradGradGradGradGradGradGrad
 Berny optimization.
 Using GEDIIS/GDIIS optimizer.
 FormGI is forming the generalized inverse of G from B-inverse, IUseBI=4.
 Internal  Forces:  Max     0.121382561 RMS     0.034488750
 Search for a local minimum.
 Step number   2 out of a maximum of   64
 All quantities printed in internal units (Hartrees-Bohrs-Radians)
 Mixed Optimization -- RFO/linear search
 Update second derivatives using D2CorX and points    1    2
 DE= -7.61D-02 DEPred=-7.26D-02 R= 1.05D+00
 TightC=F SS=  1.41D+00  RLast= 3.00D-01 DXNew= 5.0454D-01 9.0000D-01
 Trust test= 1.05D+00 RLast= 3.00D-01 DXMaxT set to 5.05D-01
 ITU=  1  0
 Use linear search instead of GDIIS.
     Eigenvalues ---    0.00034   0.02011   0.02011   0.02011   0.02011
     Eigenvalues ---    0.02011   0.02011   0.02011   0.02011   0.02011
     Eigenvalues ---    0.06524   0.06524   0.06524   0.16000   0.16000
     Eigenvalues ---    0.16000   0.16001   0.22000   0.22483   0.24480
     Eigenvalues ---    0.25000   0.25039   0.29033   0.29506   0.40731
     Eigenvalues ---    0.41060   0.44644   0.44657   0.44657   4.82340
 RFO could not converge Lambda in  999 iterations.
 Skip linear search -- no minimum in search direction.
 Steepest descent instead of Quadratic search.
 Iteration  1 RMS(Cart)=  0.02089097 RMS(Int)=  0.00000765
 Iteration  2 RMS(Cart)=  0.00001533 RMS(Int)=  0.00000219
 Iteration  3 RMS(Cart)=  0.00000000 RMS(Int)=  0.00000219
 ClnCor:  largest displacement from symmetrization is 2.49D-10 for atom    11.
 Variable       Old X    -DE/DX   Delta X   Delta X   Delta X     New X
                                 (Linear)    (Quad)   (Total)
    R1        2.63934  -0.01823   0.00000  -0.00912  -0.00912   2.63022
    R2        2.65113  -0.00299   0.00000  -0.00150  -0.00150   2.64963
    R3        3.31125  -0.02986   0.00000  -0.01493  -0.01493   3.29632
    R4        2.63025  -0.03020   0.00000  -0.01510  -0.01510   2.61516
    R5        3.18996  -0.12116   0.00000  -0.06058  -0.06058   3.12938
    R6        2.63022  -0.02948   0.00000  -0.01474  -0.01474   2.61548
    R7        3.18979  -0.12138   0.00000  -0.06069  -0.06069   3.12910
    R8        2.63026  -0.03020   0.00000  -0.01510  -0.01510   2.61516
    R9        3.18979  -0.12138   0.00000  -0.06069  -0.06069   3.12910
   R10        2.63933  -0.01823   0.00000  -0.00911  -0.00912   2.63022
   R11        3.18994  -0.12116   0.00000  -0.06058  -0.06058   3.12936
   R12        3.31124  -0.02985   0.00000  -0.01493  -0.01493   3.29631
    A1        2.08928  -0.00636   0.00000  -0.00318  -0.00319   2.08609
    A2        2.09344  -0.00044   0.00000  -0.00022  -0.00022   2.09323
    A3        2.10046   0.00681   0.00000   0.00340   0.00341   2.10387
    A4        2.09807   0.00427   0.00000   0.00214   0.00214   2.10020
    A5        2.09084  -0.00382   0.00000  -0.00191  -0.00191   2.08893
    A6        2.09428  -0.00045   0.00000  -0.00023  -0.00023   2.09406
    A7        2.09584   0.00209   0.00000   0.00105   0.00105   2.09689
    A8        2.09339  -0.00137   0.00000  -0.00068  -0.00069   2.09270
    A9        2.09395  -0.00072   0.00000  -0.00036  -0.00036   2.09359
   A10        2.09584   0.00209   0.00000   0.00105   0.00105   2.09689
   A11        2.09396  -0.00072   0.00000  -0.00036  -0.00036   2.09359
   A12        2.09339  -0.00137   0.00000  -0.00068  -0.00069   2.09270
   A13        2.09807   0.00427   0.00000   0.00214   0.00214   2.10020
   A14        2.09428  -0.00045   0.00000  -0.00023  -0.00023   2.09405
   A15        2.09084  -0.00382   0.00000  -0.00191  -0.00191   2.08893
   A16        2.08928  -0.00637   0.00000  -0.00318  -0.00319   2.08609
   A17        2.10046   0.00681   0.00000   0.00340   0.00341   2.10387
   A18        2.09344  -0.00044   0.00000  -0.00022  -0.00022   2.09322
    D1       -0.00000   0.00000   0.00000   0.00000   0.00000   0.00000
    D2        3.14159   0.00000   0.00000   0.00000   0.00000   3.14159
    D3        3.14159  -0.00000   0.00000  -0.00000   0.00000   3.14159
    D4       -0.00000   0.00000   0.00000   0.00000   0.00000   0.00000
    D5        0.00000  -0.00000   0.00000  -0.00000  -0.00000   0.00000
    D6        3.14159  -0.00000   0.00000  -0.00000   0.00000   3.14159
    D7        3.14159   0.00000   0.00000   0.00000   0.00000   3.14159
    D8        0.00000  -0.00000   0.00000  -0.00000  -0.00000   0.00000
    D9        0.00000  -0.00000   0.00000  -0.00000  -0.00000   0.00000
   D10        3.14159   0.00000   0.00000   0.00000   0.00000   3.14159
   D11        3.14159  -0.00000   0.00000  -0.00000   0.00000   3.14159
   D12       -0.00000  -0.00000   0.00000  -0.00000   0.00000   0.00000
   D13       -0.00000  -0.00000   0.00000  -0.00000   0.00000   0.00000
   D14        3.14159   0.00000   0.00000   0.00000   0.00000   3.14159
   D15        3.14159  -0.00000   0.00000  -0.00000   0.00000   3.14159
   D16       -0.00000   0.00000   0.00000   0.00000   0.00000   0.00000
   D17       -0.00000   0.00000   0.00000   0.00000   0.00000   0.00000
   D18        3.14159   0.00000   0.00000   0.00000   0.00000   3.14159
   D19        3.14159  -0.00000   0.00000  -0.00000   0.00000   3.14159
   D20        0.00000   0.00000   0.00000   0.00000  -0.00000   0.00000
   D21        0.00000   0.00000   0.00000   0.00000   0.00000   0.00000
   D22        3.14159   0.00000   0.00000   0.00000   0.00000   3.14159
   D23        3.14159  -0.00000   0.00000  -0.00000   0.00000   3.14159
   D24       -0.00000  -0.00000   0.00000  -0.00000   0.00000   0.00000
         Item               Value     Threshold  Converged?
 Maximum Force            0.121383     0.000450     NO 
 RMS     Force            0.034489     0.000300     NO 
 Maximum Displacement     0.073461     0.001800     NO 
 RMS     Displacement     0.020891     0.001200     NO 
 Predicted change in Energy=-3.176806D-02
 GradGradGradGradGradGradGradGradGradGradGradGradGradGradGradGradGradGrad

                          Input orientation:                          
 ---------------------------------------------------------------------
 Center     Atomic      Atomic             Coordinates (Angstroms)
 Number     Number       Type             X           Y           Z
 ---------------------------------------------------------------------
      1          6           0       -3.187529    0.198140    0.000000
      2          6           0       -1.995704    0.917033    0.000000
      3          6           0       -0.780327    0.255229    0.000000
      4          6           0       -0.742317   -1.128303   -0.000000
      5          6           0       -1.919532   -1.855834   -0.000000
      6          6           0       -3.149024   -1.203457   -0.000000
      7         17           0       -4.626422   -2.130816   -0.000000
      8         17           0       -4.713617    1.042993    0.000000
      9          1           0       -2.036487    2.572527    0.000000
     10          1           0        0.631102    1.121083    0.000000
     11          1           0        0.714517   -1.915366   -0.000000
     12          1           0       -1.869360   -3.511060   -0.000000
 ---------------------------------------------------------------------
                    Distance matrix (angstroms):
                    1          2          3          4          5
     1  C    0.000000
     2  C    1.391853   0.000000
     3  C    2.407880   1.383881   0.000000
     4  C    2.781819   2.398829   1.384055   0.000000
     5  C    2.413841   2.773913   2.398828   1.383884   0.000000
     6  C    1.402126   2.413841   2.781815   2.407880   1.391850
     7  Cl   2.737599   4.026172   4.526109   4.011397   2.720822
     8  Cl   1.744339   2.720830   4.011402   4.526119   4.026178
     9  H    2.638676   1.655996   2.635870   3.920590   4.429905
    10  H    3.928583   2.634719   1.655848   2.635530   3.920174
    11  H    4.437665   3.920176   2.635534   1.655848   2.634721
    12  H    3.936463   4.429896   3.920578   2.635860   1.655986
                    6          7          8          9         10
     6  C    0.000000
     7  Cl   1.744334   0.000000
     8  Cl   2.737606   3.175006   0.000000
     9  H    3.936470   5.369283   3.083261   0.000000
    10  H    4.437661   6.181942   5.345289   3.036893   0.000000
    11  H    3.928582   5.345283   6.181951   5.263953   3.037595
    12  H    2.638669   3.083256   5.369283   6.085883   5.263940
                   11         12
    11  H    0.000000
    12  H    3.036883   0.000000
 Stoichiometry    C6H4Cl2
 Framework group  CS[SG(C6H4Cl2)]
 Deg. of freedom    21
 Full point group                 CS      NOp   2
 Largest Abelian subgroup         CS      NOp   2
 Largest concise Abelian subgroup C1      NOp   1
                         Standard orientation:                         
 ---------------------------------------------------------------------
 Center     Atomic      Atomic             Coordinates (Angstroms)
 Number     Number       Type             X           Y           Z
 ---------------------------------------------------------------------
      1          6           0        0.000000   -0.701854    0.000000
      2          6           0        1.242318   -1.329470   -0.000000
      3          6           0        2.404718   -0.578502   -0.000000
      4          6           0        2.339005    0.803992   -0.000000
      5          6           0        1.110610    1.441315   -0.000000
      6          6           0       -0.066571    0.698691    0.000000
      7         17           0       -1.609272    1.512800    0.000000
      8         17           0       -1.458529   -1.658626    0.000000
      9          1           0        1.325633   -2.983369   -0.000000
     10          1           0        3.877028   -1.336220   -0.000000
     11          1           0        3.732803    1.697949   -0.000000
     12          1           0        1.036677    3.095650   -0.000000
 ---------------------------------------------------------------------
 Rotational constants (GHZ):           1.8785574           1.3865156           0.7977307
 Standard basis: VSTO-6G (5D, 7F)
 There are    28 symmetry adapted cartesian basis functions of A'  symmetry.
 There are     8 symmetry adapted cartesian basis functions of A"  symmetry.
 There are    28 symmetry adapted basis functions of A'  symmetry.
 There are     8 symmetry adapted basis functions of A"  symmetry.
    36 basis functions,   216 primitive gaussians,    36 cartesian basis functions
    21 alpha electrons       21 beta electrons
       nuclear repulsion energy       201.2677054448 Hartrees.
 Integral buffers will be    131072 words long.
 Regular integral format.
 Two-electron integral symmetry is turned off.
 Do NDO integrals.
 One-electron integrals computed using PRISM.
 NBasis=    36 RedAO= T EigKep=  1.00D+00  NBF=    28     8
 NBsUse=    36 1.00D-06 EigRej= -1.00D+00 NBFU=    28     8
 Initial guess from the checkpoint file:  "geometry_chks/12ClBz.chk"
 B after Tr=    -0.000000    0.000000    0.000000
         Rot=    0.999999    0.000000   -0.000000   -0.001170 Ang=  -0.13 deg.
 Initial guess orbital symmetries:
       Occupied  (A') (A') (A') (A') (A') (A') (A') (A') (A') (A')
                 (A") (A') (A") (A') (A") (A') (A') (A') (A') (A")
                 (A")
       Virtual   (A') (A") (A") (A') (A') (A') (A') (A') (A") (A')
                 (A') (A') (A') (A') (A')
 Keep J ints in memory in canonical form, NReq=862905.
 Overlap will be assumed to be unity.
 Requested convergence on RMS density matrix=1.00D-08 within  32 cycles.
 Requested convergence on MAX density matrix=1.00D-06.
 Requested convergence on             energy=1.00D-06.
 No special actions if energy rises.
 Fock symm off for IB=2 I1=    1 I=   29 J=    6 Cut=1.00D-07 Err=5.96D-04
 Fock matrix is not symmetric: symmetry in diagonalization turned off.
 SCF Done:  E(RAM1) =  0.399751704646     A.U. after   12 cycles
            NFock= 11  Conv=0.39D-08     -V/T= 1.0044
 QCSCF skips out because SCF is already converged.
 Calling FoFJK, ICntrl=      2127 FMM=F ISym2X=1 I1Cent= 0 IOpClX= 0 NMat=1 NMatS=1 NMatT=0.
 ***** Axes restored to original set *****
 -------------------------------------------------------------------
 Center     Atomic                   Forces (Hartrees/Bohr)
 Number     Number              X              Y              Z
 -------------------------------------------------------------------
      1        6          -0.017662231    0.021246611   -0.000000000
      2        6           0.008166717    0.102908030   -0.000000000
      3        6           0.088634313    0.055373099   -0.000000000
      4        6           0.091536675   -0.050425121   -0.000000000
      5        6           0.013811156   -0.102304550   -0.000000000
      6        6          -0.016471213   -0.022181431    0.000000000
      7       17           0.022927019    0.012243567    0.000000000
      8       17           0.023567534   -0.010968034    0.000000000
      9        1           0.001972452   -0.121872765    0.000000000
     10        1          -0.104210661   -0.063683520    0.000000000
     11        1          -0.107549750    0.057866655    0.000000000
     12        1          -0.004722011    0.121797459    0.000000000
 -------------------------------------------------------------------
 Cartesian Forces:  Max     0.121872765 RMS     0.054155205

 GradGradGradGradGradGradGradGradGradGradGradGradGradGradGradGradGradGrad
 Berny optimization.
 Using GEDIIS/GDIIS optimizer.
 FormGI is forming the generalized inverse of G from B-inverse, IUseBI=4.
 Internal  Forces:  Max     0.122128845 RMS     0.033966082
 Search for a local minimum.
 Step number   3 out of a maximum of   64
 All quantities printed in internal units (Hartrees-Bohrs-Radians)
 Mixed Optimization -- RFO/linear search
 Update second derivatives using D2CorX and points    1    2    3
 DE= -3.18D-02 DEPred=-3.18D-02 R= 1.00D+00
 TightC=F SS=  1.41D+00  RLast= 1.27D-01 DXNew= 8.4853D-01 3.8016D-01
 Trust test= 1.00D+00 RLast= 1.27D-01 DXMaxT set to 5.05D-01
 ITU=  1  1  0
 Use linear search instead of GDIIS.
     Eigenvalues ---    0.00234   0.02011   0.02011   0.02011   0.02011
     Eigenvalues ---    0.02011   0.02011   0.02011   0.02011   0.02011
     Eigenvalues ---    0.06524   0.06524   0.06524   0.15997   0.16000
     Eigenvalues ---    0.16000   0.16000   0.22000   0.22380   0.24476
     Eigenvalues ---    0.25000   0.25036   0.27921   0.29033   0.40649
     Eigenvalues ---    0.40700   0.44579   0.44657   0.44657   1.08246
 RFO step:  Lambda=-1.53819305D-02 EMin= 2.33911622D-03
 Quartic linear search produced a step of  2.00000.
 Maximum step size (   0.505) exceeded in Quadratic search.
    -- Step size scaled by   0.649
 Iteration  1 RMS(Cart)=  0.06077647 RMS(Int)=  0.04720829
 Iteration  2 RMS(Cart)=  0.04569817 RMS(Int)=  0.00000829
 Iteration  3 RMS(Cart)=  0.00000228 RMS(Int)=  0.00000819
 Iteration  4 RMS(Cart)=  0.00000000 RMS(Int)=  0.00000819
 ClnCor:  largest displacement from symmetrization is 9.03D-09 for atom    10.
 Variable       Old X    -DE/DX   Delta X   Delta X   Delta X     New X
                                 (Linear)    (Quad)   (Total)
    R1        2.63022  -0.00979  -0.01824   0.00148  -0.01677   2.61345
    R2        2.64963   0.00117  -0.00300  -0.00487  -0.00788   2.64175
    R3        3.29632  -0.02593  -0.02986  -0.00142  -0.03127   3.26505
    R4        2.61516  -0.01883  -0.03020   0.00643  -0.02376   2.59140
    R5        3.12938  -0.12188  -0.12116  -0.25193  -0.37309   2.75629
    R6        2.61548  -0.01817  -0.02948   0.00452  -0.02494   2.59054
    R7        3.12910  -0.12213  -0.12138  -0.25243  -0.37382   2.75528
    R8        2.61516  -0.01883  -0.03020   0.00643  -0.02376   2.59140
    R9        3.12910  -0.12213  -0.12138  -0.25243  -0.37382   2.75528
   R10        2.63022  -0.00979  -0.01823   0.00147  -0.01676   2.61345
   R11        3.12936  -0.12188  -0.12116  -0.25193  -0.37309   2.75627
   R12        3.29631  -0.02593  -0.02985  -0.00142  -0.03127   3.26505
    A1        2.08609  -0.00516  -0.00638   0.00084  -0.00556   2.08053
    A2        2.09323  -0.00042  -0.00044  -0.00168  -0.00210   2.09112
    A3        2.10387   0.00558   0.00681   0.00084   0.00766   2.11154
    A4        2.10020   0.00407   0.00427   0.00150   0.00577   2.10598
    A5        2.08893  -0.00365  -0.00382  -0.00234  -0.00616   2.08276
    A6        2.09406  -0.00042  -0.00045   0.00084   0.00039   2.09444
    A7        2.09689   0.00110   0.00210  -0.00234  -0.00021   2.09668
    A8        2.09270  -0.00088  -0.00138   0.00093  -0.00046   2.09225
    A9        2.09359  -0.00022  -0.00073   0.00141   0.00067   2.09425
   A10        2.09689   0.00110   0.00210  -0.00234  -0.00021   2.09668
   A11        2.09359  -0.00022  -0.00073   0.00141   0.00067   2.09426
   A12        2.09270  -0.00088  -0.00138   0.00093  -0.00046   2.09225
   A13        2.10020   0.00407   0.00427   0.00150   0.00577   2.10598
   A14        2.09405  -0.00042  -0.00045   0.00084   0.00039   2.09444
   A15        2.08893  -0.00365  -0.00382  -0.00234  -0.00616   2.08277
   A16        2.08609  -0.00517  -0.00638   0.00084  -0.00556   2.08053
   A17        2.10387   0.00558   0.00681   0.00084   0.00767   2.11153
   A18        2.09322  -0.00042  -0.00044  -0.00168  -0.00210   2.09112
    D1        0.00000   0.00000   0.00000   0.00000  -0.00000   0.00000
    D2        3.14159   0.00000   0.00000   0.00000   0.00000   3.14159
    D3        3.14159  -0.00000   0.00000  -0.00000   0.00000   3.14159
    D4       -0.00000  -0.00000   0.00000  -0.00000   0.00000   0.00000
    D5       -0.00000  -0.00000   0.00000  -0.00000   0.00000   0.00000
    D6        3.14159  -0.00000   0.00000  -0.00000   0.00000   3.14159
    D7        3.14159   0.00000   0.00000   0.00000   0.00000   3.14159
    D8        0.00000   0.00000   0.00000  -0.00000  -0.00000   0.00000
    D9       -0.00000   0.00000   0.00000   0.00000   0.00000   0.00000
   D10        3.14159   0.00000   0.00000   0.00000   0.00000   3.14159
   D11        3.14159  -0.00000   0.00000  -0.00000   0.00000   3.14159
   D12        0.00000   0.00000   0.00000   0.00000  -0.00000   0.00000
   D13        0.00000  -0.00000   0.00000  -0.00000   0.00000   0.00000
   D14        3.14159   0.00000   0.00000   0.00000   0.00000   3.14159
   D15        3.14159  -0.00000   0.00000  -0.00000   0.00000   3.14159
   D16        0.00000  -0.00000   0.00000  -0.00000  -0.00000   0.00000
   D17       -0.00000  -0.00000   0.00000  -0.00000   0.00000   0.00000
   D18        3.14159   0.00000   0.00000   0.00000   0.00000   3.14159
   D19        3.14159  -0.00000   0.00000  -0.00000   0.00000   3.14159
   D20       -0.00000  -0.00000   0.00000   0.00000   0.00000   0.00000
   D21        0.00000   0.00000   0.00000   0.00000   0.00000   0.00000
   D22        3.14159   0.00000   0.00000   0.00000   0.00000   3.14159
   D23        3.14159  -0.00000   0.00000  -0.00000   0.00000   3.14159
   D24       -0.00000  -0.00000   0.00000  -0.00000   0.00000   0.00000
         Item               Value     Threshold  Converged?
 Maximum Force            0.122129     0.000450     NO 
 RMS     Force            0.033966     0.000300     NO 
 Maximum Displacement     0.399167     0.001800     NO 
 RMS     Displacement     0.106037     0.001200     NO 
 Predicted change in Energy=-1.851109D-01
 GradGradGradGradGradGradGradGradGradGradGradGradGradGradGradGradGradGrad

                          Input orientation:                          
 ---------------------------------------------------------------------
 Center     Atomic      Atomic             Coordinates (Angstroms)
 Number     Number       Type             X           Y           Z
 ---------------------------------------------------------------------
      1          6           0       -3.155895    0.196923    0.000000
      2          6           0       -1.967713    0.904635    0.000000
      3          6           0       -0.763238    0.249098    0.000000
      4          6           0       -0.725591   -1.121243   -0.000000
      5          6           0       -1.892263   -1.841918   -0.000000
      6          6           0       -3.117505   -1.200505   -0.000000
      7         17           0       -4.573806   -2.130257   -0.000000
      8         17           0       -4.661046    1.045323    0.000000
      9          1           0       -2.004506    2.362736    0.000000
     10          1           0        0.479067    1.012342    0.000000
     11          1           0        0.556741   -1.815134   -0.000000
     12          1           0       -1.848945   -3.299830   -0.000000
 ---------------------------------------------------------------------
                    Distance matrix (angstroms):
                    1          2          3          4          5
     1  C    0.000000
     2  C    1.382980   0.000000
     3  C    2.393226   1.371309   0.000000
     4  C    2.764768   2.376352   1.370857   0.000000
     5  C    2.398675   2.747589   2.376351   1.371312   0.000000
     6  C    1.397956   2.398674   2.764764   2.393227   1.382978
     7  Cl   2.725113   4.000287   4.492411   3.978300   2.697001
     8  Cl   1.727791   2.697005   3.978302   4.492418   4.000290
     9  H    2.452843   1.458565   2.451166   3.711298   4.206151
    10  H    3.725299   2.449149   1.458034   2.450180   3.710795
    11  H    4.222800   3.710797   2.450183   1.458033   2.449150
    12  H    3.733015   4.206142   3.711286   2.451156   1.458556
                    6          7          8          9         10
     6  C    0.000000
     7  Cl   1.727788   0.000000
     8  Cl   2.725117   3.176778   0.000000
     9  H    3.733021   5.175740   2.965262   0.000000
    10  H    4.222797   5.950416   5.140218   2.826959   0.000000
    11  H    3.725299   5.140215   5.950422   4.900468   2.828543
    12  H    2.452837   2.965260   5.175738   5.664702   4.900455
                   11         12
    11  H    0.000000
    12  H    2.826950   0.000000
 Stoichiometry    C6H4Cl2
 Framework group  CS[SG(C6H4Cl2)]
 Deg. of freedom    21
 Full point group                 CS      NOp   2
 Largest Abelian subgroup         CS      NOp   2
 Largest concise Abelian subgroup C1      NOp   1
                         Standard orientation:                         
 ---------------------------------------------------------------------
 Center     Atomic      Atomic             Coordinates (Angstroms)
 Number     Number       Type             X           Y           Z
 ---------------------------------------------------------------------
      1          6           0       -0.034776   -0.698977    0.000000
      2          6           0        1.172393   -1.373793   -0.000000
      3          6           0        2.358412   -0.685425   -0.000000
      4          6           0        2.358413    0.685432   -0.000000
      5          6           0        1.172390    1.373796   -0.000000
      6          6           0       -0.034776    0.698978    0.000000
      7         17           0       -1.516060    1.588387    0.000000
      8         17           0       -1.516061   -1.588391    0.000000
      9          1           0        1.175656   -2.832354   -0.000000
     10          1           0        3.621208   -1.414266   -0.000000
     11          1           0        3.621205    1.414277   -0.000000
     12          1           0        1.175654    2.832348   -0.000000
 ---------------------------------------------------------------------
 Rotational constants (GHZ):           1.9074527           1.4219615           0.8146551
 Standard basis: VSTO-6G (5D, 7F)
 There are    28 symmetry adapted cartesian basis functions of A'  symmetry.
 There are     8 symmetry adapted cartesian basis functions of A"  symmetry.
 There are    28 symmetry adapted basis functions of A'  symmetry.
 There are     8 symmetry adapted basis functions of A"  symmetry.
    36 basis functions,   216 primitive gaussians,    36 cartesian basis functions
    21 alpha electrons       21 beta electrons
       nuclear repulsion energy       203.3746886481 Hartrees.
 Integral buffers will be    131072 words long.
 Regular integral format.
 Two-electron integral symmetry is turned off.
 Do NDO integrals.
 One-electron integrals computed using PRISM.
 NBasis=    36 RedAO= T EigKep=  1.00D+00  NBF=    28     8
 NBsUse=    36 1.00D-06 EigRej= -1.00D+00 NBFU=    28     8
 Initial guess from the checkpoint file:  "geometry_chks/12ClBz.chk"
 B after Tr=     0.000000   -0.000000    0.000000
         Rot=    0.999718   -0.000000   -0.000000    0.023746 Ang=   2.72 deg.
 Initial guess orbital symmetries:
       Occupied  (A') (A') (A') (A') (A') (A') (A') (A') (A') (A')
                 (A") (A') (A") (A') (A") (A') (A') (A') (A') (A")
                 (A")
       Virtual   (A") (A') (A") (A') (A') (A') (A') (A') (A") (A')
                 (A') (A') (A') (A') (A')
 Keep J ints in memory in canonical form, NReq=862905.
 Overlap will be assumed to be unity.
 Requested convergence on RMS density matrix=1.00D-08 within  32 cycles.
 Requested convergence on MAX density matrix=1.00D-06.
 Requested convergence on             energy=1.00D-06.
 No special actions if energy rises.
 Fock symm off for IB=2 I1=    1 I=   29 J=    7 Cut=1.00D-07 Err=4.68D-03
 Fock matrix is not symmetric: symmetry in diagonalization turned off.
 SCF Done:  E(RAM1) =  0.217634103838     A.U. after   13 cycles
            NFock= 12  Conv=0.21D-08     -V/T= 1.0024
 QCSCF skips out because SCF is already converged.
 Calling FoFJK, ICntrl=      2127 FMM=F ISym2X=1 I1Cent= 0 IOpClX= 0 NMat=1 NMatS=1 NMatT=0.
 ***** Axes restored to original set *****
 -------------------------------------------------------------------
 Center     Atomic                   Forces (Hartrees/Bohr)
 Number     Number              X              Y              Z
 -------------------------------------------------------------------
      1        6          -0.024555798    0.015733561   -0.000000000
      2        6           0.000054463    0.121111109   -0.000000000
      3        6           0.104834105    0.066848902    0.000000000
      4        6           0.108342920   -0.060993472   -0.000000000
      5        6           0.006707828   -0.120924688    0.000000000
      6        6          -0.023656136   -0.017056387    0.000000000
      7       17           0.014944250    0.008429826   -0.000000000
      8       17           0.015386091   -0.007597640   -0.000000000
      9        1           0.002297737   -0.114961756    0.000000000
     10        1          -0.098589960   -0.060226227    0.000000000
     11        1          -0.101747675    0.054723132    0.000000000
     12        1          -0.004017824    0.114913641    0.000000000
 -------------------------------------------------------------------
 Cartesian Forces:  Max     0.121111109 RMS     0.056686298

 GradGradGradGradGradGradGradGradGradGradGradGradGradGradGradGradGradGrad
 Berny optimization.
 Using GEDIIS/GDIIS optimizer.
 FormGI is forming the generalized inverse of G from B-inverse, IUseBI=4.
 Internal  Forces:  Max     0.115529755 RMS     0.031694957
 Search for a local minimum.
 Step number   4 out of a maximum of   64
 All quantities printed in internal units (Hartrees-Bohrs-Radians)
 Mixed Optimization -- RFO/linear search
 Update second derivatives using D2CorX and points    3    4
 DE= -1.82D-01 DEPred=-1.85D-01 R= 9.84D-01
 TightC=F SS=  1.41D+00  RLast= 7.50D-01 DXNew= 8.4853D-01 2.2501D+00
 Trust test= 9.84D-01 RLast= 7.50D-01 DXMaxT set to 8.49D-01
 ITU=  1  1  1  0
 Use linear search instead of GDIIS.
 Linear search step of   1.150 exceeds DXMaxT=   0.849 but not scaled.
 Quartic linear search produced a step of  1.53326.
 Iteration  1 RMS(Cart)=  0.06576583 RMS(Int)=  0.10140951
 Iteration  2 RMS(Cart)=  0.05270511 RMS(Int)=  0.04697651
 Iteration  3 RMS(Cart)=  0.04547116 RMS(Int)=  0.00001503
 Iteration  4 RMS(Cart)=  0.00000035 RMS(Int)=  0.00001503
 ClnCor:  largest displacement from symmetrization is 4.69D-09 for atom     5.
 Variable       Old X    -DE/DX   Delta X   Delta X   Delta X     New X
                                 (Linear)    (Quad)   (Total)
    R1        2.61345   0.00939  -0.02571   0.00000  -0.02572   2.58773
    R2        2.64175   0.01163  -0.01208   0.00000  -0.01211   2.62964
    R3        3.26505  -0.01713  -0.04795   0.00000  -0.04795   3.21710
    R4        2.59140   0.00698  -0.03642   0.00000  -0.03641   2.55499
    R5        2.75629  -0.11498  -0.57205   0.00000  -0.57205   2.18424
    R6        2.59054   0.00929  -0.03824   0.00000  -0.03821   2.55233
    R7        2.75528  -0.11553  -0.57316   0.00000  -0.57316   2.18213
    R8        2.59140   0.00698  -0.03643   0.00000  -0.03641   2.55499
    R9        2.75528  -0.11553  -0.57316   0.00000  -0.57316   2.18213
   R10        2.61345   0.00939  -0.02570   0.00000  -0.02572   2.58773
   R11        2.75627  -0.11498  -0.57204   0.00000  -0.57204   2.18423
   R12        3.26505  -0.01713  -0.04794   0.00000  -0.04794   3.21711
    A1        2.08053  -0.00137  -0.00853   0.00000  -0.00857   2.07196
    A2        2.09112  -0.00084  -0.00322   0.00000  -0.00320   2.08792
    A3        2.11154   0.00221   0.01175   0.00000   0.01177   2.12331
    A4        2.10598   0.00176   0.00885   0.00000   0.00885   2.11483
    A5        2.08276  -0.00171  -0.00945   0.00000  -0.00945   2.07332
    A6        2.09444  -0.00005   0.00059   0.00000   0.00059   2.09504
    A7        2.09668  -0.00039  -0.00032   0.00000  -0.00028   2.09640
    A8        2.09225  -0.00021  -0.00070   0.00000  -0.00072   2.09153
    A9        2.09425   0.00060   0.00102   0.00000   0.00100   2.09526
   A10        2.09668  -0.00039  -0.00032   0.00000  -0.00028   2.09639
   A11        2.09426   0.00060   0.00102   0.00000   0.00100   2.09526
   A12        2.09225  -0.00021  -0.00070   0.00000  -0.00072   2.09153
   A13        2.10598   0.00176   0.00885   0.00000   0.00885   2.11483
   A14        2.09444  -0.00005   0.00059   0.00000   0.00059   2.09503
   A15        2.08277  -0.00171  -0.00945   0.00000  -0.00945   2.07332
   A16        2.08053  -0.00137  -0.00853   0.00000  -0.00857   2.07196
   A17        2.11153   0.00221   0.01175   0.00000   0.01177   2.12331
   A18        2.09112  -0.00084  -0.00322   0.00000  -0.00320   2.08792
    D1       -0.00000   0.00000   0.00000   0.00000   0.00000   0.00000
    D2        3.14159   0.00000   0.00000   0.00000   0.00000   3.14159
    D3        3.14159  -0.00000   0.00000   0.00000   0.00000   3.14159
    D4        0.00000   0.00000   0.00000   0.00000   0.00000   0.00000
    D5        0.00000  -0.00000   0.00000   0.00000   0.00000   0.00000
    D6        3.14159  -0.00000   0.00000   0.00000   0.00000   3.14159
    D7        3.14159   0.00000   0.00000   0.00000   0.00000   3.14159
    D8        0.00000   0.00000   0.00000   0.00000  -0.00000   0.00000
    D9        0.00000   0.00000   0.00000   0.00000   0.00000   0.00000
   D10        3.14159   0.00000   0.00000   0.00000   0.00000   3.14159
   D11        3.14159  -0.00000   0.00000   0.00000   0.00000   3.14159
   D12       -0.00000  -0.00000   0.00000   0.00000   0.00000   0.00000
   D13        0.00000  -0.00000   0.00000   0.00000  -0.00000   0.00000
   D14        3.14159   0.00000   0.00000   0.00000   0.00000   3.14159
   D15        3.14159  -0.00000   0.00000   0.00000   0.00000   3.14159
   D16        0.00000  -0.00000   0.00000   0.00000   0.00000   0.00000
   D17        0.00000   0.00000   0.00000   0.00000  -0.00000   0.00000
   D18        3.14159   0.00000   0.00000   0.00000   0.00000   3.14159
   D19        3.14159  -0.00000   0.00000   0.00000   0.00000   3.14159
   D20       -0.00000  -0.00000   0.00000   0.00000   0.00000   0.00000
   D21       -0.00000   0.00000   0.00000   0.00000   0.00000   0.00000
   D22        3.14159   0.00000   0.00000   0.00000   0.00000   3.14159
   D23        3.14159  -0.00000   0.00000   0.00000   0.00000   3.14159
   D24       -0.00000  -0.00000   0.00000   0.00000   0.00000   0.00000
         Item               Value     Threshold  Converged?
 Maximum Force            0.115530     0.000450     NO 
 RMS     Force            0.031695     0.000300     NO 
 Maximum Displacement     0.611922     0.001800     NO 
 RMS     Displacement     0.162604     0.001200     NO 
 Predicted change in Energy=-2.485214D-01
 GradGradGradGradGradGradGradGradGradGradGradGradGradGradGradGradGradGrad

                          Input orientation:                          
 ---------------------------------------------------------------------
 Center     Atomic      Atomic             Coordinates (Angstroms)
 Number     Number       Type             X           Y           Z
 ---------------------------------------------------------------------
      1          6           0       -3.107404    0.195050   -0.000000
      2          6           0       -1.924954    0.885689   -0.000000
      3          6           0       -0.737220    0.239698   -0.000000
      4          6           0       -0.700128   -1.110429   -0.000000
      5          6           0       -1.850607   -1.820652   -0.000000
      6          6           0       -3.069191   -1.195972   -0.000000
      7         17           0       -4.493225   -2.128902    0.000000
      8         17           0       -4.580507    1.048393    0.000000
      9          1           0       -1.955125    2.041145   -0.000000
     10          1           0        0.246053    0.845158   -0.000000
     11          1           0        0.314900   -1.660994   -0.000000
     12          1           0       -1.817293   -2.976015   -0.000000
 ---------------------------------------------------------------------
                    Distance matrix (angstroms):
                    1          2          3          4          5
     1  C    0.000000
     2  C    1.369368   0.000000
     3  C    2.370605   1.352041   0.000000
     4  C    2.738476   2.341940   1.350637   0.000000
     5  C    2.375414   2.707361   2.341938   1.352042   0.000000
     6  C    1.391547   2.375413   2.738474   2.370606   1.369369
     7  Cl   2.705781   3.960274   4.440478   3.927450   2.660535
     8  Cl   1.702418   2.660532   3.927447   4.440479   3.960274
     9  H    2.176193   1.155851   2.174512   3.392261   3.863211
    10  H    3.415892   2.171386   1.154733   2.172460   3.391537
    11  H    3.893208   3.391540   2.172462   1.154732   2.171385
    12  H    3.423454   3.863204   3.392251   2.174504   1.155843
                    6          7          8          9         10
     6  C    0.000000
     7  Cl   1.702419   0.000000
     8  Cl   2.705781   3.178494   0.000000
     9  H    3.423459   4.881726   2.806811   0.000000
    10  H    3.893206   5.595158   4.830837   2.505109   0.000000
    11  H    3.415892   4.830839   5.595158   4.342678   2.507098
    12  H    2.176190   2.806816   4.881722   5.019053   4.342667
                   11         12
    11  H    0.000000
    12  H    2.505100   0.000000
 Stoichiometry    C6H4Cl2
 Framework group  CS[SG(C6H4Cl2)]
 Deg. of freedom    21
 Full point group                 CS      NOp   2
 Largest Abelian subgroup         CS      NOp   2
 Largest concise Abelian subgroup C1      NOp   1
                         Standard orientation:                         
 ---------------------------------------------------------------------
 Center     Atomic      Atomic             Coordinates (Angstroms)
 Number     Number       Type             X           Y           Z
 ---------------------------------------------------------------------
      1          6           0        0.000000   -0.696753    0.000000
      2          6           0        1.234156   -1.290073    0.000000
      3          6           0        2.366099   -0.550668    0.000000
      4          6           0        2.294505    0.798070    0.000000
      5          6           0        1.090643    1.413482    0.000000
      6          6           0       -0.073764    0.692837    0.000000
      7         17           0       -1.568205    1.508238    0.000000
      8         17           0       -1.399714   -1.665786    0.000000
      9          1           0        1.296994   -2.444214    0.000000
     10          1           0        3.394874   -1.075101    0.000000
     11          1           0        3.261976    1.428472    0.000000
     12          1           0        1.030945    2.567783    0.000000
 ---------------------------------------------------------------------
 Rotational constants (GHZ):           1.9509239           1.4782786           0.8410145
 Standard basis: VSTO-6G (5D, 7F)
 There are    28 symmetry adapted cartesian basis functions of A'  symmetry.
 There are     8 symmetry adapted cartesian basis functions of A"  symmetry.
 There are    28 symmetry adapted basis functions of A'  symmetry.
 There are     8 symmetry adapted basis functions of A"  symmetry.
    36 basis functions,   216 primitive gaussians,    36 cartesian basis functions
    21 alpha electrons       21 beta electrons
       nuclear repulsion energy       207.0259590236 Hartrees.
 Integral buffers will be    131072 words long.
 Regular integral format.
 Two-electron integral symmetry is turned off.
 Do NDO integrals.
 One-electron integrals computed using PRISM.
 NBasis=    36 RedAO= T EigKep=  1.00D+00  NBF=    28     8
 NBsUse=    36 1.00D-06 EigRej= -1.00D+00 NBFU=    28     8
 Initial guess from the checkpoint file:  "geometry_chks/12ClBz.chk"
 B after Tr=    -0.000000    0.000000    0.000000
         Rot=    0.999648   -0.000000   -0.000000   -0.026513 Ang=  -3.04 deg.
 Initial guess orbital symmetries:
       Occupied  (A') (A') (A') (A') (A') (A') (A') (A') (A') (A')
                 (A") (A') (A') (A") (A") (A') (A') (A') (A') (A")
                 (A")
       Virtual   (A") (A") (A') (A') (A') (A') (A') (A') (A") (A')
                 (A') (A') (A') (A') (A')
 Keep J ints in memory in canonical form, NReq=862905.
 Overlap will be assumed to be unity.
 Requested convergence on RMS density matrix=1.00D-08 within  32 cycles.
 Requested convergence on MAX density matrix=1.00D-06.
 Requested convergence on             energy=1.00D-06.
 No special actions if energy rises.
 Fock symm off for IB=2 I1=    1 I=   29 J=    6 Cut=1.00D-07 Err=6.73D-03
 Fock matrix is not symmetric: symmetry in diagonalization turned off.
 SCF Done:  E(RAM1) =  0.311331600599E-01 A.U. after   13 cycles
            NFock= 12  Conv=0.49D-08     -V/T= 1.0003
 QCSCF skips out because SCF is already converged.
 Calling FoFJK, ICntrl=      2127 FMM=F ISym2X=1 I1Cent= 0 IOpClX= 0 NMat=1 NMatS=1 NMatT=0.
 ***** Axes restored to original set *****
 -------------------------------------------------------------------
 Center     Atomic                   Forces (Hartrees/Bohr)
 Number     Number              X              Y              Z
 -------------------------------------------------------------------
      1        6          -0.038958312    0.002569378   -0.000000000
      2        6          -0.016696501    0.085742606   -0.000000000
      3        6           0.075885985    0.051448650   -0.000000000
      4        6           0.078594489   -0.047203979   -0.000000000
      5        6          -0.011964859   -0.086526561   -0.000000000
      6        6          -0.038758210   -0.004705167    0.000000000
      7       17           0.001180797    0.001745017   -0.000000000
      8       17           0.001273879   -0.001677249   -0.000000000
      9        1           0.001323504   -0.029297934    0.000000000
     10        1          -0.025401403   -0.015105778    0.000000000
     11        1          -0.026191900    0.013688527    0.000000000
     12        1          -0.000287468    0.029322490    0.000000000
 -------------------------------------------------------------------
 Cartesian Forces:  Max     0.086526561 RMS     0.032743070

 GradGradGradGradGradGradGradGradGradGradGradGradGradGradGradGradGradGrad
 Berny optimization.
 Using GEDIIS/GDIIS optimizer.
 FormGI is forming the generalized inverse of G from B-inverse, IUseBI=4.
 Internal  Forces:  Max     0.064410665 RMS     0.019257495
 Search for a local minimum.
 Step number   5 out of a maximum of   64
 All quantities printed in internal units (Hartrees-Bohrs-Radians)
 Mixed Optimization -- RFO/linear search
 Update second derivatives using D2CorX and points    4    5
 ITU=  0  1  1  1  0
 Use linear search instead of GDIIS.
     Eigenvalues ---    0.02011   0.02011   0.02011   0.02011   0.02011
     Eigenvalues ---    0.02011   0.02011   0.02011   0.02011   0.06524
     Eigenvalues ---    0.06524   0.06524   0.14742   0.15999   0.16000
     Eigenvalues ---    0.16000   0.16007   0.22000   0.22467   0.24461
     Eigenvalues ---    0.25000   0.25035   0.27760   0.29033   0.40535
     Eigenvalues ---    0.40717   0.44578   0.44657   0.44657   1.12517
 RFO step:  Lambda=-2.02404754D-02 EMin= 2.01065823D-02
 Quartic linear search produced a step of  0.14096.
 Iteration  1 RMS(Cart)=  0.02337254 RMS(Int)=  0.00016504
 Iteration  2 RMS(Cart)=  0.00018105 RMS(Int)=  0.00002489
 Iteration  3 RMS(Cart)=  0.00000003 RMS(Int)=  0.00002489
 ClnCor:  largest displacement from symmetrization is 4.13D-11 for atom    10.
 Variable       Old X    -DE/DX   Delta X   Delta X   Delta X     New X
                                 (Linear)    (Quad)   (Total)
    R1        2.58773   0.04617  -0.00363   0.04064   0.03699   2.62472
    R2        2.62964   0.02930  -0.00171   0.01743   0.01568   2.64532
    R3        3.21710  -0.00194  -0.00676  -0.01739  -0.02415   3.19295
    R4        2.55499   0.05930  -0.00513   0.06426   0.05915   2.61414
    R5        2.18424  -0.02932  -0.08063  -0.03709  -0.11773   2.06652
    R6        2.55233   0.06441  -0.00539   0.07364   0.06830   2.62063
    R7        2.18213  -0.02955  -0.08079  -0.03740  -0.11819   2.06394
    R8        2.55499   0.05930  -0.00513   0.06426   0.05915   2.61414
    R9        2.18213  -0.02955  -0.08079  -0.03740  -0.11819   2.06394
   R10        2.58773   0.04617  -0.00363   0.04064   0.03700   2.62473
   R11        2.18423  -0.02932  -0.08063  -0.03705  -0.11768   2.06655
   R12        3.21711  -0.00194  -0.00676  -0.01739  -0.02415   3.19296
    A1        2.07196   0.00729  -0.00121   0.01829   0.01702   2.08897
    A2        2.08792  -0.00234  -0.00045  -0.01039  -0.01081   2.07711
    A3        2.12331  -0.00495   0.00166  -0.00790  -0.00621   2.11710
    A4        2.11483  -0.00340   0.00125  -0.01860  -0.01736   2.09747
    A5        2.07332   0.00231  -0.00133   0.01345   0.01212   2.08544
    A6        2.09504   0.00109   0.00008   0.00515   0.00524   2.10027
    A7        2.09640  -0.00389  -0.00004   0.00031   0.00034   2.09674
    A8        2.09153   0.00145  -0.00010  -0.00243  -0.00256   2.08897
    A9        2.09526   0.00244   0.00014   0.00212   0.00222   2.09748
   A10        2.09639  -0.00389  -0.00004   0.00031   0.00034   2.09674
   A11        2.09526   0.00244   0.00014   0.00212   0.00222   2.09748
   A12        2.09153   0.00145  -0.00010  -0.00243  -0.00256   2.08897
   A13        2.11483  -0.00340   0.00125  -0.01860  -0.01736   2.09747
   A14        2.09503   0.00109   0.00008   0.00515   0.00524   2.10027
   A15        2.07332   0.00231  -0.00133   0.01345   0.01212   2.08544
   A16        2.07196   0.00729  -0.00121   0.01829   0.01702   2.08897
   A17        2.12331  -0.00495   0.00166  -0.00790  -0.00621   2.11710
   A18        2.08792  -0.00234  -0.00045  -0.01039  -0.01081   2.07711
    D1        0.00000   0.00000   0.00000   0.00000   0.00000   0.00000
    D2        3.14159   0.00000   0.00000  -0.00000   0.00000   3.14159
    D3        3.14159  -0.00000   0.00000   0.00000   0.00000   3.14159
    D4        0.00000   0.00000   0.00000   0.00000   0.00000   0.00000
    D5        0.00000  -0.00000   0.00000   0.00000   0.00000   0.00000
    D6        3.14159  -0.00000   0.00000  -0.00000   0.00000   3.14159
    D7        3.14159   0.00000   0.00000  -0.00000   0.00000   3.14159
    D8        0.00000   0.00000   0.00000  -0.00000   0.00000   0.00000
    D9        0.00000  -0.00000   0.00000  -0.00000   0.00000   0.00000
   D10        3.14159   0.00000   0.00000  -0.00000   0.00000   3.14159
   D11        3.14159  -0.00000   0.00000   0.00000   0.00000   3.14159
   D12        0.00000  -0.00000   0.00000  -0.00000   0.00000   0.00000
   D13        0.00000   0.00000   0.00000   0.00000   0.00000   0.00000
[...]
 Mixed Optimization -- En-DIIS/RFO-DIIS
 Swapping is turned off.
 Update second derivatives using D2CorX and points    5    6    7    8    9
                                                     10
 DE= -3.68D-05 DEPred=-3.73D-05 R= 9.87D-01
 TightC=F SS=  1.41D+00  RLast= 1.43D-02 DXNew= 7.1352D-01 4.2902D-02
 Trust test= 9.87D-01 RLast= 1.43D-02 DXMaxT set to 4.24D-01
 ITU=  1 -1  1  1  1  0  1  1  1  0
     Eigenvalues ---    0.02011   0.02011   0.02011   0.02011   0.02011
     Eigenvalues ---    0.02011   0.02011   0.02011   0.02011   0.06524
     Eigenvalues ---    0.06524   0.15899   0.15992   0.16000   0.16000
     Eigenvalues ---    0.21200   0.22000   0.24482   0.24946   0.25000
     Eigenvalues ---    0.29033   0.29292   0.33702   0.36494   0.40765
     Eigenvalues ---    0.41649   0.44321   0.44657   0.48388   0.75726
 En-DIIS/RFO-DIIS/Sim-DIIS IScMMF=       -3 using points:    10    9    8
 RFO step:  Lambda=-3.11783566D-07.
 Use linear search instead of GDIIS.
 RFO step:  Lambda=-3.02787418D-07 EMin= 2.01065836D-02
 Quartic linear search produced a step of -0.01099.
 Iteration  1 RMS(Cart)=  0.00019447 RMS(Int)=  0.00000001
 Iteration  2 RMS(Cart)=  0.00000002 RMS(Int)=  0.00000000
 ClnCor:  largest displacement from symmetrization is 1.48D-12 for atom     7.
 Variable       Old X    -DE/DX   Delta X   Delta X   Delta X     New X
                                 (Linear)    (Quad)   (Total)
    R1        2.64525   0.00004  -0.00001   0.00014   0.00013   2.64538
    R2        2.65176  -0.00003  -0.00001   0.00000  -0.00000   2.65175
    R3        3.20556   0.00006   0.00000   0.00014   0.00014   3.20570
    R4        2.63187  -0.00010  -0.00000  -0.00015  -0.00015   2.63172
    R5        2.08097  -0.00012  -0.00008  -0.00021  -0.00029   2.08068
    R6        2.63661  -0.00017   0.00000  -0.00031  -0.00030   2.63630
    R7        2.07954  -0.00012   0.00006  -0.00035  -0.00029   2.07925
    R8        2.63187  -0.00010  -0.00000  -0.00015  -0.00015   2.63172
    R9        2.07954  -0.00012   0.00006  -0.00035  -0.00029   2.07926
   R10        2.64525   0.00004  -0.00001   0.00014   0.00013   2.64538
   R11        2.08100  -0.00013  -0.00010  -0.00031  -0.00041   2.08058
   R12        3.20556   0.00006   0.00000   0.00014   0.00014   3.20570
    A1        2.09121  -0.00003   0.00000  -0.00007  -0.00007   2.09114
    A2        2.07809  -0.00000   0.00000  -0.00006  -0.00006   2.07803
    A3        2.11388   0.00004  -0.00000   0.00013   0.00013   2.11401
    A4        2.09452   0.00001   0.00000   0.00001   0.00002   2.09453
    A5        2.09151   0.00000  -0.00000   0.00004   0.00004   2.09155
    A6        2.09715  -0.00001  -0.00000  -0.00005  -0.00005   2.09710
    A7        2.09746   0.00003  -0.00000   0.00006   0.00006   2.09751
    A8        2.08957   0.00002   0.00000   0.00015   0.00015   2.08972
    A9        2.09616  -0.00004   0.00000  -0.00020  -0.00020   2.09595
   A10        2.09745   0.00003  -0.00000   0.00006   0.00006   2.09751
   A11        2.09616  -0.00004   0.00000  -0.00020  -0.00020   2.09595
   A12        2.08957   0.00002   0.00000   0.00015   0.00015   2.08972
   A13        2.09452   0.00001   0.00000   0.00002   0.00002   2.09454
   A14        2.09715  -0.00001  -0.00000  -0.00005  -0.00005   2.09710
   A15        2.09151   0.00000  -0.00000   0.00004   0.00004   2.09155
   A16        2.09121  -0.00003   0.00000  -0.00007  -0.00007   2.09114
   A17        2.11388   0.00004  -0.00000   0.00013   0.00013   2.11401
   A18        2.07809  -0.00000   0.00000  -0.00006  -0.00006   2.07803
    D1        0.00000   0.00000   0.00000   0.00000   0.00000   0.00000
    D2        3.14159   0.00000   0.00000   0.00000   0.00000   3.14159
    D3        3.14159  -0.00000   0.00000  -0.00000   0.00000   3.14159
    D4       -0.00000  -0.00000   0.00000  -0.00000   0.00000   0.00000
    D5        0.00000  -0.00000   0.00000  -0.00000   0.00000   0.00000
    D6        3.14159  -0.00000   0.00000  -0.00000   0.00000   3.14159
    D7        3.14159   0.00000   0.00000   0.00000   0.00000   3.14159
    D8        0.00000   0.00000   0.00000   0.00000   0.00000   0.00000
    D9       -0.00000  -0.00000   0.00000  -0.00000   0.00000   0.00000
   D10        3.14159   0.00000   0.00000   0.00000   0.00000   3.14159
   D11        3.14159  -0.00000   0.00000  -0.00000   0.00000   3.14159
   D12        0.00000  -0.00000   0.00000  -0.00000  -0.00000   0.00000
   D13       -0.00000  -0.00000   0.00000  -0.00000   0.00000   0.00000
   D14        3.14159   0.00000   0.00000   0.00000   0.00000   3.14159
   D15        3.14159  -0.00000   0.00000  -0.00000   0.00000   3.14159
   D16       -0.00000  -0.00000   0.00000  -0.00000   0.00000   0.00000
   D17        0.00000   0.00000   0.00000   0.00000   0.00000   0.00000
   D18        3.14159   0.00000   0.00000   0.00000   0.00000   3.14159
   D19        3.14159  -0.00000   0.00000  -0.00000   0.00000   3.14159
   D20       -0.00000   0.00000   0.00000   0.00000   0.00000   0.00000
   D21       -0.00000  -0.00000   0.00000  -0.00000   0.00000   0.00000
   D22        3.14159   0.00000   0.00000   0.00000   0.00000   3.14159
   D23        3.14159  -0.00000   0.00000  -0.00000   0.00000   3.14159
   D24        0.00000  -0.00000   0.00000  -0.00000   0.00000   0.00000
         Item               Value     Threshold  Converged?
 Maximum Force            0.000168     0.000450     YES
 RMS     Force            0.000050     0.000300     YES
 Maximum Displacement     0.000676     0.001800     YES
 RMS     Displacement     0.000194     0.001200     YES
 Predicted change in Energy=-1.558918D-07
 Optimization completed.
    -- Stationary point found.
                           ----------------------------
                           !   Optimized Parameters   !
                           ! (Angstroms and Degrees)  !
 --------------------------                            --------------------------
 ! Name  Definition              Value          Derivative Info.                !
 --------------------------------------------------------------------------------
 ! R1    R(1,2)                  1.3998         -DE/DX =    0.0                 !
 ! R2    R(1,6)                  1.4033         -DE/DX =    0.0                 !
 ! R3    R(1,8)                  1.6963         -DE/DX =    0.0001              !
 ! R4    R(2,3)                  1.3927         -DE/DX =   -0.0001              !
 ! R5    R(2,9)                  1.1012         -DE/DX =   -0.0001              !
 ! R6    R(3,4)                  1.3952         -DE/DX =   -0.0002              !
 ! R7    R(3,10)                 1.1004         -DE/DX =   -0.0001              !
 ! R8    R(4,5)                  1.3927         -DE/DX =   -0.0001              !
 ! R9    R(4,11)                 1.1004         -DE/DX =   -0.0001              !
 ! R10   R(5,6)                  1.3998         -DE/DX =    0.0                 !
 ! R11   R(5,12)                 1.1012         -DE/DX =   -0.0001              !
 ! R12   R(6,7)                  1.6963         -DE/DX =    0.0001              !
 ! A1    A(2,1,6)              119.8176         -DE/DX =    0.0                 !
 ! A2    A(2,1,8)              119.0658         -DE/DX =    0.0                 !
 ! A3    A(6,1,8)              121.1167         -DE/DX =    0.0                 !
 ! A4    A(1,2,3)              120.0071         -DE/DX =    0.0                 !
 ! A5    A(1,2,9)              119.8349         -DE/DX =    0.0                 !
 ! A6    A(3,2,9)              120.158          -DE/DX =    0.0                 !
 ! A7    A(2,3,4)              120.1753         -DE/DX =    0.0                 !
 ! A8    A(2,3,10)             119.7238         -DE/DX =    0.0                 !
 ! A9    A(4,3,10)             120.1009         -DE/DX =    0.0                 !
 ! A10   A(3,4,5)              120.1753         -DE/DX =    0.0                 !
 ! A11   A(3,4,11)             120.1009         -DE/DX =    0.0                 !
 ! A12   A(5,4,11)             119.7238         -DE/DX =    0.0                 !
 ! A13   A(4,5,6)              120.0071         -DE/DX =    0.0                 !
 ! A14   A(4,5,12)             120.158          -DE/DX =    0.0                 !
 ! A15   A(6,5,12)             119.8349         -DE/DX =    0.0                 !
 ! A16   A(1,6,5)              119.8176         -DE/DX =    0.0                 !
 ! A17   A(1,6,7)              121.1167         -DE/DX =    0.0                 !
 ! A18   A(5,6,7)              119.0658         -DE/DX =    0.0                 !
 ! D1    D(6,1,2,3)              0.0            -DE/DX =    0.0                 !
 ! D2    D(6,1,2,9)            180.0            -DE/DX =    0.0                 !
 ! D3    D(8,1,2,3)            180.0            -DE/DX =    0.0                 !
 ! D4    D(8,1,2,9)              0.0            -DE/DX =    0.0                 !
 ! D5    D(2,1,6,5)              0.0            -DE/DX =    0.0                 !
 ! D6    D(2,1,6,7)            180.0            -DE/DX =    0.0                 !
 ! D7    D(8,1,6,5)            180.0            -DE/DX =    0.0                 !
 ! D8    D(8,1,6,7)              0.0            -DE/DX =    0.0                 !
 ! D9    D(1,2,3,4)              0.0            -DE/DX =    0.0                 !
 ! D10   D(1,2,3,10)           180.0            -DE/DX =    0.0                 !
 ! D11   D(9,2,3,4)            180.0            -DE/DX =    0.0                 !
 ! D12   D(9,2,3,10)             0.0            -DE/DX =    0.0                 !
 ! D13   D(2,3,4,5)              0.0            -DE/DX =    0.0                 !
 ! D14   D(2,3,4,11)           180.0            -DE/DX =    0.0                 !
 ! D15   D(10,3,4,5)           180.0            -DE/DX =    0.0                 !
 ! D16   D(10,3,4,11)            0.0            -DE/DX =    0.0                 !
 ! D17   D(3,4,5,6)              0.0            -DE/DX =    0.0                 !
 ! D18   D(3,4,5,12)           180.0            -DE/DX =    0.0                 !
 ! D19   D(11,4,5,6)           180.0            -DE/DX =    0.0                 !
 ! D20   D(11,4,5,12)            0.0            -DE/DX =    0.0                 !
 ! D21   D(4,5,6,1)              0.0            -DE/DX =    0.0                 !
 ! D22   D(4,5,6,7)            180.0            -DE/DX =    0.0                 !
 ! D23   D(12,5,6,1)           180.0            -DE/DX =    0.0                 !
 ! D24   D(12,5,6,7)             0.0            -DE/DX =    0.0                 !
 --------------------------------------------------------------------------------
 GradGradGradGradGradGradGradGradGradGradGradGradGradGradGradGradGradGrad

                          Input orientation:                          
 ---------------------------------------------------------------------
 Center     Atomic      Atomic             Coordinates (Angstroms)
 Number     Number       Type             X           Y           Z
 ---------------------------------------------------------------------
      1          6           0       -3.119417    0.200576   -0.000000
      2          6           0       -1.924498    0.929705   -0.000000
      3          6           0       -0.701728    0.262981   -0.000000
      4          6           0       -0.663414   -1.131724   -0.000000
      5          6           0       -1.847736   -1.864573   -0.000000
      6          6           0       -3.080883   -1.202146   -0.000000
      7         17           0       -4.508502   -2.118318    0.000000
      8         17           0       -4.595182    1.036989    0.000000
      9          1           0       -1.954406    2.030501   -0.000000
     10          1           0        0.234802    0.840818   -0.000000
     11          1           0        0.303427   -1.657273   -0.000000
     12          1           0       -1.817163   -2.965365   -0.000000
 ---------------------------------------------------------------------
                    Distance matrix (angstroms):
                    1          2          3          4          5
     1  C    0.000000
     2  C    1.399808   0.000000
     3  C    2.418495   1.392726   0.000000
     4  C    2.794097   2.416572   1.395231   0.000000
     5  C    2.425286   2.795332   2.416572   1.392726   0.000000
     6  C    1.403251   2.425286   2.794096   2.418495   1.399808
     7  Cl   2.703114   3.995938   4.490224   3.969644   2.672838
     8  Cl   1.696310   2.672838   3.969644   4.490224   3.995938
     9  H    2.169304   1.101203   2.166409   3.415601   3.896535
    10  H    3.414777   2.161129   1.100448   2.167421   3.414104
    11  H    3.894543   3.414104   2.167421   1.100447   2.161129
    12  H    3.423310   3.896549   3.415614   2.166421   1.101217
                    6          7          8          9         10
     6  C    0.000000
     7  Cl   1.696310   0.000000
     8  Cl   2.703114   3.156497   0.000000
     9  H    3.423296   4.871972   2.821483   0.000000
    10  H    3.894544   5.590655   4.833966   2.491581   0.000000
    11  H    3.414776   4.833966   5.590655   4.324059   2.499033
    12  H    2.169316   2.821488   4.871984   4.997751   4.324071
                   11         12
    11  H    0.000000
    12  H    2.491588   0.000000
 Stoichiometry    C6H4Cl2
 Framework group  CS[SG(C6H4Cl2)]
 Deg. of freedom    21
 Full point group                 CS      NOp   2
 Largest Abelian subgroup         CS      NOp   2
 Largest concise Abelian subgroup C1      NOp   1
                         Standard orientation:                         
 ---------------------------------------------------------------------
 Center     Atomic      Atomic             Coordinates (Angstroms)
 Number     Number       Type             X           Y           Z
 ---------------------------------------------------------------------
      1          6           0       -0.045816   -0.701626   -0.000000
      2          6           0        1.168676   -1.397666    0.000000
      3          6           0        2.372675   -0.697616    0.000000
      4          6           0        2.372675    0.697616    0.000000
      5          6           0        1.168676    1.397666    0.000000
      6          6           0       -0.045816    0.701625   -0.000000
      7         17           0       -1.498056    1.578248   -0.000000
      8         17           0       -1.498055   -1.578249   -0.000000
      9          1           0        1.169008   -2.498869    0.000000
     10          1           0        3.324721   -1.249517    0.000000
     11          1           0        3.324720    1.249517    0.000000
     12          1           0        1.169008    2.498883    0.000000
 ---------------------------------------------------------------------
 Rotational constants (GHZ):           1.9413974           1.4482026           0.8294598

 **********************************************************************

            Population analysis using the SCF Density.

 **********************************************************************

 Orbital symmetries:
       Occupied  (A') (A') (A') (A') (A') (A') (A') (A') (A') (A')
                 (A') (A") (A') (A') (A") (A') (A") (A') (A') (A")
                 (A")
       Virtual   (A") (A") (A') (A') (A") (A') (A') (A') (A') (A')
                 (A') (A') (A') (A') (A')
 The electronic state is 1-A'.
 Alpha  occ. eigenvalues --   -1.46829  -1.38644  -1.38006  -1.16906  -1.15437
 Alpha  occ. eigenvalues --   -0.87715  -0.87236  -0.68645  -0.62749  -0.61539
 Alpha  occ. eigenvalues --   -0.56097  -0.55330  -0.54701  -0.47912  -0.47616
 Alpha  occ. eigenvalues --   -0.47432  -0.45634  -0.43711  -0.43539  -0.36633
 Alpha  occ. eigenvalues --   -0.35284
 Alpha virt. eigenvalues --   -0.00522  -0.00065   0.03975   0.04999   0.08566
 Alpha virt. eigenvalues --    0.12673   0.13316   0.14204   0.14592   0.15451
 Alpha virt. eigenvalues --    0.16611   0.17557   0.17971   0.18968   0.19968
          Condensed to atoms (all electrons):
               1          2          3          4          5          6
     1  C    4.061077   0.000000   0.000000   0.000000   0.000000   0.000000
     2  C    0.000000   4.117493   0.000000   0.000000   0.000000   0.000000
     3  C    0.000000   0.000000   4.121416   0.000000   0.000000   0.000000
     4  C    0.000000   0.000000   0.000000   4.121416   0.000000   0.000000
     5  C    0.000000   0.000000   0.000000   0.000000   4.117494   0.000000
     6  C    0.000000   0.000000   0.000000   0.000000   0.000000   4.061077
     7  Cl   0.000000   0.000000   0.000000   0.000000   0.000000   0.000000
     8  Cl   0.000000   0.000000   0.000000   0.000000   0.000000   0.000000
     9  H    0.000000   0.000000   0.000000   0.000000   0.000000   0.000000
    10  H    0.000000   0.000000   0.000000   0.000000   0.000000   0.000000
    11  H    0.000000   0.000000   0.000000   0.000000   0.000000   0.000000
    12  H    0.000000   0.000000   0.000000   0.000000   0.000000   0.000000
               7          8          9         10         11         12
     1  C    0.000000   0.000000   0.000000   0.000000   0.000000   0.000000
     2  C    0.000000   0.000000   0.000000   0.000000   0.000000   0.000000
     3  C    0.000000   0.000000   0.000000   0.000000   0.000000   0.000000
     4  C    0.000000   0.000000   0.000000   0.000000   0.000000   0.000000
     5  C    0.000000   0.000000   0.000000   0.000000   0.000000   0.000000
     6  C    0.000000   0.000000   0.000000   0.000000   0.000000   0.000000
     7  Cl   6.992046   0.000000   0.000000   0.000000   0.000000   0.000000
     8  Cl   0.000000   6.992046   0.000000   0.000000   0.000000   0.000000
     9  H    0.000000   0.000000   0.848910   0.000000   0.000000   0.000000
    10  H    0.000000   0.000000   0.000000   0.859058   0.000000   0.000000
    11  H    0.000000   0.000000   0.000000   0.000000   0.859058   0.000000
    12  H    0.000000   0.000000   0.000000   0.000000   0.000000   0.848909
 Mulliken charges:
               1
     1  C   -0.061077
     2  C   -0.117493
     3  C   -0.121416
     4  C   -0.121416
     5  C   -0.117494
     6  C   -0.061077
     7  Cl   0.007954
     8  Cl   0.007954
     9  H    0.151090
    10  H    0.140942
    11  H    0.140942
    12  H    0.151091
 Sum of Mulliken charges =  -0.00000
 Mulliken charges with hydrogens summed into heavy atoms:
               1
     1  C   -0.061077
     2  C    0.033597
     3  C    0.019526
     4  C    0.019526
     5  C    0.033598
     6  C   -0.061077
     7  Cl   0.007954
     8  Cl   0.007954
 Charge=              0.0000 electrons
 Dipole moment (field-independent basis, Debye):
    X=              1.9694    Y=              0.0000    Z=              0.0000  Tot=              1.9694
 N-N= 2.059992744165D+02 E-N=-2.898111211810D+02  KE=-9.140640341135D+01
 Symmetry A'   KE=-7.097969059894D+01
 Symmetry A"   KE=-2.042671281241D+01
 1\1\GINC-SH02-01N15\FOpt\RAM1\ZDO\C6H4Cl2\JLAPIER\09-Dec-2025\0\\# opt
  am1 SCF=XQC\\2-Chloro-Benzene (12)\\0,1\C,-3.1194174798,0.2005756203,
 0.\C,-1.9244979358,0.9297048118,0.\C,-0.7017282486,0.2629811595,0.\C,-
 0.6634139461,-1.1317239689,0.\C,-1.8477357581,-1.864573268,0.\C,-3.080
 8830357,-1.2021458845,0.\Cl,-4.5085022611,-2.118318215,0.\Cl,-4.595182
 1776,1.0369886142,0.\H,-1.9544056836,2.0305012272,0.\H,0.2348022074,0.
 8408180223,0.\H,0.3034274999,-1.6572727672,0.\H,-1.8171631809,-2.96536
 53517,0.\\Version=ES64L-G16RevB.01\State=1-A'\HF=0.0145493\RMSD=8.394e
 -09\RMSF=5.933e-05\Dipole=0.7745464,0.0212717,0.\PG=CS [SG(C6H4Cl2)]\\
 @


  THE LARGE PRINT GIVETH,
  AND THE SMALL PRINT TAKETH AWAY.

                     -- TOM WAITS
 Job cpu time:       0 days  0 hours  0 minutes  7.9 seconds.
 Elapsed time:       0 days  0 hours  0 minutes 18.9 seconds.
 File lengths (MBytes):  RWF=     10 Int=      0 D2E=      0 Chk=      2 Scr=      1
 Normal termination of Gaussian 16 at Tue Dec  9 09:58:58 2025.
