 Entering Gaussian System, Link 0=g16
 Initial command:
 /share/software/user/restricted/gaussian/g16.B01/l1.exe "/home/users/jlapier/Chloroaromatics/Gau-16514.inp" -scrdir="/home/users/jlapier/Chloroaromatics/"
 Entering Link 1 = /share/software/user/restricted/gaussian/g16.B01/l1.exe PID=     16515.
  
 Copyright (c) 1988-2017, Gaussian, Inc.  All Rights Reserved.
  
 This is part of the Gaussian(R) 16 program.  It is based on
 the Gaussian(R) 09 system (copyright 2009, Gaussian, Inc.),
 the Gaussian(R) 03 system (copyright 2003, Gaussian, Inc.),
 the Gaussian(R) 98 system (copyright 1998, Gaussian, Inc.),
 the Gaussian(R) 94 system (copyright 1995, Gaussian, Inc.),
 the Gaussian 92(TM) system (copyright 1992, Gaussian, Inc.),
 the Gaussian 90(TM) system (copyright 1990, Gaussian, Inc.),
 the Gaussian 88(TM) system (copyright 1988, Gaussian, Inc.),
 the Gaussian 86(TM) system (copyright 1986, Carnegie Mellon
 University), and the Gaussian 82(TM) system (copyright 1983,
 Carnegie Mellon University). Gaussian is a federally registered
 trademark of Gaussian, Inc.
  
 This software contains proprietary and confidential information,
 including trade secrets, belonging to Gaussian, Inc.
  
 This software is provided under written license and may be
 used, copied, transmitted, or stored only in accord with that
 written license.
  
 The following legend is applicable only to US Government
 contracts under FAR:
  
                    RESTRICTED RIGHTS LEGEND
  
 Use, reproduction and disclosure by the US Government is
 subject to restrictions as set forth in subparagraphs (a)
 and (c) of the Commercial Computer Software - Restricted
 Rights clause in FAR 52.227-19.
  
 Gaussian, Inc.
 340 Quinnipiac St., Bldg. 40, Wallingford CT 06492
  
  
 ---------------------------------------------------------------
 Warning -- This program may not be used in any manner that
 competes with the business of Gaussian, Inc. or will provide
 assistance to any competitor of Gaussian, Inc.  The licensee
 of this program is prohibited from giving any competitor of
 Gaussian, Inc. access to this program.  By using this program,
 the user acknowledges that Gaussian, Inc. is engaged in the
 business of creating and licensing software in the field of
 computational chemistry and represents and warrants to the
 licensee that it is not a competitor of Gaussian, Inc. and that
 it will not use this program in any manner prohibited above.
 ---------------------------------------------------------------
  

 Cite this work as:
 Gaussian 16, Revision B.01,
 M. J. Frisch, G. W. Trucks, H. B. Schlegel, G. E. Scuseria, 
 M. A. Robb, J. R. Cheeseman, G. Scalmani, V. Barone, 
 G. A. Petersson, H. Nakatsuji, X. Li, M. Caricato, A. V. Marenich, 
 J. Bloino, B. G. Janesko, R. Gomperts, B. Mennucci, H. P. Hratchian, 
 J. V. Ortiz, A. F. Izmaylov, J. L. Sonnenberg, D. Williams-Young, 
 F. Ding, F. Lipparini, F. Egidi, J. Goings, B. Peng, A. Petrone, 
 T. Henderson, D. Ranasinghe, V. G. Zakrzewski, J. Gao, N. Rega, 
 G. Zheng, W. Liang, M. Hada, M. Ehara, K. Toyota, R. Fukuda, 
 J. Hasegawa, M. Ishida, T. Nakajima, Y. Honda, O. Kitao, H. Nakai, 
 T. Vreven, K. Throssell, J. A. Montgomery, Jr., J. E. Peralta, 
 F. Ogliaro, M. J. Bearpark, J. J. Heyd, E. N. Brothers, K. N. Kudin, 
 V. N. Staroverov, T. A. Keith, R. Kobayashi, J. Normand, 
 K. Raghavachari, A. P. Rendell, J. C. Burant, S. S. Iyengar, 
 J. Tomasi, M. Cossi, J. M. Millam, M. Klene, C. Adamo, R. Cammi, 
 J. W. Ochterski, R. L. Martin, K. Morokuma, O. Farkas, 
 J. B. Foresman, and D. J. Fox, Gaussian, Inc., Wallingford CT, 2016.
 
 ******************************************
 Gaussian 16:  ES64L-G16RevB.01 20-Dec-2017
                10-Dec-2025 
 ******************************************
 %mem=2GB
 %nprocshare=1
 Will use up to    1 processors via shared memory.
 %chk=geometry_chks/13-1_-ClBzNeutralRadical.chk
 -----------------
 # opt am1 SCF=XQC
 -----------------
 1/18=20,19=15,26=1,38=1/1,3;
 2/9=110,12=2,17=6,18=5,40=1/2;
 3/5=2,25=1,41=700000,71=1/1,2,3;
 4/35=1/1;
 5/5=2,8=3,13=1,35=1,38=5/2,8;
 6/7=2,8=2,9=2,10=2,28=1/1;
 7//1,2,3,16;
 1/18=20,19=15,26=1/3(2);
 2/9=110/2;
 99//99;
 2/9=110/2;
 3/5=2,25=1,41=700000,71=1,135=20/1,2,3;
 4/5=5,16=3,35=1/1;
 5/5=2,8=3,13=1,35=1,38=5/2,8;
 7//1,2,3,16;
 1/18=20,19=15,26=1/3(-5);
 2/9=110/2;
 6/7=2,8=2,9=2,10=2,19=2,28=1/1;
 99/9=1/99;
 ------------------------------
 Neutral Radical (removed 3) 1_
 ------------------------------
 Symbolic Z-matrix:
 Charge =  0 Multiplicity = 2
 C                    -3.20928   0.19943   0. 
 C                    -2.0115    0.93555   0. 
 C                    -0.77511   0.2663    0. 
 C                    -0.7365   -1.13907   0. 
 C                    -1.93429  -1.87519   0. 
 C                    -3.17067  -1.20594   0. 
 Cl                   -4.67483  -2.13035   0. 
 H                    -4.76193   1.03987   0. 
 H                     0.72905   1.19071   0. 
 H                     0.81614  -1.97951   0. 
 H                    -1.8858   -3.64003   0. 
 
 Add virtual bond connecting atoms H11        and C5         Dist= 3.34D+00.
 Add virtual bond connecting atoms H10        and C4         Dist= 3.34D+00.
 Add virtual bond connecting atoms H9         and C3         Dist= 3.34D+00.
 Add virtual bond connecting atoms H8         and C1         Dist= 3.34D+00.

 GradGradGradGradGradGradGradGradGradGradGradGradGradGradGradGradGradGrad
 Berny optimization.
 Initialization pass.
                           ----------------------------
                           !    Initial Parameters    !
                           ! (Angstroms and Degrees)  !
 --------------------------                            --------------------------
 ! Name  Definition              Value          Derivative Info.                !
 --------------------------------------------------------------------------------
 ! R1    R(1,2)                  1.4059         estimate D2E/DX2                !
 ! R2    R(1,6)                  1.4059         estimate D2E/DX2                !
 ! R3    R(1,8)                  1.7655         estimate D2E/DX2                !
 ! R4    R(2,3)                  1.4059         estimate D2E/DX2                !
 ! R5    R(3,4)                  1.4059         estimate D2E/DX2                !
 ! R6    R(3,9)                  1.7655         estimate D2E/DX2                !
 ! R7    R(4,5)                  1.4059         estimate D2E/DX2                !
 ! R8    R(4,10)                 1.7655         estimate D2E/DX2                !
 ! R9    R(5,6)                  1.4059         estimate D2E/DX2                !
 ! R10   R(5,11)                 1.7655         estimate D2E/DX2                !
 ! R11   R(6,7)                  1.7655         estimate D2E/DX2                !
 ! A1    A(2,1,6)              119.9999         estimate D2E/DX2                !
 ! A2    A(2,1,8)              119.9999         estimate D2E/DX2                !
 ! A3    A(6,1,8)              120.0001         estimate D2E/DX2                !
 ! A4    A(1,2,3)              120.0            estimate D2E/DX2                !
 ! A5    A(2,3,4)              120.0001         estimate D2E/DX2                !
 ! A6    A(2,3,9)              120.0            estimate D2E/DX2                !
 ! A7    A(4,3,9)              119.9999         estimate D2E/DX2                !
 ! A8    A(3,4,5)              119.9997         estimate D2E/DX2                !
 ! A9    A(3,4,10)             120.0003         estimate D2E/DX2                !
 ! A10   A(5,4,10)             120.0            estimate D2E/DX2                !
 ! A11   A(4,5,6)              120.0            estimate D2E/DX2                !
 ! A12   A(4,5,11)             119.9996         estimate D2E/DX2                !
 ! A13   A(6,5,11)             120.0004         estimate D2E/DX2                !
 ! A14   A(1,6,5)              120.0003         estimate D2E/DX2                !
 ! A15   A(1,6,7)              119.9999         estimate D2E/DX2                !
 ! A16   A(5,6,7)              119.9998         estimate D2E/DX2                !
 ! D1    D(6,1,2,3)              0.0            estimate D2E/DX2                !
 ! D2    D(8,1,2,3)            180.0            estimate D2E/DX2                !
 ! D3    D(2,1,6,5)              0.0            estimate D2E/DX2                !
 ! D4    D(2,1,6,7)            180.0            estimate D2E/DX2                !
 ! D5    D(8,1,6,5)            180.0            estimate D2E/DX2                !
 ! D6    D(8,1,6,7)              0.0            estimate D2E/DX2                !
 ! D7    D(1,2,3,4)              0.0            estimate D2E/DX2                !
 ! D8    D(1,2,3,9)            180.0            estimate D2E/DX2                !
 ! D9    D(2,3,4,5)              0.0            estimate D2E/DX2                !
 ! D10   D(2,3,4,10)           180.0            estimate D2E/DX2                !
 ! D11   D(9,3,4,5)            180.0            estimate D2E/DX2                !
 ! D12   D(9,3,4,10)             0.0            estimate D2E/DX2                !
 ! D13   D(3,4,5,6)              0.0            estimate D2E/DX2                !
 ! D14   D(3,4,5,11)           180.0            estimate D2E/DX2                !
 ! D15   D(10,4,5,6)           180.0            estimate D2E/DX2                !
 ! D16   D(10,4,5,11)            0.0            estimate D2E/DX2                !
 ! D17   D(4,5,6,1)              0.0            estimate D2E/DX2                !
 ! D18   D(4,5,6,7)            180.0            estimate D2E/DX2                !
 ! D19   D(11,5,6,1)           180.0            estimate D2E/DX2                !
 ! D20   D(11,5,6,7)             0.0            estimate D2E/DX2                !
 --------------------------------------------------------------------------------
 Trust Radius=3.00D-01 FncErr=1.00D-07 GrdErr=1.00D-07 EigMax=2.50D+02 EigMin=1.00D-04
 Number of steps in this run=     57 maximum allowed number of steps=    100.
 GradGradGradGradGradGradGradGradGradGradGradGradGradGradGradGradGradGrad

                          Input orientation:                          
 ---------------------------------------------------------------------
 Center     Atomic      Atomic             Coordinates (Angstroms)
 Number     Number       Type             X           Y           Z
 ---------------------------------------------------------------------
      1          6           0       -3.209280    0.199430    0.000000
      2          6           0       -2.011500    0.935550    0.000000
      3          6           0       -0.775110    0.266300    0.000000
      4          6           0       -0.736500   -1.139070    0.000000
      5          6           0       -1.934290   -1.875190    0.000000
      6          6           0       -3.170670   -1.205940    0.000000
      7         17           0       -4.674830   -2.130350    0.000000
      8          1           0       -4.761930    1.039870    0.000000
      9          1           0        0.729050    1.190710    0.000000
     10          1           0        0.816140   -1.979510    0.000000
     11          1           0       -1.885800   -3.640030    0.000000
 ---------------------------------------------------------------------
                    Distance matrix (angstroms):
                    1          2          3          4          5
     1  C    0.000000
     2  C    1.405898   0.000000
     3  C    2.435088   1.405900   0.000000
     4  C    2.811801   2.435092   1.405900   0.000000
     5  C    2.435087   2.811800   2.435093   1.405907   0.000000
     6  C    1.405900   2.435088   2.811796   2.435088   1.405892
     7  Cl   2.752401   4.061166   4.577308   4.061167   2.752393
     8  H    1.765520   2.752408   4.061175   4.577321   4.061173
     9  H    4.061167   2.752403   1.765512   2.752401   4.061173
    10  H    4.577312   4.061173   2.752406   1.765511   2.752408
    11  H    4.061164   4.577306   4.061163   2.752397   1.765506
                    6          7          8          9         10
     6  C    0.000000
     7  Cl   1.765512   0.000000
     8  H    2.752412   3.171416   0.000000
     9  H    4.577308   6.342819   5.493051   0.000000
    10  H    4.061165   5.493041   6.342832   3.171416   0.000000
    11  H    2.752396   3.171407   5.493049   5.493040   3.171404
                   11
    11  H    0.000000
 Stoichiometry    C6H4Cl(2)
 Framework group  CS[SG(C6H4Cl)]
 Deg. of freedom    19
 Full point group                 CS      NOp   2
 Largest Abelian subgroup         CS      NOp   2
 Largest concise Abelian subgroup C1      NOp   1
                         Standard orientation:                         
 ---------------------------------------------------------------------
 Center     Atomic      Atomic             Coordinates (Angstroms)
 Number     Number       Type             X           Y           Z
 ---------------------------------------------------------------------
      1          6           0       -1.265729   -0.215092    0.000000
      2          6           0       -1.265729   -1.620990    0.000000
      3          6           0       -0.048183   -2.323939    0.000000
      4          6           0        1.169363   -1.620990    0.000000
      5          6           0        1.169357   -0.215083   -0.000000
      6          6           0       -0.048183    0.487857   -0.000000
      7         17           0       -0.048185    2.253369   -0.000000
      8          1           0       -2.794716    0.667667    0.000000
      9          1           0       -0.048182   -4.089450    0.000000
     10          1           0        2.698344   -2.503740    0.000000
     11          1           0        2.698333    0.667665   -0.000000
 ---------------------------------------------------------------------
 Rotational constants (GHZ):           5.3945854           1.5168047           1.1839199
 Standard basis: VSTO-6G (5D, 7F)
 There are    25 symmetry adapted cartesian basis functions of A'  symmetry.
 There are     7 symmetry adapted cartesian basis functions of A"  symmetry.
 There are    25 symmetry adapted basis functions of A'  symmetry.
 There are     7 symmetry adapted basis functions of A"  symmetry.
    32 basis functions,   192 primitive gaussians,    32 cartesian basis functions
    18 alpha electrons       17 beta electrons
       nuclear repulsion energy       147.6743945576 Hartrees.
 Integral buffers will be    131072 words long.
 Regular integral format.
 Two-electron integral symmetry is turned off.
 Do NDO integrals.
 One-electron integrals computed using PRISM.
 NBasis=    32 RedAO= T EigKep=  1.00D+00  NBF=    25     7
 NBsUse=    32 1.00D-06 EigRej= -1.00D+00 NBFU=    25     7
 Simple Huckel Guess.
 Initial guess orbital symmetries:
 Alpha Orbitals:
       Occupied  (A') (A') (A') (A') (A') (A') (A') (A') (A") (A')
                 (A') (A') (A") (A') (A") (A') (A") (A')
       Virtual   (A') (A") (A") (A') (A') (A') (A") (A') (A') (A')
                 (A') (A') (A') (A')
 Beta  Orbitals:
       Occupied  (A') (A') (A') (A') (A') (A') (A') (A') (A") (A')
                 (A') (A') (A") (A') (A") (A') (A")
       Virtual   (A') (A') (A") (A") (A') (A') (A') (A") (A') (A')
                 (A') (A') (A') (A') (A')
 The electronic state of the initial guess is 2-A'.
 Initial guess <Sx>= 0.0000 <Sy>= 0.0000 <Sz>= 0.5000 <S**2>= 0.7500 S= 0.5000
 Keep J ints in memory in canonical form, NReq=862079.
 Overlap will be assumed to be unity.
 Requested convergence on RMS density matrix=1.00D-08 within  32 cycles.
 Requested convergence on MAX density matrix=1.00D-06.
 Requested convergence on             energy=1.00D-06.
 No special actions if energy rises.
 Fock symm off for IB=2 I1=    1 I=   26 J=   11 Cut=1.00D-07 Err=5.20D-03
 Fock matrix is not symmetric: symmetry in diagonalization turned off.
 Rare condition: small coef for last iteration:  0.000D+00
 Rare condition: small coef for last iteration:  0.000D+00
 Rare condition: small coef for last iteration:  0.000D+00
 Rare condition: small coef for last iteration:  0.000D+00
 Rare condition: small coef for last iteration:  0.000D+00
 Rare condition: small coef for last iteration:  0.000D+00
 Rare condition: small coef for last iteration:  0.000D+00
 Rare condition: small coef for last iteration:  0.000D+00
 Rare condition: small coef for last iteration:  0.000D+00
 Rare condition: small coef for last iteration:  0.000D+00
 >>>>>>>>>> Convergence criterion not met.
 SCF Done:  E(UAM1) =  0.606649745065     A.U. after   33 cycles
            NFock= 32  Conv=0.61D-04     -V/T= 1.0089
 <Sx>= 0.0000 <Sy>= 0.0000 <Sz>= 0.5000 <S**2>= 1.0666 S= 0.6474
 <L.S>=  0.00000000000    
 Annihilation of the first spin contaminant:
 S**2 before annihilation     1.0666,   after     0.8250
 Keep J ints in memory in canonical form, NReq=862479.
 LinEq1:  Iter=  0 NonCon=     1 RMS=9.31D-05 Max=6.75D-04 NDo=     1
 AX will form     1 AO Fock derivatives at one time.
 LinEq1:  Iter=  1 NonCon=     1 RMS=2.28D-06 Max=1.61D-05 NDo=     1
 LinEq1:  Iter=  2 NonCon=     1 RMS=6.44D-07 Max=4.32D-06 NDo=     1
 LinEq1:  Iter=  3 NonCon=     1 RMS=2.38D-07 Max=1.80D-06 NDo=     1
 LinEq1:  Iter=  4 NonCon=     1 RMS=7.25D-08 Max=6.09D-07 NDo=     1
 LinEq1:  Iter=  5 NonCon=     1 RMS=1.77D-08 Max=1.52D-07 NDo=     1
 LinEq1:  Iter=  6 NonCon=     1 RMS=5.62D-09 Max=5.03D-08 NDo=     1
 LinEq1:  Iter=  7 NonCon=     0 RMS=1.84D-09 Max=1.36D-08 NDo=     1
 Linear equations converged to 2.252D-09 2.252D-08 after     7 iterations.
 Incorrect curvature in search direction -- initial direction reversed.
 LinEq1:  Iter=  0 NonCon=     1 RMS=1.20D-04 Max=9.64D-04 NDo=     1
 LinEq1:  Iter=  1 NonCon=     1 RMS=3.58D-05 Max=1.56D-04 NDo=     1
 LinEq1:  Iter=  2 NonCon=     1 RMS=8.80D-06 Max=6.52D-05 NDo=     1
 LinEq1:  Iter=  3 NonCon=     1 RMS=2.48D-06 Max=1.97D-05 NDo=     1
 LinEq1:  Iter=  4 NonCon=     1 RMS=6.15D-07 Max=3.35D-06 NDo=     1
 LinEq1:  Iter=  5 NonCon=     1 RMS=2.00D-07 Max=1.35D-06 NDo=     1
 LinEq1:  Iter=  6 NonCon=     1 RMS=6.41D-08 Max=4.59D-07 NDo=     1
 LinEq1:  Iter=  7 NonCon=     1 RMS=1.12D-08 Max=6.83D-08 NDo=     1
 LinEq1:  Iter=  8 NonCon=     1 RMS=3.70D-09 Max=3.64D-08 NDo=     1
 LinEq1:  Iter=  9 NonCon=     0 RMS=1.40D-09 Max=1.21D-08 NDo=     1
 Linear equations converged to 2.252D-09 2.252D-08 after     9 iterations.
 Incorrect curvature in search direction -- initial direction reversed.
 LinEq1:  Iter=  0 NonCon=     1 RMS=2.99D-04 Max=2.15D-03 NDo=     1
 LinEq1:  Iter=  1 NonCon=     1 RMS=1.33D-04 Max=9.97D-04 NDo=     1
 LinEq1:  Iter=  2 NonCon=     1 RMS=4.00D-05 Max=2.43D-04 NDo=     1
 LinEq1:  Iter=  3 NonCon=     1 RMS=8.99D-06 Max=8.61D-05 NDo=     1
 LinEq1:  Iter=  4 NonCon=     1 RMS=2.54D-06 Max=2.15D-05 NDo=     1
 LinEq1:  Iter=  5 NonCon=     1 RMS=5.39D-07 Max=3.78D-06 NDo=     1
 LinEq1:  Iter=  6 NonCon=     1 RMS=1.55D-07 Max=1.37D-06 NDo=     1
 LinEq1:  Iter=  7 NonCon=     1 RMS=4.65D-08 Max=3.01D-07 NDo=     1
 LinEq1:  Iter=  8 NonCon=     1 RMS=1.46D-08 Max=7.98D-08 NDo=     1
 LinEq1:  Iter=  9 NonCon=     1 RMS=4.16D-09 Max=2.28D-08 NDo=     1
 LinEq1:  Iter= 10 NonCon=     0 RMS=9.07D-10 Max=7.13D-09 NDo=     1
 Linear equations converged to 2.252D-09 2.252D-08 after    10 iterations.
     Accept linear search using points  1 and  2.
 LinEq1:  Iter=  0 NonCon=     1 RMS=1.50D-04 Max=9.45D-04 NDo=     1
 LinEq1:  Iter=  1 NonCon=     1 RMS=5.64D-05 Max=5.11D-04 NDo=     1
 LinEq1:  Iter=  2 NonCon=     1 RMS=1.76D-05 Max=1.31D-04 NDo=     1
 LinEq1:  Iter=  3 NonCon=     1 RMS=5.13D-06 Max=4.91D-05 NDo=     1
 LinEq1:  Iter=  4 NonCon=     1 RMS=1.58D-06 Max=1.44D-05 NDo=     1
 LinEq1:  Iter=  5 NonCon=     1 RMS=4.04D-07 Max=3.18D-06 NDo=     1
 LinEq1:  Iter=  6 NonCon=     1 RMS=1.35D-07 Max=1.05D-06 NDo=     1
 LinEq1:  Iter=  7 NonCon=     1 RMS=2.36D-08 Max=1.43D-07 NDo=     1
 LinEq1:  Iter=  8 NonCon=     1 RMS=5.81D-09 Max=4.17D-08 NDo=     1
 LinEq1:  Iter=  9 NonCon=     0 RMS=1.55D-09 Max=1.27D-08 NDo=     1
 Linear equations converged to 2.252D-09 2.252D-08 after     9 iterations.
 Incorrect curvature in search direction -- initial direction reversed.
     Minimum is close to point  5 DX= -5.75D-01 DF= -1.24D-05 DXR=  7.96D-02 DFR=  4.13D-02 which will be used.
 Gradient too large for Newton-Raphson -- use scaled steepest descent instead.
 Gradient too large for Newton-Raphson -- use scaled steepest descent instead.
 LinEq1:  Iter=  0 NonCon=     1 RMS=8.93D-04 Max=5.49D-03 NDo=     1
 LinEq1:  Iter=  1 NonCon=     1 RMS=4.60D-04 Max=2.93D-03 NDo=     1
 LinEq1:  Iter=  2 NonCon=     1 RMS=5.20D-05 Max=3.52D-04 NDo=     1
 LinEq1:  Iter=  3 NonCon=     1 RMS=2.18D-05 Max=1.57D-04 NDo=     1
 LinEq1:  Iter=  4 NonCon=     1 RMS=3.89D-06 Max=3.31D-05 NDo=     1
 LinEq1:  Iter=  5 NonCon=     1 RMS=1.13D-06 Max=7.38D-06 NDo=     1
 LinEq1:  Iter=  6 NonCon=     1 RMS=1.13D-07 Max=6.18D-07 NDo=     1
 LinEq1:  Iter=  7 NonCon=     1 RMS=4.28D-08 Max=3.46D-07 NDo=     1
 LinEq1:  Iter=  8 NonCon=     1 RMS=1.38D-08 Max=9.45D-08 NDo=     1
 LinEq1:  Iter=  9 NonCon=     1 RMS=3.28D-09 Max=2.56D-08 NDo=     1
 LinEq1:  Iter= 10 NonCon=     0 RMS=6.60D-10 Max=3.72D-09 NDo=     1
 Linear equations converged to 2.252D-09 2.252D-08 after    10 iterations.
 Incorrect curvature in search direction -- initial direction reversed.
 Gradient too large for Newton-Raphson -- use scaled steepest descent instead.
     Minimum is close to point  2 DX=  1.04D-01 DF= -1.56D-06 DXR=  5.47D-02 DFR=  3.00D-03 which will be used.
 Gradient too large for Newton-Raphson -- use scaled steepest descent instead.
     Minimum is close to point  2 DX=  8.48D-02 DF= -7.62D-07 DXR=  4.07D-02 DFR=  1.66D-03 which will be used.
 Gradient too large for Newton-Raphson -- use scaled steepest descent instead.
     Minimum is close to point  2 DX= -1.52D-01 DF= -2.91D-06 DXR=  8.20D-02 DFR=  6.76D-03 which will be used.
 Gradient too large for Newton-Raphson -- use scaled steepest descent instead.
 LinEq1:  Iter=  0 NonCon=     1 RMS=9.38D-04 Max=5.38D-03 NDo=     1
 LinEq1:  Iter=  1 NonCon=     1 RMS=4.90D-04 Max=3.17D-03 NDo=     1
 LinEq1:  Iter=  2 NonCon=     1 RMS=2.38D-05 Max=1.46D-04 NDo=     1
 LinEq1:  Iter=  3 NonCon=     1 RMS=1.00D-05 Max=4.86D-05 NDo=     1
 LinEq1:  Iter=  4 NonCon=     1 RMS=1.09D-06 Max=6.83D-06 NDo=     1
 LinEq1:  Iter=  5 NonCon=     1 RMS=3.40D-07 Max=1.82D-06 NDo=     1
 LinEq1:  Iter=  6 NonCon=     1 RMS=5.39D-08 Max=3.01D-07 NDo=     1
 LinEq1:  Iter=  7 NonCon=     1 RMS=7.92D-09 Max=6.24D-08 NDo=     1
 LinEq1:  Iter=  8 NonCon=     1 RMS=2.73D-09 Max=1.94D-08 NDo=     1
 LinEq1:  Iter=  9 NonCon=     0 RMS=7.82D-10 Max=6.39D-09 NDo=     1
 Linear equations converged to 2.252D-09 2.252D-08 after     9 iterations.
 Incorrect curvature in search direction -- initial direction reversed.
 Gradient too large for Newton-Raphson -- use scaled steepest descent instead.
 LinEq1:  Iter=  0 NonCon=     1 RMS=7.57D-04 Max=4.33D-03 NDo=     1
 LinEq1:  Iter=  1 NonCon=     1 RMS=3.66D-04 Max=2.51D-03 NDo=     1
 LinEq1:  Iter=  2 NonCon=     1 RMS=1.81D-05 Max=1.49D-04 NDo=     1
 LinEq1:  Iter=  3 NonCon=     1 RMS=7.00D-06 Max=4.35D-05 NDo=     1
 LinEq1:  Iter=  4 NonCon=     1 RMS=1.22D-06 Max=7.33D-06 NDo=     1
 LinEq1:  Iter=  5 NonCon=     1 RMS=2.70D-07 Max=1.61D-06 NDo=     1
 LinEq1:  Iter=  6 NonCon=     1 RMS=6.22D-08 Max=3.52D-07 NDo=     1
 LinEq1:  Iter=  7 NonCon=     1 RMS=1.05D-08 Max=6.29D-08 NDo=     1
 LinEq1:  Iter=  8 NonCon=     1 RMS=3.15D-09 Max=2.11D-08 NDo=     1
 LinEq1:  Iter=  9 NonCon=     0 RMS=9.38D-10 Max=7.88D-09 NDo=     1
 Linear equations converged to 2.252D-09 2.252D-08 after     9 iterations.
     Accept linear search using points  1 and  2.
 LinEq1:  Iter=  0 NonCon=     1 RMS=9.37D-04 Max=6.76D-03 NDo=     1
 LinEq1:  Iter=  1 NonCon=     1 RMS=1.90D-04 Max=2.33D-03 NDo=     1
 LinEq1:  Iter=  2 NonCon=     1 RMS=4.55D-05 Max=3.17D-04 NDo=     1
 LinEq1:  Iter=  3 NonCon=     1 RMS=1.64D-05 Max=1.04D-04 NDo=     1
 LinEq1:  Iter=  4 NonCon=     1 RMS=2.50D-06 Max=1.33D-05 NDo=     1
 LinEq1:  Iter=  5 NonCon=     1 RMS=3.95D-07 Max=2.41D-06 NDo=     1
 LinEq1:  Iter=  6 NonCon=     1 RMS=8.32D-08 Max=5.55D-07 NDo=     1
 LinEq1:  Iter=  7 NonCon=     1 RMS=1.85D-08 Max=1.11D-07 NDo=     1
 LinEq1:  Iter=  8 NonCon=     1 RMS=3.73D-09 Max=1.93D-08 NDo=     1
 LinEq1:  Iter=  9 NonCon=     0 RMS=7.65D-10 Max=3.68D-09 NDo=     1
 Linear equations converged to 2.252D-09 2.252D-08 after     9 iterations.
 LinEq1:  Iter=  0 NonCon=     1 RMS=6.29D-04 Max=4.66D-03 NDo=     1
 LinEq1:  Iter=  1 NonCon=     1 RMS=1.28D-04 Max=1.01D-03 NDo=     1
 LinEq1:  Iter=  2 NonCon=     1 RMS=2.30D-05 Max=1.55D-04 NDo=     1
 LinEq1:  Iter=  3 NonCon=     1 RMS=5.53D-06 Max=3.57D-05 NDo=     1
 LinEq1:  Iter=  4 NonCon=     1 RMS=1.46D-06 Max=6.65D-06 NDo=     1
 LinEq1:  Iter=  5 NonCon=     1 RMS=2.31D-07 Max=1.31D-06 NDo=     1
 LinEq1:  Iter=  6 NonCon=     1 RMS=4.47D-08 Max=2.84D-07 NDo=     1
 LinEq1:  Iter=  7 NonCon=     1 RMS=7.86D-09 Max=6.10D-08 NDo=     1
 LinEq1:  Iter=  8 NonCon=     0 RMS=2.06D-09 Max=1.21D-08 NDo=     1
 Linear equations converged to 2.252D-09 2.252D-08 after     8 iterations.
     Minimum is close to point  2 DX=  9.78D-02 DF= -4.27D-06 DXR=  8.91D-02 DFR=  8.00D-03 which will be used.
 LinEq1:  Iter=  0 NonCon=     1 RMS=7.30D-05 Max=6.51D-04 NDo=     1
 LinEq1:  Iter=  1 NonCon=     1 RMS=8.66D-06 Max=6.14D-05 NDo=     1
 LinEq1:  Iter=  2 NonCon=     1 RMS=1.50D-06 Max=8.72D-06 NDo=     1
 LinEq1:  Iter=  3 NonCon=     1 RMS=3.93D-07 Max=3.48D-06 NDo=     1
 LinEq1:  Iter=  4 NonCon=     1 RMS=7.13D-08 Max=4.24D-07 NDo=     1
 LinEq1:  Iter=  5 NonCon=     1 RMS=1.28D-08 Max=7.93D-08 NDo=     1
 LinEq1:  Iter=  6 NonCon=     1 RMS=3.20D-09 Max=1.85D-08 NDo=     1
 LinEq1:  Iter=  7 NonCon=     0 RMS=7.33D-10 Max=3.75D-09 NDo=     1
 Linear equations converged to 2.252D-09 2.252D-08 after     7 iterations.
     Minimum is close to point  2 DX=  4.23D-02 DF= -1.70D-08 DXR=  4.06D-02 DFR=  1.65D-03 which will be used.
 LinEq1:  Iter=  0 NonCon=     1 RMS=2.23D-06 Max=1.94D-05 NDo=     1
 LinEq1:  Iter=  1 NonCon=     1 RMS=2.51D-07 Max=1.64D-06 NDo=     1
 LinEq1:  Iter=  2 NonCon=     1 RMS=4.54D-08 Max=3.58D-07 NDo=     1
 LinEq1:  Iter=  3 NonCon=     1 RMS=1.19D-08 Max=1.00D-07 NDo=     1
 LinEq1:  Iter=  4 NonCon=     1 RMS=1.87D-09 Max=1.10D-08 NDo=     1
 LinEq1:  Iter=  5 NonCon=     1 RMS=2.99D-10 Max=1.81D-09 NDo=     1
 LinEq1:  Iter=  6 NonCon=     0 RMS=7.69D-11 Max=5.70D-10 NDo=     1
 Linear equations converged to 2.331D-10 2.331D-09 after     6 iterations.
 SCF Done:  E(UAM1) =  0.590508832697     a.u. after   19 cycles
            Convg  =    0.2169D-06                   144 Fock formations.
              S**2 =  2.4705                  -V/T =  1.0087
 <Sx>= 0.0000 <Sy>= 0.0000 <Sz>= 0.5000 <S**2>= 2.4705 S= 1.1494
 <L.S>=  0.00000000000    
 Annihilation of the first spin contaminant:
 S**2 before annihilation     2.4705,   after     5.5994

 **********************************************************************

            Population analysis using the SCF Density.

 **********************************************************************

 Orbital symmetries:
 Alpha Orbitals:
       Occupied  (A') (A') (A') (A') (A') (A') (A') (A') (A") (A')
                 (A") (A') (A') (A') (A') (A") (A') (A")
       Virtual   (A') (A') (A') (A") (A") (A') (A') (A") (A') (A')
                 (A') (A') (A') (A')
 Beta  Orbitals:
       Occupied  (A') (A') (A') (A') (A') (A') (A') (A') (A") (A')
                 (A") (A') (A') (A') (A') (A") (A")
       Virtual   (A') (A") (A') (A') (A') (A") (A') (A') (A") (A')
                 (A') (A') (A') (A') (A')
 The electronic state is 2-A'.
 Alpha  occ. eigenvalues --   -1.40179  -1.35428  -1.09637  -1.08684  -0.79361
 Alpha  occ. eigenvalues --   -0.78636  -0.59774  -0.57662  -0.51787  -0.47964
 Alpha  occ. eigenvalues --   -0.45386  -0.44633  -0.44450  -0.42542  -0.39417
 Alpha  occ. eigenvalues --   -0.37610  -0.37123  -0.36027
 Alpha virt. eigenvalues --   -0.01147   0.02196   0.02550   0.03433   0.03554
 Alpha virt. eigenvalues --    0.04015   0.05165   0.10653   0.15988   0.16204
 Alpha virt. eigenvalues --    0.18644   0.18845   0.19319   0.20915
  Beta  occ. eigenvalues --   -1.40056  -1.35348  -1.09832  -1.07995  -0.80610
  Beta  occ. eigenvalues --   -0.77385  -0.57747  -0.57466  -0.51329  -0.50970
  Beta  occ. eigenvalues --   -0.44753  -0.44308  -0.43502  -0.40275  -0.38229
  Beta  occ. eigenvalues --   -0.37173  -0.36734
  Beta virt. eigenvalues --   -0.01403   0.02167   0.02404   0.02814   0.03699
  Beta virt. eigenvalues --    0.04257   0.04832   0.06024   0.10817   0.15932
  Beta virt. eigenvalues --    0.16142   0.18229   0.19246   0.19482   0.21477
          Condensed to atoms (all electrons):
               1          2          3          4          5          6
     1  C    4.134897   0.000000   0.000000   0.000000   0.000000   0.000000
     2  C    0.000000   4.040785   0.000000   0.000000   0.000000   0.000000
     3  C    0.000000   0.000000   4.129082   0.000000   0.000000   0.000000
     4  C    0.000000   0.000000   0.000000   4.118012   0.000000   0.000000
     5  C    0.000000   0.000000   0.000000   0.000000   4.126562   0.000000
     6  C    0.000000   0.000000   0.000000   0.000000   0.000000   4.030915
     7  Cl   0.000000   0.000000   0.000000   0.000000   0.000000   0.000000
     8  H    0.000000   0.000000   0.000000   0.000000   0.000000   0.000000
     9  H    0.000000   0.000000   0.000000   0.000000   0.000000   0.000000
    10  H    0.000000   0.000000   0.000000   0.000000   0.000000   0.000000
    11  H    0.000000   0.000000   0.000000   0.000000   0.000000   0.000000
               7          8          9         10         11
     1  C    0.000000   0.000000   0.000000   0.000000   0.000000
     2  C    0.000000   0.000000   0.000000   0.000000   0.000000
     3  C    0.000000   0.000000   0.000000   0.000000   0.000000
     4  C    0.000000   0.000000   0.000000   0.000000   0.000000
     5  C    0.000000   0.000000   0.000000   0.000000   0.000000
     6  C    0.000000   0.000000   0.000000   0.000000   0.000000
     7  Cl   7.037047   0.000000   0.000000   0.000000   0.000000
     8  H    0.000000   0.828593   0.000000   0.000000   0.000000
     9  H    0.000000   0.000000   0.853588   0.000000   0.000000
    10  H    0.000000   0.000000   0.000000   0.858281   0.000000
    11  H    0.000000   0.000000   0.000000   0.000000   0.842237
          Atomic-Atomic Spin Densities.
               1          2          3          4          5          6
     1  C   -1.024935   0.000000   0.000000   0.000000   0.000000   0.000000
     2  C    0.000000   1.517378   0.000000   0.000000   0.000000   0.000000
     3  C    0.000000   0.000000  -1.059650   0.000000   0.000000   0.000000
     4  C    0.000000   0.000000   0.000000   1.056978   0.000000   0.000000
     5  C    0.000000   0.000000   0.000000   0.000000  -1.035093   0.000000
     6  C    0.000000   0.000000   0.000000   0.000000   0.000000   0.620262
     7  Cl   0.000000   0.000000   0.000000   0.000000   0.000000   0.000000
     8  H    0.000000   0.000000   0.000000   0.000000   0.000000   0.000000
     9  H    0.000000   0.000000   0.000000   0.000000   0.000000   0.000000
    10  H    0.000000   0.000000   0.000000   0.000000   0.000000   0.000000
    11  H    0.000000   0.000000   0.000000   0.000000   0.000000   0.000000
               7          8          9         10         11
     1  C    0.000000   0.000000   0.000000   0.000000   0.000000
     2  C    0.000000   0.000000   0.000000   0.000000   0.000000
     3  C    0.000000   0.000000   0.000000   0.000000   0.000000
     4  C    0.000000   0.000000   0.000000   0.000000   0.000000
     5  C    0.000000   0.000000   0.000000   0.000000   0.000000
     6  C    0.000000   0.000000   0.000000   0.000000   0.000000
     7  Cl   0.000237   0.000000   0.000000   0.000000   0.000000
     8  H    0.000000   0.451014   0.000000   0.000000   0.000000
     9  H    0.000000   0.000000   0.481468   0.000000   0.000000
    10  H    0.000000   0.000000   0.000000  -0.474637   0.000000
    11  H    0.000000   0.000000   0.000000   0.000000   0.466978
 Mulliken charges and spin densities:
               1          2
     1  C   -0.134897  -1.024935
     2  C   -0.040785   1.517378
     3  C   -0.129082  -1.059650
     4  C   -0.118012   1.056978
     5  C   -0.126562  -1.035093
     6  C   -0.030915   0.620262
     7  Cl  -0.037047   0.000237
     8  H    0.171407   0.451014
     9  H    0.146412   0.481468
    10  H    0.141719  -0.474637
    11  H    0.157763   0.466978
 Sum of Mulliken charges =  -0.00000   1.00000
 Mulliken charges and spin densities with hydrogens summed into heavy atoms:
               1          2
     1  C    0.036510  -0.573922
     2  C   -0.040785   1.517378
     3  C    0.017329  -0.578182
     4  C    0.023707   0.582341
     5  C    0.031201  -0.568115
     6  C   -0.030915   0.620262
     7  Cl  -0.037047   0.000237
 Charge=             -0.0000 electrons
 Dipole moment (field-independent basis, Debye):
    X=              1.1332    Y=             -1.0232    Z=              0.0000  Tot=              1.5268
 N-N= 1.476743945576D+02 E-N=-2.027689165103D+02  KE=-6.789872738631D+01
 Symmetry A'   KE=-5.312208618336D+01
 Symmetry A"   KE=-1.477664120295D+01
 Symmetry A'   SP= 1.000000000000D+00
 Symmetry A"   SP= 4.440892098501D-16
 Calling FoFJK, ICntrl=      2127 FMM=F ISym2X=1 I1Cent= 0 IOpClX= 1 NMat=1 NMatS=1 NMatT=0.
 ***** Axes restored to original set *****
 -------------------------------------------------------------------
 Center     Atomic                   Forces (Hartrees/Bohr)
 Number     Number              X              Y              Z
 -------------------------------------------------------------------
      1        6          -0.043436438    0.058674462   -0.000000000
      2        6           0.002131898   -0.065921998   -0.000000000
      3        6           0.045375765    0.039928219   -0.000000000
      4        6           0.047163805   -0.025766672   -0.000000000
      5        6           0.023064582   -0.059326682   -0.000000000
      6        6          -0.022985689   -0.014395655   -0.000000000
      7       17           0.032353018    0.020340040   -0.000000000
      8        1           0.086163296   -0.046841341    0.000000000
      9        1          -0.081676771   -0.049710504    0.000000000
     10        1          -0.084891705    0.046171896    0.000000000
     11        1          -0.003261760    0.096848236    0.000000000
 -------------------------------------------------------------------
 Cartesian Forces:  Max     0.096848236 RMS     0.042625217

 GradGradGradGradGradGradGradGradGradGradGradGradGradGradGradGradGradGrad
 Berny optimization.
 FormGI is forming the generalized inverse of G from B-inverse, IUseBI=4.
 Internal  Forces:  Max     0.098072388 RMS     0.032231775
 Search for a local minimum.
 Step number   1 out of a maximum of   57
 All quantities printed in internal units (Hartrees-Bohrs-Radians)
 Mixed Optimization -- RFO/linear search
 Second derivative matrix not updated -- first step.
 ITU=  0
     Eigenvalues ---    0.02011   0.02011   0.02011   0.02011   0.02011
     Eigenvalues ---    0.02011   0.02011   0.02011   0.06524   0.06524
     Eigenvalues ---    0.06524   0.06524   0.16000   0.16000   0.16000
     Eigenvalues ---    0.16000   0.22000   0.23188   0.23485   0.25000
     Eigenvalues ---    0.29033   0.40816   0.41378   0.44656   0.44657
     Eigenvalues ---    0.44657   0.44657
 RFO step:  Lambda=-1.75271205D-01 EMin= 2.01065740D-02
 Linear search not attempted -- first point.
 Maximum step size (   0.300) exceeded in Quadratic search.
    -- Step size scaled by   0.363
 Iteration  1 RMS(Cart)=  0.04941118 RMS(Int)=  0.00005949
 Iteration  2 RMS(Cart)=  0.00011407 RMS(Int)=  0.00001057
 Iteration  3 RMS(Cart)=  0.00000001 RMS(Int)=  0.00001057
 ClnCor:  largest displacement from symmetrization is 5.15D-12 for atom    10.
 Variable       Old X    -DE/DX   Delta X   Delta X   Delta X     New X
                                 (Linear)    (Quad)   (Total)
    R1        2.65676  -0.05101   0.00000  -0.02992  -0.02990   2.62686
    R2        2.65677  -0.02259   0.00000  -0.01287  -0.01288   2.64389
    R3        3.33635  -0.09807   0.00000  -0.14815  -0.14815   3.18820
    R4        2.65677  -0.05102   0.00000  -0.03025  -0.03023   2.62653
    R5        2.65677  -0.04149   0.00000  -0.02457  -0.02457   2.63220
    R6        3.33633  -0.09561   0.00000  -0.14443  -0.14443   3.19190
    R7        2.65678  -0.03920   0.00000  -0.02279  -0.02280   2.63398
    R8        3.33633  -0.09664   0.00000  -0.14598  -0.14598   3.19036
    R9        2.65675  -0.01959   0.00000  -0.01100  -0.01102   2.64573
   R10        3.33632  -0.09690   0.00000  -0.14638  -0.14638   3.18995
   R11        3.33633  -0.03821   0.00000  -0.02982  -0.02982   3.30652
    A1        2.09439  -0.00476   0.00000  -0.00392  -0.00391   2.09048
    A2        2.09439   0.00268   0.00000   0.00228   0.00228   2.09667
    A3        2.09440   0.00209   0.00000   0.00164   0.00163   2.09603
    A4        2.09439   0.01630   0.00000   0.01285   0.01289   2.10728
    A5        2.09440  -0.00432   0.00000  -0.00508  -0.00507   2.08933
    A6        2.09440   0.00147   0.00000   0.00179   0.00179   2.09618
    A7        2.09439   0.00285   0.00000   0.00329   0.00328   2.09767
    A8        2.09439   0.00115   0.00000   0.00084   0.00083   2.09522
    A9        2.09440  -0.00090   0.00000  -0.00077  -0.00077   2.09363
   A10        2.09440  -0.00025   0.00000  -0.00007  -0.00006   2.09433
   A11        2.09439   0.00254   0.00000   0.00336   0.00333   2.09772
   A12        2.09439  -0.00027   0.00000  -0.00059  -0.00058   2.09381
   A13        2.09440  -0.00227   0.00000  -0.00276  -0.00275   2.09165
   A14        2.09440  -0.01090   0.00000  -0.00805  -0.00807   2.08633
   A15        2.09439   0.00480   0.00000   0.00347   0.00348   2.09787
   A16        2.09439   0.00610   0.00000   0.00458   0.00459   2.09898
    D1       -0.00000  -0.00000   0.00000  -0.00000   0.00000   0.00000
    D2        3.14159  -0.00000   0.00000  -0.00000   0.00000   3.14159
    D3        0.00000   0.00000   0.00000   0.00000   0.00000   0.00000
    D4        3.14159   0.00000   0.00000   0.00000   0.00000   3.14159
    D5        3.14159   0.00000   0.00000   0.00000   0.00000   3.14159
    D6       -0.00000   0.00000   0.00000   0.00000   0.00000   0.00000
    D7        0.00000  -0.00000   0.00000  -0.00000   0.00000   0.00000
    D8        3.14159   0.00000   0.00000   0.00000   0.00000   3.14159
    D9       -0.00000   0.00000   0.00000   0.00000   0.00000   0.00000
   D10        3.14159   0.00000   0.00000   0.00000   0.00000   3.14159
   D11        3.14159  -0.00000   0.00000  -0.00000   0.00000   3.14159
   D12       -0.00000  -0.00000   0.00000  -0.00000   0.00000   0.00000
   D13       -0.00000  -0.00000   0.00000  -0.00000   0.00000   0.00000
   D14        3.14159   0.00000   0.00000   0.00000   0.00000   3.14159
   D15        3.14159  -0.00000   0.00000  -0.00000   0.00000   3.14159
   D16        0.00000  -0.00000   0.00000  -0.00000  -0.00000   0.00000
   D17       -0.00000  -0.00000   0.00000  -0.00000   0.00000   0.00000
   D18        3.14159   0.00000   0.00000   0.00000   0.00000   3.14159
   D19        3.14159  -0.00000   0.00000  -0.00000   0.00000   3.14159
   D20        0.00000  -0.00000   0.00000  -0.00000   0.00000   0.00000
         Item               Value     Threshold  Converged?
 Maximum Force            0.098072     0.000450     NO 
 RMS     Force            0.032232     0.000300     NO 
 Maximum Displacement     0.166309     0.001800     NO 
 RMS     Displacement     0.049426     0.001200     NO 
 Predicted change in Energy=-5.999795D-02
 GradGradGradGradGradGradGradGradGradGradGradGradGradGradGradGradGradGrad

                          Input orientation:                          
 ---------------------------------------------------------------------
 Center     Atomic      Atomic             Coordinates (Angstroms)
 Number     Number       Type             X           Y           Z
 ---------------------------------------------------------------------
      1          6           0       -3.194765    0.190827   -0.000000
      2          6           0       -2.004748    0.909272   -0.000000
      3          6           0       -0.779148    0.253735   -0.000000
      4          6           0       -0.741013   -1.138644   -0.000000
      5          6           0       -1.927979   -1.869331   -0.000000
      6          6           0       -3.161935   -1.207875    0.000000
      7         17           0       -4.653126   -2.123250    0.000000
      8          1           0       -4.673923    1.002293    0.000000
      9          1           0        0.657062    1.142721   -0.000000
     10          1           0        0.744240   -1.941301   -0.000000
     11          1           0       -1.879385   -3.556678    0.000000
 ---------------------------------------------------------------------
                    Distance matrix (angstroms):
                    1          2          3          4          5
     1  C    0.000000
     2  C    1.390073   0.000000
     3  C    2.416436   1.389901   0.000000
     4  C    2.790769   2.406447   1.392901   0.000000
     5  C    2.418470   2.779664   2.413964   1.393841   0.000000
     6  C    1.399087   2.412756   2.795349   2.421912   1.400061
     7  Cl   2.735282   4.026177   4.545082   4.034115   2.736951
     8  H    1.687124   2.670795   3.966058   4.477878   3.973215
     9  H    3.967703   2.672027   1.689080   2.675675   3.969243
    10  H    4.479032   3.960139   2.671871   1.688264   2.673188
    11  H    3.971652   4.467710   3.966077   2.672598   1.688046
                    6          7          8          9         10
     6  C    0.000000
     7  Cl   1.749732   0.000000
     8  H    2.677863   3.125612   0.000000
     9  H    4.484421   6.234153   5.332834   0.000000
    10  H    3.974433   5.400432   6.166136   3.085254   0.000000
    11  H    2.676156   3.122236   5.347304   5.340216   3.081047
                   11
    11  H    0.000000
 Stoichiometry    C6H4Cl(2)
 Framework group  CS[SG(C6H4Cl)]
 Deg. of freedom    19
 Full point group                 CS      NOp   2
 Largest Abelian subgroup         CS      NOp   2
 Largest concise Abelian subgroup C1      NOp   1
                         Standard orientation:                         
 ---------------------------------------------------------------------
 Center     Atomic      Atomic             Coordinates (Angstroms)
 Number     Number       Type             X           Y           Z
 ---------------------------------------------------------------------
      1          6           0       -1.271951   -0.092629    0.000000
      2          6           0       -1.397002   -1.477067    0.000000
      3          6           0       -0.271121   -2.292061    0.000000
      4          6           0        0.997468   -1.716860    0.000000
      5          6           0        1.134861   -0.329807    0.000000
      6          6           0       -0.000000    0.490109    0.000000
      7         17           0        0.170277    2.231536    0.000000
      8          1           0       -2.649019    0.882086    0.000000
      9          1           0       -0.441738   -3.972502    0.000000
     10          1           0        2.369284   -2.700911    0.000000
     11          1           0        2.673235    0.365106    0.000000
 ---------------------------------------------------------------------
 Rotational constants (GHZ):           5.5448183           1.5419036           1.2064217
 Standard basis: VSTO-6G (5D, 7F)
 There are    25 symmetry adapted cartesian basis functions of A'  symmetry.
 There are     7 symmetry adapted cartesian basis functions of A"  symmetry.
 There are    25 symmetry adapted basis functions of A'  symmetry.
 There are     7 symmetry adapted basis functions of A"  symmetry.
    32 basis functions,   192 primitive gaussians,    32 cartesian basis functions
    18 alpha electrons       17 beta electrons
       nuclear repulsion energy       148.7083500721 Hartrees.
 Integral buffers will be    131072 words long.
 Regular integral format.
 Two-electron integral symmetry is turned off.
 Do NDO integrals.
 One-electron integrals computed using PRISM.
 NBasis=    32 RedAO= T EigKep=  1.00D+00  NBF=    25     7
 NBsUse=    32 1.00D-06 EigRej= -1.00D+00 NBFU=    25     7
 Initial guess from the checkpoint file:  "geometry_chks/13-1_-ClBzNeutralRadical.chk"
 B after Tr=     0.000000    0.000000    0.000000
         Rot=    0.998809   -0.000000    0.000000    0.048798 Ang=   5.59 deg.
 Initial guess orbital symmetries:
 Alpha Orbitals:
       Occupied  (A') (A') (A') (A') (A') (A') (A') (A') (A") (A')
                 (A") (A') (A') (A') (A') (A") (A') (A")
       Virtual   (A') (A') (A') (A") (A") (A') (A') (A") (A') (A')
                 (A') (A') (A') (A')
 Beta  Orbitals:
       Occupied  (A') (A') (A') (A') (A') (A') (A') (A') (A") (A')
                 (A") (A') (A') (A') (A') (A") (A")
       Virtual   (A') (A") (A') (A') (A') (A") (A') (A') (A") (A')
                 (A') (A') (A') (A') (A')
 Initial guess <Sx>= 0.0000 <Sy>= 0.0000 <Sz>= 0.5000 <S**2>= 2.4705 S= 1.1494
 Keep J ints in memory in canonical form, NReq=862079.
 Overlap will be assumed to be unity.
 Requested convergence on RMS density matrix=1.00D-08 within  32 cycles.
 Requested convergence on MAX density matrix=1.00D-06.
 Requested convergence on             energy=1.00D-06.
 No special actions if energy rises.
 Fock symm off for IB=2 I1=    1 I=   26 J=   11 Cut=1.00D-07 Err=1.32D-03
 Fock matrix is not symmetric: symmetry in diagonalization turned off.
 SCF Done:  E(UAM1) =  0.522600186140     A.U. after   22 cycles
            NFock= 21  Conv=0.96D-08     -V/T= 1.0077
 <Sx>= 0.0000 <Sy>= 0.0000 <Sz>= 0.5000 <S**2>= 1.6670 S= 0.8846
 <L.S>=  0.00000000000    
 Annihilation of the first spin contaminant:
 S**2 before annihilation     1.6670,   after     1.9317
 QCSCF skips out because SCF is already converged.
 Calling FoFJK, ICntrl=      2127 FMM=F ISym2X=1 I1Cent= 0 IOpClX= 1 NMat=1 NMatS=1 NMatT=0.
 ***** Axes restored to original set *****
 -------------------------------------------------------------------
 Center     Atomic                   Forces (Hartrees/Bohr)
 Number     Number              X              Y              Z
 -------------------------------------------------------------------
      1        6          -0.075508566    0.068173457   -0.000000000
      2        6           0.000299468   -0.047204298   -0.000000000
      3        6           0.077945026    0.059439240   -0.000000000
      4        6           0.079214538   -0.045165560   -0.000000000
      5        6           0.017168771   -0.091730151   -0.000000000
      6        6          -0.022077028   -0.014780546    0.000000000
      7       17           0.025342696    0.015898364   -0.000000000
      8        1           0.099931065   -0.055050056    0.000000000
      9        1          -0.096152013   -0.058914003    0.000000000
     10        1          -0.102136396    0.055322281    0.000000000
     11        1          -0.004027560    0.114011271    0.000000000
 -------------------------------------------------------------------
 Cartesian Forces:  Max     0.114011271 RMS     0.053101065

 GradGradGradGradGradGradGradGradGradGradGradGradGradGradGradGradGradGrad
 Berny optimization.
 Using GEDIIS/GDIIS optimizer.
 FormGI is forming the generalized inverse of G from B-inverse, IUseBI=4.
 Internal  Forces:  Max     0.116156730 RMS     0.034755439
 Search for a local minimum.
 Step number   2 out of a maximum of   57
 All quantities printed in internal units (Hartrees-Bohrs-Radians)
 Mixed Optimization -- RFO/linear search
 Update second derivatives using D2CorX and points    1    2
 DE= -6.79D-02 DEPred=-6.00D-02 R= 1.13D+00
 TightC=F SS=  1.41D+00  RLast= 3.00D-01 DXNew= 5.0454D-01 9.0000D-01
 Trust test= 1.13D+00 RLast= 3.00D-01 DXMaxT set to 5.05D-01
 ITU=  1  0
 Use linear search instead of GDIIS.
     Eigenvalues ---   -0.19416   0.02011   0.02011   0.02011   0.02011
     Eigenvalues ---    0.02011   0.02011   0.02011   0.02011   0.06447
     Eigenvalues ---    0.06524   0.06524   0.14728   0.15999   0.16000
     Eigenvalues ---    0.16000   0.16008   0.22000   0.23158   0.23634
     Eigenvalues ---    0.25002   0.30761   0.40856   0.41469   0.44639
     Eigenvalues ---    0.44657   0.44657
 RFO step:  Lambda=-3.22796076D-01 EMin=-1.94159776D-01
 Skip linear search -- no minimum in search direction.
 Maximum step size (   0.505) exceeded in Quadratic search.
    -- Step size scaled by   0.482
 Iteration  1 RMS(Cart)=  0.05125840 RMS(Int)=  0.01488381
 Iteration  2 RMS(Cart)=  0.01461108 RMS(Int)=  0.00000951
 Iteration  3 RMS(Cart)=  0.00000345 RMS(Int)=  0.00000934
 Iteration  4 RMS(Cart)=  0.00000000 RMS(Int)=  0.00000934
 ClnCor:  largest displacement from symmetrization is 1.21D-09 for atom    10.
 Variable       Old X    -DE/DX   Delta X   Delta X   Delta X     New X
                                 (Linear)    (Quad)   (Total)
    R1        2.62686  -0.03211   0.00000   0.01609   0.01609   2.64295
    R2        2.64389  -0.01130   0.00000   0.01739   0.01738   2.66127
    R3        3.18820  -0.11409   0.00000  -0.24371  -0.24371   2.94449
    R4        2.62653  -0.03111   0.00000   0.01988   0.01990   2.64643
    R5        2.63220  -0.02241   0.00000   0.02665   0.02666   2.65886
    R6        3.19190  -0.11276   0.00000  -0.24679  -0.24679   2.94511
    R7        2.63398  -0.02173   0.00000   0.02316   0.02316   2.65714
    R8        3.19036  -0.11616   0.00000  -0.26253  -0.26253   2.92783
    R9        2.64573  -0.00912   0.00000   0.01764   0.01762   2.66336
   R10        3.18995  -0.11408   0.00000  -0.24890  -0.24890   2.94105
   R11        3.30652  -0.02992   0.00000  -0.00962  -0.00962   3.29690
    A1        2.09048  -0.00523   0.00000  -0.00875  -0.00876   2.08172
    A2        2.09667   0.00293   0.00000   0.00490   0.00491   2.10158
    A3        2.09603   0.00230   0.00000   0.00385   0.00386   2.09989
    A4        2.10728   0.01577   0.00000   0.01789   0.01791   2.12520
    A5        2.08933  -0.00620   0.00000  -0.01402  -0.01399   2.07534
    A6        2.09618   0.00228   0.00000   0.00539   0.00538   2.10156
    A7        2.09767   0.00392   0.00000   0.00863   0.00861   2.10629
    A8        2.09522   0.00061   0.00000  -0.00042  -0.00041   2.09481
    A9        2.09363  -0.00048   0.00000   0.00053   0.00052   2.09416
   A10        2.09433  -0.00013   0.00000  -0.00010  -0.00011   2.09422
   A11        2.09772   0.00281   0.00000   0.00482   0.00481   2.10253
   A12        2.09381  -0.00022   0.00000  -0.00007  -0.00006   2.09375
   A13        2.09165  -0.00259   0.00000  -0.00476  -0.00475   2.08690
   A14        2.08633  -0.00777   0.00000   0.00048   0.00045   2.08678
   A15        2.09787   0.00340   0.00000  -0.00028  -0.00027   2.09761
   A16        2.09898   0.00436   0.00000  -0.00020  -0.00018   2.09880
    D1        0.00000  -0.00000   0.00000   0.00000   0.00000   0.00000
    D2        3.14159  -0.00000   0.00000  -0.00000   0.00000   3.14159
    D3       -0.00000   0.00000   0.00000  -0.00000   0.00000   0.00000
    D4        3.14159  -0.00000   0.00000  -0.00000   0.00000   3.14159
    D5        3.14159   0.00000   0.00000   0.00000   0.00000   3.14159
    D6       -0.00000   0.00000   0.00000   0.00000   0.00000   0.00000
    D7       -0.00000  -0.00000   0.00000   0.00000   0.00000   0.00000
    D8        3.14159   0.00000   0.00000   0.00000   0.00000   3.14159
    D9        0.00000   0.00000   0.00000   0.00000   0.00000   0.00000
   D10        3.14159   0.00000   0.00000   0.00000   0.00000   3.14159
   D11        3.14159  -0.00000   0.00000   0.00000   0.00000   3.14159
   D12        0.00000  -0.00000   0.00000   0.00000   0.00000   0.00000
   D13        0.00000  -0.00000   0.00000  -0.00000   0.00000   0.00000
   D14        3.14159   0.00000   0.00000  -0.00000   0.00000   3.14159
   D15        3.14159  -0.00000   0.00000  -0.00000   0.00000   3.14159
   D16       -0.00000  -0.00000   0.00000  -0.00000   0.00000   0.00000
   D17       -0.00000   0.00000   0.00000   0.00000   0.00000   0.00000
   D18        3.14159   0.00000   0.00000   0.00000   0.00000   3.14159
   D19        3.14159  -0.00000   0.00000   0.00000   0.00000   3.14159
   D20       -0.00000  -0.00000   0.00000   0.00000   0.00000   0.00000
         Item               Value     Threshold  Converged?
 Maximum Force            0.116157     0.000450     NO 
 RMS     Force            0.034755     0.000300     NO 
 Maximum Displacement     0.223165     0.001800     NO 
 RMS     Displacement     0.065563     0.001200     NO 
 Predicted change in Energy=-1.336671D-01
 GradGradGradGradGradGradGradGradGradGradGradGradGradGradGradGradGradGrad

                          Input orientation:                          
 ---------------------------------------------------------------------
 Center     Atomic      Atomic             Coordinates (Angstroms)
 Number     Number       Type             X           Y           Z
 ---------------------------------------------------------------------
      1          6           0       -3.196067    0.189918    0.000000
      2          6           0       -1.993402    0.903814   -0.000000
      3          6           0       -0.751680    0.256257   -0.000000
      4          6           0       -0.718133   -1.150354   -0.000000
      5          6           0       -1.918438   -1.882731   -0.000000
      6          6           0       -3.161183   -1.217932    0.000000
      7         17           0       -4.647089   -2.132189    0.000000
      8          1           0       -4.560241    0.942835    0.000000
      9          1           0        0.569305    1.083225   -0.000000
     10          1           0        0.641900   -1.892488   -0.000000
     11          1           0       -1.879692   -3.438584   -0.000000
 ---------------------------------------------------------------------
                    Distance matrix (angstroms):
                    1          2          3          4          5
     1  C    0.000000
     2  C    1.398588   0.000000
     3  C    2.445287   1.400430   0.000000
     4  C    2.817177   2.417833   1.407011   0.000000
     5  C    2.434792   2.787553   2.436512   1.406096   0.000000
     6  C    1.408283   2.421884   2.824701   2.443984   1.409388
     7  Cl   2.738183   4.032290   4.569341   4.049776   2.740030
     8  H    1.558157   2.567136   3.869952   4.375298   3.868197
     9  H    3.869887   2.568980   1.558486   2.578056   3.871144
    10  H    4.366510   3.842411   2.561087   1.549340   2.560356
    11  H    3.859906   4.343887   3.863193   2.566167   1.556336
                    6          7          8          9         10
     6  C    0.000000
     7  Cl   1.744643   0.000000
     8  H    2.574156   3.076250   0.000000
     9  H    4.383135   6.127777   5.131468   0.000000
    10  H    3.862443   5.294418   5.924637   2.976598   0.000000
    11  H    2.563886   3.060254   5.136358   5.142406   2.957844
                   11
    11  H    0.000000
 Stoichiometry    C6H4Cl(2)
 Framework group  CS[SG(C6H4Cl)]
 Deg. of freedom    19
 Full point group                 CS      NOp   2
 Largest Abelian subgroup         CS      NOp   2
 Largest concise Abelian subgroup C1      NOp   1
                         Standard orientation:                         
 ---------------------------------------------------------------------
 Center     Atomic      Atomic             Coordinates (Angstroms)
 Number     Number       Type             X           Y           Z
 ---------------------------------------------------------------------
      1          6           0       -1.280391   -0.088056    0.000000
      2          6           0       -1.394184   -1.482008    0.000000
      3          6           0       -0.267447   -2.313673    0.000000
      4          6           0        1.011244   -1.726621   -0.000000
      5          6           0        1.142679   -0.326682   -0.000000
      6          6           0       -0.000000    0.498338   -0.000000
      7         17           0        0.169554    2.234723   -0.000000
      8          1           0       -2.555533    0.807414    0.000000
      9          1           0       -0.430928   -3.863562    0.000000
     10          1           0        2.274879   -2.623103   -0.000000
     11          1           0        2.557759    0.321184   -0.000000
 ---------------------------------------------------------------------
 Rotational constants (GHZ):           5.5974842           1.5377040           1.2063135
 Standard basis: VSTO-6G (5D, 7F)
 There are    25 symmetry adapted cartesian basis functions of A'  symmetry.
 There are     7 symmetry adapted cartesian basis functions of A"  symmetry.
 There are    25 symmetry adapted basis functions of A'  symmetry.
 There are     7 symmetry adapted basis functions of A"  symmetry.
    32 basis functions,   192 primitive gaussians,    32 cartesian basis functions
    18 alpha electrons       17 beta electrons
       nuclear repulsion energy       149.0614093686 Hartrees.
 Integral buffers will be    131072 words long.
 Regular integral format.
 Two-electron integral symmetry is turned off.
 Do NDO integrals.
 One-electron integrals computed using PRISM.
 NBasis=    32 RedAO= T EigKep=  1.00D+00  NBF=    25     7
 NBsUse=    32 1.00D-06 EigRej= -1.00D+00 NBFU=    25     7
 Initial guess from the checkpoint file:  "geometry_chks/13-1_-ClBzNeutralRadical.chk"
 B after Tr=    -0.000000   -0.000000   -0.000000
         Rot=    1.000000    0.000000   -0.000000   -0.000512 Ang=  -0.06 deg.
 Initial guess orbital symmetries:
 Alpha Orbitals:
       Occupied  (A') (A') (A') (A') (A') (A') (A') (A') (A") (A')
                 (A") (A') (A') (A') (A') (A") (A') (A")
       Virtual   (A') (A') (A") (A') (A") (A') (A') (A") (A') (A')
                 (A') (A') (A') (A')
 Beta  Orbitals:
       Occupied  (A') (A') (A') (A') (A') (A') (A') (A') (A") (A')
                 (A") (A') (A') (A') (A') (A") (A")
       Virtual   (A') (A") (A') (A') (A') (A") (A') (A') (A") (A')
                 (A') (A') (A') (A') (A')
 Initial guess <Sx>= 0.0000 <Sy>= 0.0000 <Sz>= 0.5000 <S**2>= 1.6670 S= 0.8846
 Keep J ints in memory in canonical form, NReq=862079.
 Overlap will be assumed to be unity.
 Requested convergence on RMS density matrix=1.00D-08 within  32 cycles.
 Requested convergence on MAX density matrix=1.00D-06.
 Requested convergence on             energy=1.00D-06.
 No special actions if energy rises.
 Fock symm off for IB=2 I1=    1 I=   26 J=   17 Cut=1.00D-07 Err=4.05D-04
 Fock matrix is not symmetric: symmetry in diagonalization turned off.
 SCF Done:  E(UAM1) =  0.405080514407     A.U. after   21 cycles
            NFock= 20  Conv=0.49D-08     -V/T= 1.0059
 <Sx>= 0.0000 <Sy>= 0.0000 <Sz>= 0.5000 <S**2>= 1.3501 S= 0.7649
 <L.S>=  0.00000000000    
 Annihilation of the first spin contaminant:
 S**2 before annihilation     1.3501,   after     1.1049
 QCSCF skips out because SCF is already converged.
 Calling FoFJK, ICntrl=      2127 FMM=F ISym2X=1 I1Cent= 0 IOpClX= 1 NMat=1 NMatS=1 NMatT=0.
 ***** Axes restored to original set *****
 -------------------------------------------------------------------
 Center     Atomic                   Forces (Hartrees/Bohr)
 Number     Number              X              Y              Z
 -------------------------------------------------------------------
      1        6          -0.074996492    0.065336325   -0.000000000
      2        6           0.001950088   -0.056295780   -0.000000000
      3        6           0.075104088    0.056119099   -0.000000000
      4        6           0.073514907   -0.041287437   -0.000000000
      5        6           0.015946240   -0.089740936   -0.000000000
      6        6          -0.007344957   -0.006241446    0.000000000
      7       17           0.024142703    0.015131056   -0.000000000
      8        1           0.105926094   -0.058580953    0.000000000
      9        1          -0.103338967   -0.064304583    0.000000000
     10        1          -0.107402136    0.058686697    0.000000000
     11        1          -0.003501569    0.121177958    0.000000000
 -------------------------------------------------------------------
 Cartesian Forces:  Max     0.121177958 RMS     0.054305430

 GradGradGradGradGradGradGradGradGradGradGradGradGradGradGradGradGradGrad
 Berny optimization.
 Using GEDIIS/GDIIS optimizer.
 FormGI is forming the generalized inverse of G from B-inverse, IUseBI=4.
 Internal  Forces:  Max     0.122390123 RMS     0.037805879
 Search for a local minimum.
 Step number   3 out of a maximum of   57
 All quantities printed in internal units (Hartrees-Bohrs-Radians)
 Mixed Optimization -- RFO/linear search
 Update second derivatives using D2CorX and points    2    3
 DE= -1.18D-01 DEPred=-1.34D-01 R= 8.79D-01
 TightC=F SS=  1.41D+00  RLast= 5.05D-01 DXNew= 8.4853D-01 1.5136D+00
 Trust test= 8.79D-01 RLast= 5.05D-01 DXMaxT set to 8.49D-01
 ITU=  1  1  0
 Use linear search instead of GDIIS.
     Eigenvalues ---   -0.05262   0.02011   0.02011   0.02011   0.02011
     Eigenvalues ---    0.02011   0.02011   0.02011   0.02011   0.06048
     Eigenvalues ---    0.06506   0.06524   0.09179   0.15996   0.16000
     Eigenvalues ---    0.16000   0.16004   0.21996   0.22938   0.23260
     Eigenvalues ---    0.24999   0.28750   0.40593   0.40935   0.44521
     Eigenvalues ---    0.44656   0.44657
 RFO step:  Lambda=-2.86068089D-01 EMin=-5.26220478D-02
 Skip linear search -- no minimum in search direction.
 Maximum step size (   0.849) exceeded in Quadratic search.
    -- Step size scaled by   0.846
 Iteration  1 RMS(Cart)=  0.10132557 RMS(Int)=  0.05772694
 Iteration  2 RMS(Cart)=  0.05653785 RMS(Int)=  0.00138001
 Iteration  3 RMS(Cart)=  0.00131094 RMS(Int)=  0.00013962
 Iteration  4 RMS(Cart)=  0.00000004 RMS(Int)=  0.00013962
 ClnCor:  largest displacement from symmetrization is 1.08D-09 for atom     9.
 Variable       Old X    -DE/DX   Delta X   Delta X   Delta X     New X
                                 (Linear)    (Quad)   (Total)
    R1        2.64295  -0.04178   0.00000  -0.12969  -0.12958   2.51337
    R2        2.66127  -0.02272   0.00000  -0.08804  -0.08817   2.57310
    R3        2.94449  -0.12105   0.00000  -0.39553  -0.39553   2.54896
    R4        2.64643  -0.04169   0.00000  -0.13294  -0.13271   2.51372
    R5        2.65886  -0.03510   0.00000  -0.12328  -0.12316   2.53571
    R6        2.94511  -0.12171   0.00000  -0.40936  -0.40936   2.53575
    R7        2.65714  -0.03400   0.00000  -0.11856  -0.11867   2.53847
    R8        2.92783  -0.12239   0.00000  -0.38992  -0.38992   2.53791
    R9        2.66336  -0.02120   0.00000  -0.08637  -0.08660   2.57676
   R10        2.94105  -0.12123   0.00000  -0.39576  -0.39576   2.54529
   R11        3.29690  -0.02849   0.00000  -0.07531  -0.07531   3.22158
    A1        2.08172  -0.00667   0.00000  -0.02456  -0.02461   2.05711
    A2        2.10158   0.00349   0.00000   0.01183   0.01185   2.11343
    A3        2.09989   0.00318   0.00000   0.01273   0.01276   2.11264
    A4        2.12520   0.01492   0.00000   0.03782   0.03826   2.16345
    A5        2.07534  -0.00538   0.00000  -0.01282  -0.01249   2.06285
    A6        2.10156   0.00220   0.00000   0.00684   0.00667   2.10823
    A7        2.10629   0.00317   0.00000   0.00598   0.00582   2.11210
    A8        2.09481   0.00126   0.00000   0.00597   0.00597   2.10078
    A9        2.09416  -0.00073   0.00000  -0.00302  -0.00302   2.09114
   A10        2.09422  -0.00052   0.00000  -0.00295  -0.00295   2.09127
   A11        2.10253   0.00143   0.00000  -0.00117  -0.00152   2.10101
   A12        2.09375  -0.00001   0.00000   0.00003   0.00021   2.09396
   A13        2.08690  -0.00143   0.00000   0.00113   0.00131   2.08821
   A14        2.08678  -0.00556   0.00000  -0.00524  -0.00561   2.08117
   A15        2.09761   0.00239   0.00000   0.00185   0.00204   2.09964
   A16        2.09880   0.00317   0.00000   0.00339   0.00358   2.10238
    D1       -0.00000   0.00000   0.00000   0.00000   0.00000   0.00000
    D2        3.14159  -0.00000   0.00000  -0.00000   0.00000   3.14159
    D3        0.00000   0.00000   0.00000  -0.00000  -0.00000   0.00000
    D4        3.14159  -0.00000   0.00000   0.00000   0.00000   3.14159
    D5        3.14159   0.00000   0.00000   0.00000   0.00000   3.14159
    D6       -0.00000   0.00000   0.00000   0.00000   0.00000   0.00000
    D7       -0.00000  -0.00000   0.00000   0.00000   0.00000   0.00000
    D8        3.14159   0.00000   0.00000   0.00000   0.00000   3.14159
    D9        0.00000   0.00000   0.00000  -0.00000   0.00000   0.00000
   D10        3.14159   0.00000   0.00000   0.00000   0.00000   3.14159
   D11        3.14159  -0.00000   0.00000  -0.00000   0.00000   3.14159
   D12       -0.00000  -0.00000   0.00000   0.00000   0.00000   0.00000
   D13       -0.00000  -0.00000   0.00000   0.00000   0.00000   0.00000
   D14        3.14159   0.00000   0.00000   0.00000   0.00000   3.14159
   D15        3.14159  -0.00000   0.00000  -0.00000   0.00000   3.14159
   D16        0.00000  -0.00000   0.00000   0.00000   0.00000   0.00000
   D17        0.00000   0.00000   0.00000  -0.00000   0.00000   0.00000
   D18        3.14159   0.00000   0.00000  -0.00000   0.00000   3.14159
   D19        3.14159  -0.00000   0.00000  -0.00000   0.00000   3.14159
   D20        0.00000  -0.00000   0.00000  -0.00000  -0.00000   0.00000
         Item               Value     Threshold  Converged?
 Maximum Force            0.122390     0.000450     NO 
 RMS     Force            0.037806     0.000300     NO 
 Maximum Displacement     0.478001     0.001800     NO 
 RMS     Displacement     0.154030     0.001200     NO 
 Predicted change in Energy=-2.383054D-01
 GradGradGradGradGradGradGradGradGradGradGradGradGradGradGradGradGradGrad

                          Input orientation:                          
 ---------------------------------------------------------------------
 Center     Atomic      Atomic             Coordinates (Angstroms)
 Number     Number       Type             X           Y           Z
 ---------------------------------------------------------------------
      1          6           0       -3.135984    0.156616    0.000000
      2          6           0       -1.974752    0.805065   -0.000000
      3          6           0       -0.788101    0.203989   -0.000000
      4          6           0       -0.756978   -1.137490   -0.000000
      5          6           0       -1.899936   -1.843253   -0.000000
      6          6           0       -3.104715   -1.204652    0.000000
      7         17           0       -4.556470   -2.098360    0.000000
      8          1           0       -4.307294    0.825522    0.000000
      9          1           0        0.345577    0.921879   -0.000000
     10          1           0        0.423451   -1.777991   -0.000000
     11          1           0       -1.859517   -3.189555   -0.000000
 ---------------------------------------------------------------------
                    Distance matrix (angstroms):
                    1          2          3          4          5
     1  C    0.000000
     2  C    1.330017   0.000000
     3  C    2.348362   1.330201   0.000000
     4  C    2.708206   2.292704   1.341840   0.000000
     5  C    2.351019   2.649374   2.329673   1.343300   0.000000
     6  C    1.361628   2.305597   2.711268   2.348698   1.363563
     7  Cl   2.665088   3.885246   4.416041   3.919108   2.668754
     8  H    1.348852   2.332632   3.573657   4.056866   3.594125
     9  H    3.564673   2.323267   1.341861   2.335943   3.562062
    10  H    4.051208   3.524706   2.322951   1.343002   2.324304
    11  H    3.581373   3.996282   3.558662   2.329498   1.346909
                    6          7          8          9         10
     6  C    0.000000
     7  Cl   1.704788   0.000000
     8  H    2.359620   2.934480   0.000000
     9  H    4.052981   5.757769   4.653868   0.000000
    10  H    3.574448   4.990215   5.399836   2.700993   0.000000
    11  H    2.343151   2.909340   4.702389   4.665440   2.684112
                   11
    11  H    0.000000
 Stoichiometry    C6H4Cl(2)
 Framework group  CS[SG(C6H4Cl)]
 Deg. of freedom    19
 Full point group                 CS      NOp   2
 Largest Abelian subgroup         CS      NOp   2
 Largest concise Abelian subgroup C1      NOp   1
                         Standard orientation:                         
 ---------------------------------------------------------------------
 Center     Atomic      Atomic             Coordinates (Angstroms)
 Number     Number       Type             X           Y           Z
 ---------------------------------------------------------------------
      1          6           0       -1.239547   -0.093106    0.000000
      2          6           0       -1.318806   -1.420759    0.000000
      3          6           0       -0.261697   -2.228196    0.000000
      4          6           0        0.959964   -1.673147    0.000000
      5          6           0        1.098783   -0.337040    0.000000
      6          6           0        0.000000    0.470413    0.000000
      7         17           0        0.173862    2.166312    0.000000
      8          1           0       -2.351076    0.671032    0.000000
      9          1           0       -0.415472   -3.561217    0.000000
     10          1           0        2.049874   -2.457845    0.000000
     11          1           0        2.328829    0.211732    0.000000
 ---------------------------------------------------------------------
 Rotational constants (GHZ):           6.2351429           1.6535524           1.3069507
 Standard basis: VSTO-6G (5D, 7F)
 There are    25 symmetry adapted cartesian basis functions of A'  symmetry.
 There are     7 symmetry adapted cartesian basis functions of A"  symmetry.
 There are    25 symmetry adapted basis functions of A'  symmetry.
 There are     7 symmetry adapted basis functions of A"  symmetry.
    32 basis functions,   192 primitive gaussians,    32 cartesian basis functions
    18 alpha electrons       17 beta electrons
       nuclear repulsion energy       153.5067576147 Hartrees.
 Integral buffers will be    131072 words long.
 Regular integral format.
 Two-electron integral symmetry is turned off.
 Do NDO integrals.
 One-electron integrals computed using PRISM.
 NBasis=    32 RedAO= T EigKep=  1.00D+00  NBF=    25     7
 NBsUse=    32 1.00D-06 EigRej= -1.00D+00 NBFU=    25     7
 Initial guess from the checkpoint file:  "geometry_chks/13-1_-ClBzNeutralRadical.chk"
 B after Tr=     0.000000    0.000000    0.000000
         Rot=    0.999998   -0.000000    0.000000    0.002001 Ang=   0.23 deg.
 Initial guess orbital symmetries:
 Alpha Orbitals:
       Occupied  (A') (A') (A') (A') (A') (A') (A') (A') (A") (A')
                 (A') (A") (A') (A') (A') (A') (A") (A")
       Virtual   (A") (A") (A') (A') (A') (A') (A') (A") (A') (A')
                 (A') (A') (A') (A')
 Beta  Orbitals:
       Occupied  (A') (A') (A') (A') (A') (A') (A') (A') (A') (A")
                 (A') (A") (A') (A') (A') (A") (A")
       Virtual   (A') (A") (A") (A') (A') (A') (A') (A') (A") (A')
                 (A') (A') (A') (A') (A')
 Initial guess <Sx>= 0.0000 <Sy>= 0.0000 <Sz>= 0.5000 <S**2>= 1.3501 S= 0.7649
 Keep J ints in memory in canonical form, NReq=862079.
 Overlap will be assumed to be unity.
 Requested convergence on RMS density matrix=1.00D-08 within  32 cycles.
 Requested convergence on MAX density matrix=1.00D-06.
 Requested convergence on             energy=1.00D-06.
 No special actions if energy rises.
 Fock symm off for IB=2 I1=    1 I=   26 J=    5 Cut=1.00D-07 Err=5.02D-03
 Fock matrix is not symmetric: symmetry in diagonalization turned off.
 SCF Done:  E(UAM1) =  0.232370132465     A.U. after   18 cycles
            NFock= 17  Conv=0.68D-08     -V/T= 1.0034
 <Sx>= 0.0000 <Sy>= 0.0000 <Sz>= 0.5000 <S**2>= 0.9507 S= 0.5958
 <L.S>=  0.00000000000    
 Annihilation of the first spin contaminant:
 S**2 before annihilation     0.9507,   after     0.7808
 QCSCF skips out because SCF is already converged.
 Calling FoFJK, ICntrl=      2127 FMM=F ISym2X=1 I1Cent= 0 IOpClX= 1 NMat=1 NMatS=1 NMatT=0.
 ***** Axes restored to original set *****
 -------------------------------------------------------------------
 Center     Atomic                   Forces (Hartrees/Bohr)
 Number     Number              X              Y              Z
 -------------------------------------------------------------------
      1        6          -0.144184696    0.086312665   -0.000000000
      2        6          -0.004043985    0.045220793   -0.000000000
      3        6           0.146020110    0.106168509   -0.000000000
      4        6           0.143268655   -0.085677358    0.000000000
      5        6          -0.003527957   -0.157791723   -0.000000000
      6        6          -0.052781524   -0.037340810   -0.000000000
      7       17          -0.000031465    0.000065024   -0.000000000
      8        1           0.084636438   -0.048552048    0.000000000
      9        1          -0.081355460   -0.051245240    0.000000000
     10        1          -0.084660962    0.045877078    0.000000000
     11        1          -0.003339155    0.096963109    0.000000000
 -------------------------------------------------------------------
 Cartesian Forces:  Max     0.157791723 RMS     0.069041493

 GradGradGradGradGradGradGradGradGradGradGradGradGradGradGradGradGradGrad
 Berny optimization.
 Using GEDIIS/GDIIS optimizer.
 FormGI is forming the generalized inverse of G from B-inverse, IUseBI=4.
 Internal  Forces:  Max     0.097573521 RMS     0.036902104
 Search for a local minimum.
 Step number   4 out of a maximum of   57
 All quantities printed in internal units (Hartrees-Bohrs-Radians)
 Mixed Optimization -- RFO/linear search
 Update second derivatives using D2CorX and points    3    4
 DE= -1.73D-01 DEPred=-2.38D-01 R= 7.25D-01
 TightC=F SS=  1.41D+00  RLast= 8.49D-01 DXNew= 1.4270D+00 2.5456D+00
 Trust test= 7.25D-01 RLast= 8.49D-01 DXMaxT set to 1.43D+00
 ITU=  1  1  1  0
 Use linear search instead of GDIIS.
     Eigenvalues ---    0.02011   0.02011   0.02011   0.02011   0.02011
     Eigenvalues ---    0.02011   0.02011   0.02011   0.02088   0.06509
     Eigenvalues ---    0.06524   0.06559   0.15990   0.16000   0.16000
     Eigenvalues ---    0.16000   0.21996   0.23002   0.23276   0.24999
     Eigenvalues ---    0.28205   0.40011   0.40679   0.44519   0.44647
     Eigenvalues ---    0.44657   0.64493
 RFO step:  Lambda=-2.08721576D-01 EMin= 2.01065733D-02
 Quartic linear search produced a step of  0.55467.
 Iteration  1 RMS(Cart)=  0.05016779 RMS(Int)=  0.09616006
 Iteration  2 RMS(Cart)=  0.05772173 RMS(Int)=  0.03787910
 Iteration  3 RMS(Cart)=  0.03734753 RMS(Int)=  0.00019177
 Iteration  4 RMS(Cart)=  0.00001104 RMS(Int)=  0.00019145
 Iteration  5 RMS(Cart)=  0.00000000 RMS(Int)=  0.00019145
 ClnCor:  largest displacement from symmetrization is 9.93D-09 for atom     9.
 Variable       Old X    -DE/DX   Delta X   Delta X   Delta X     New X
                                 (Linear)    (Quad)   (Total)
    R1        2.51337   0.06236  -0.07187   0.17717   0.10534   2.61870
    R2        2.57310   0.06324  -0.04890   0.15241   0.10325   2.67635
    R3        2.54896  -0.09757  -0.21939  -0.30475  -0.52414   2.02482
    R4        2.51372   0.06358  -0.07361   0.18722   0.11387   2.62759
    R5        2.53571   0.07460  -0.06831   0.20587   0.13781   2.67352
    R6        2.53575  -0.09615  -0.22706  -0.29201  -0.51907   2.01668
    R7        2.53847   0.07110  -0.06582   0.19196   0.12611   2.66458
    R8        2.53791  -0.09629  -0.21628  -0.32914  -0.54541   1.99249
    R9        2.57676   0.06087  -0.04803   0.14793   0.09962   2.67638
   R10        2.54529  -0.09702  -0.21952  -0.30917  -0.52869   2.01660
   R11        3.22158  -0.00001  -0.04177   0.03574  -0.00603   3.21555
    A1        2.05711  -0.00231  -0.01365  -0.00504  -0.01896   2.03815
    A2        2.11343   0.00140   0.00657   0.00402   0.01073   2.12417
    A3        2.11264   0.00091   0.00708   0.00102   0.00823   2.12087
    A4        2.16345   0.01057   0.02122   0.02285   0.04448   2.20793
    A5        2.06285  -0.00997  -0.00693  -0.03181  -0.03819   2.02466
    A6        2.10823   0.00469   0.00370   0.01284   0.01627   2.12450
    A7        2.11210   0.00528   0.00323   0.01897   0.02193   2.13403
    A8        2.10078  -0.00144   0.00331  -0.00582  -0.00229   2.09849
    A9        2.09114   0.00079  -0.00168   0.00366   0.00187   2.09301
   A10        2.09127   0.00065  -0.00164   0.00217   0.00042   2.09169
   A11        2.10101   0.00386  -0.00084   0.01438   0.01321   2.11422
   A12        2.09396  -0.00138   0.00011  -0.00250  -0.00222   2.09174
   A13        2.08821  -0.00247   0.00073  -0.01188  -0.01099   2.07722
   A14        2.08117  -0.00071  -0.00311   0.00544   0.00175   2.08291
   A15        2.09964   0.00024   0.00113  -0.00233  -0.00091   2.09873
   A16        2.10238   0.00047   0.00198  -0.00310  -0.00083   2.10154
    D1        0.00000  -0.00000   0.00000  -0.00000   0.00000   0.00000
    D2        3.14159  -0.00000   0.00000  -0.00000   0.00000   3.14159
    D3        0.00000   0.00000   0.00000   0.00000   0.00000   0.00000
    D4        3.14159  -0.00000   0.00000  -0.00000   0.00000   3.14159
    D5        3.14159   0.00000   0.00000   0.00000   0.00000   3.14159
    D6        0.00000   0.00000   0.00000   0.00000   0.00000   0.00000
    D7        0.00000  -0.00000   0.00000  -0.00000   0.00000   0.00000
    D8        3.14159   0.00000   0.00000   0.00000   0.00000   3.14159
    D9        0.00000   0.00000   0.00000   0.00000   0.00000   0.00000
   D10        3.14159   0.00000   0.00000   0.00000   0.00000   3.14159
   D11        3.14159  -0.00000   0.00000  -0.00000   0.00000   3.14159
   D12        0.00000  -0.00000   0.00000  -0.00000   0.00000   0.00000
   D13        0.00000  -0.00000   0.00000  -0.00000   0.00000   0.00000
   D14        3.14159   0.00000   0.00000  -0.00000   0.00000   3.14159
   D15        3.14159  -0.00000   0.00000  -0.00000   0.00000   3.14159
   D16        0.00000  -0.00000   0.00000  -0.00000   0.00000   0.00000
   D17        0.00000  -0.00000   0.00000   0.00000   0.00000   0.00000
   D18        3.14159   0.00000   0.00000   0.00000   0.00000   3.14159
   D19        3.14159  -0.00000   0.00000  -0.00000   0.00000   3.14159
   D20        0.00000  -0.00000   0.00000   0.00000   0.00000   0.00000
         Item               Value     Threshold  Converged?
 Maximum Force            0.097574     0.000450     NO 
 RMS     Force            0.036902     0.000300     NO 
 Maximum Displacement     0.415864     0.001800     NO 
 RMS     Displacement     0.124617     0.001200     NO 
 Predicted change in Energy=-2.331260D-01
 GradGradGradGradGradGradGradGradGradGradGradGradGradGradGradGradGradGrad

                          Input orientation:                          
 ---------------------------------------------------------------------
 Center     Atomic      Atomic             Coordinates (Angstroms)
 Number     Number       Type             X           Y           Z
 ---------------------------------------------------------------------
[...]
 DidBck=F Rises=F RFO-DIIS coefs:    0.93669    0.02549    0.02151    0.01632
 Iteration  1 RMS(Cart)=  0.00003842 RMS(Int)=  0.00000000
 Iteration  2 RMS(Cart)=  0.00000000 RMS(Int)=  0.00000000
 ClnCor:  largest displacement from symmetrization is 2.49D-12 for atom     7.
 Variable       Old X    -DE/DX   Delta X   Delta X   Delta X     New X
                                 (Linear)    (Quad)   (Total)
    R1        2.58911  -0.00003  -0.00001  -0.00005  -0.00006   2.58904
    R2        2.67065  -0.00002  -0.00001  -0.00003  -0.00004   2.67061
    R3        2.07248  -0.00000  -0.00003   0.00003   0.00000   2.07248
    R4        2.59090  -0.00001  -0.00001   0.00000  -0.00001   2.59090
    R5        2.66192  -0.00001   0.00000   0.00000   0.00000   2.66192
    R6        2.07142  -0.00001   0.00001  -0.00003  -0.00003   2.07139
    R7        2.64800   0.00000   0.00001   0.00002   0.00002   2.64803
    R8        2.07658  -0.00001  -0.00004  -0.00000  -0.00004   2.07654
    R9        2.65969  -0.00002   0.00000  -0.00004  -0.00003   2.65965
   R10        2.07986  -0.00001   0.00001  -0.00006  -0.00005   2.07981
   R11        3.20127  -0.00002  -0.00002  -0.00003  -0.00005   3.20121
    A1        1.99581   0.00000  -0.00001   0.00002   0.00001   1.99582
    A2        2.14939   0.00001   0.00000   0.00006   0.00006   2.14945
    A3        2.13798  -0.00001   0.00001  -0.00008  -0.00007   2.13792
    A4        2.25910   0.00000   0.00002  -0.00002   0.00000   2.25910
    A5        2.00349  -0.00000  -0.00001   0.00001   0.00000   2.00349
    A6        2.14568   0.00001   0.00000   0.00004   0.00004   2.14573
    A7        2.13402  -0.00001   0.00000  -0.00005  -0.00005   2.13397
    A8        2.09785  -0.00001  -0.00000  -0.00002  -0.00002   2.09783
    A9        2.09304   0.00000   0.00000  -0.00001  -0.00001   2.09304
   A10        2.09230   0.00001   0.00000   0.00002   0.00002   2.09232
   A11        2.11044  -0.00000  -0.00001  -0.00001  -0.00001   2.11043
   A12        2.08561   0.00000   0.00000  -0.00001  -0.00000   2.08561
   A13        2.08713   0.00000   0.00000   0.00001   0.00002   2.08715
   A14        2.09968   0.00001   0.00001   0.00001   0.00002   2.09970
   A15        2.08966  -0.00001  -0.00001  -0.00004  -0.00005   2.08961
   A16        2.09384   0.00001  -0.00000   0.00003   0.00003   2.09387
    D1       -0.00000   0.00000   0.00000   0.00000   0.00000   0.00000
    D2        3.14159  -0.00000  -0.00000  -0.00000   0.00000   3.14159
    D3        0.00000  -0.00000   0.00000  -0.00000   0.00000   0.00000
    D4        3.14159  -0.00000  -0.00000  -0.00000   0.00000   3.14159
    D5        3.14159   0.00000  -0.00000   0.00000   0.00000   3.14159
    D6       -0.00000   0.00000   0.00000   0.00000   0.00000   0.00000
    D7        0.00000  -0.00000   0.00000  -0.00000  -0.00000   0.00000
    D8        3.14159   0.00000  -0.00000   0.00000   0.00000   3.14159
    D9       -0.00000   0.00000   0.00000   0.00000   0.00000   0.00000
   D10        3.14159   0.00000  -0.00000   0.00000   0.00000   3.14159
   D11        3.14159  -0.00000  -0.00000  -0.00000   0.00000   3.14159
   D12        0.00000  -0.00000   0.00000  -0.00000   0.00000   0.00000
   D13        0.00000  -0.00000   0.00000  -0.00000   0.00000   0.00000
   D14        3.14159   0.00000  -0.00000   0.00000   0.00000   3.14159
   D15        3.14159  -0.00000  -0.00000  -0.00000   0.00000   3.14159
   D16       -0.00000  -0.00000   0.00000  -0.00000   0.00000   0.00000
   D17       -0.00000   0.00000   0.00000   0.00000   0.00000   0.00000
   D18        3.14159   0.00000  -0.00000   0.00000   0.00000   3.14159
   D19        3.14159  -0.00000  -0.00000  -0.00000   0.00000   3.14159
   D20        0.00000  -0.00000   0.00000  -0.00000  -0.00000   0.00000
         Item               Value     Threshold  Converged?
 Maximum Force            0.000031     0.000450     YES
 RMS     Force            0.000008     0.000300     YES
 Maximum Displacement     0.000170     0.001800     YES
 RMS     Displacement     0.000038     0.001200     YES
 Predicted change in Energy=-4.772097D-09
 Optimization completed.
    -- Stationary point found.
                           ----------------------------
                           !   Optimized Parameters   !
                           ! (Angstroms and Degrees)  !
 --------------------------                            --------------------------
 ! Name  Definition              Value          Derivative Info.                !
 --------------------------------------------------------------------------------
 ! R1    R(1,2)                  1.3701         -DE/DX =    0.0                 !
 ! R2    R(1,6)                  1.4132         -DE/DX =    0.0                 !
 ! R3    R(1,8)                  1.0967         -DE/DX =    0.0                 !
 ! R4    R(2,3)                  1.371          -DE/DX =    0.0                 !
 ! R5    R(3,4)                  1.4086         -DE/DX =    0.0                 !
 ! R6    R(3,9)                  1.0961         -DE/DX =    0.0                 !
 ! R7    R(4,5)                  1.4013         -DE/DX =    0.0                 !
 ! R8    R(4,10)                 1.0989         -DE/DX =    0.0                 !
 ! R9    R(5,6)                  1.4074         -DE/DX =    0.0                 !
 ! R10   R(5,11)                 1.1006         -DE/DX =    0.0                 !
 ! R11   R(6,7)                  1.694          -DE/DX =    0.0                 !
 ! A1    A(2,1,6)              114.3517         -DE/DX =    0.0                 !
 ! A2    A(2,1,8)              123.1508         -DE/DX =    0.0                 !
 ! A3    A(6,1,8)              122.4975         -DE/DX =    0.0                 !
 ! A4    A(1,2,3)              129.4367         -DE/DX =    0.0                 !
 ! A5    A(2,3,4)              114.7913         -DE/DX =    0.0                 !
 ! A6    A(2,3,9)              122.9386         -DE/DX =    0.0                 !
 ! A7    A(4,3,9)              122.2701         -DE/DX =    0.0                 !
 ! A8    A(3,4,5)              120.1979         -DE/DX =    0.0                 !
 ! A9    A(3,4,10)             119.9224         -DE/DX =    0.0                 !
 ! A10   A(5,4,10)             119.8797         -DE/DX =    0.0                 !
 ! A11   A(4,5,6)              120.9194         -DE/DX =    0.0                 !
 ! A12   A(4,5,11)             119.4969         -DE/DX =    0.0                 !
 ! A13   A(6,5,11)             119.5837         -DE/DX =    0.0                 !
 ! A14   A(1,6,5)              120.3031         -DE/DX =    0.0                 !
 ! A15   A(1,6,7)              119.7287         -DE/DX =    0.0                 !
 ! A16   A(5,6,7)              119.9683         -DE/DX =    0.0                 !
 ! D1    D(6,1,2,3)              0.0            -DE/DX =    0.0                 !
 ! D2    D(8,1,2,3)            180.0            -DE/DX =    0.0                 !
 ! D3    D(2,1,6,5)              0.0            -DE/DX =    0.0                 !
 ! D4    D(2,1,6,7)            180.0            -DE/DX =    0.0                 !
 ! D5    D(8,1,6,5)            180.0            -DE/DX =    0.0                 !
 ! D6    D(8,1,6,7)              0.0            -DE/DX =    0.0                 !
 ! D7    D(1,2,3,4)              0.0            -DE/DX =    0.0                 !
 ! D8    D(1,2,3,9)            180.0            -DE/DX =    0.0                 !
 ! D9    D(2,3,4,5)              0.0            -DE/DX =    0.0                 !
 ! D10   D(2,3,4,10)           180.0            -DE/DX =    0.0                 !
 ! D11   D(9,3,4,5)            180.0            -DE/DX =    0.0                 !
 ! D12   D(9,3,4,10)             0.0            -DE/DX =    0.0                 !
 ! D13   D(3,4,5,6)              0.0            -DE/DX =    0.0                 !
 ! D14   D(3,4,5,11)           180.0            -DE/DX =    0.0                 !
 ! D15   D(10,4,5,6)           180.0            -DE/DX =    0.0                 !
 ! D16   D(10,4,5,11)            0.0            -DE/DX =    0.0                 !
 ! D17   D(4,5,6,1)              0.0            -DE/DX =    0.0                 !
 ! D18   D(4,5,6,7)            180.0            -DE/DX =    0.0                 !
 ! D19   D(11,5,6,1)           180.0            -DE/DX =    0.0                 !
 ! D20   D(11,5,6,7)             0.0            -DE/DX =    0.0                 !
 --------------------------------------------------------------------------------
 GradGradGradGradGradGradGradGradGradGradGradGradGradGradGradGradGradGrad

                          Input orientation:                          
 ---------------------------------------------------------------------
 Center     Atomic      Atomic             Coordinates (Angstroms)
 Number     Number       Type             X           Y           Z
 ---------------------------------------------------------------------
      1          6           0       -3.182913    0.182223    0.000000
      2          6           0       -1.957264    0.794551    0.000000
      3          6           0       -0.704914    0.236528    0.000000
      4          6           0       -0.685875   -1.171970    0.000000
      5          6           0       -1.887342   -1.893093   -0.000000
      6          6           0       -3.128790   -1.229990   -0.000000
      7         17           0       -4.566614   -2.125773   -0.000000
      8          1           0       -4.129780    0.735587    0.000000
      9          1           0        0.213928    0.834247    0.000000
     10          1           0        0.273846   -1.707197    0.000000
     11          1           0       -1.859003   -2.993343   -0.000000
 ---------------------------------------------------------------------
                    Distance matrix (angstroms):
                    1          2          3          4          5
     1  C    0.000000
     2  C    1.370096   0.000000
     3  C    2.478594   1.371047   0.000000
     4  C    2.840605   2.341716   1.408627   0.000000
     5  C    2.446516   2.688554   2.435862   1.401264   0.000000
     6  C    1.413250   2.339069   2.832994   2.443604   1.407445
     7  Cl   2.690998   3.916248   4.526941   3.996232   2.689357
     8  H    1.096709   2.173317   3.461036   3.936909   3.455212
     9  H    3.458853   2.171555   1.096147   2.198762   3.442923
    10  H    3.939428   3.352103   2.176244   1.098878   2.169168
    11  H    3.440488   3.789169   3.429867   2.166478   1.100615
                    6          7          8          9         10
     6  C    0.000000
     7  Cl   1.694037   0.000000
     8  H    2.205782   2.894513   0.000000
     9  H    3.928720   5.622749   4.344829   0.000000
    10  H    3.435937   4.858525   5.035784   2.542150   0.000000
    11  H    2.172965   2.843209   4.365931   4.352871   2.490626
                   11
    11  H    0.000000
 Stoichiometry    C6H4Cl(2)
 Framework group  CS[SG(C6H4Cl)]
 Deg. of freedom    19
 Full point group                 CS      NOp   2
 Largest Abelian subgroup         CS      NOp   2
 Largest concise Abelian subgroup C1      NOp   1
                         Standard orientation:                         
 ---------------------------------------------------------------------
 Center     Atomic      Atomic             Coordinates (Angstroms)
 Number     Number       Type             X           Y           Z
 ---------------------------------------------------------------------
      1          6           0       -1.298215   -0.054694    0.000000
      2          6           0       -1.323906   -1.424549    0.000000
      3          6           0       -0.281526   -2.315174    0.000000
      4          6           0        0.998247   -1.726608    0.000000
      5          6           0        1.132557   -0.331796    0.000000
      6          6           0        0.000000    0.503796    0.000000
      7         17           0        0.190341    2.187107    0.000000
      8          1           0       -2.205010    0.562147    0.000000
      9          1           0       -0.425976   -3.401762    0.000000
     10          1           0        1.894196   -2.362854    0.000000
     11          1           0        2.138045    0.115806    0.000000
 ---------------------------------------------------------------------
 Rotational constants (GHZ):           6.0956667           1.6069821           1.2717219

 **********************************************************************

            Population analysis using the SCF Density.

 **********************************************************************

 Orbital symmetries:
 Alpha Orbitals:
       Occupied  (A') (A') (A') (A') (A') (A') (A') (A') (A') (A')
                 (A") (A') (A') (A") (A') (A') (A") (A")
       Virtual   (A") (A") (A') (A") (A') (A') (A') (A') (A') (A')
                 (A') (A') (A') (A')
 Beta  Orbitals:
       Occupied  (A') (A') (A') (A') (A') (A') (A') (A') (A') (A')
                 (A") (A') (A') (A") (A') (A") (A")
       Virtual   (A") (A') (A") (A') (A") (A') (A') (A') (A') (A')
                 (A') (A') (A') (A') (A')
 The electronic state is 2-A'.
 Alpha  occ. eigenvalues --   -1.46023  -1.38410  -1.16888  -1.14440  -0.87355
 Alpha  occ. eigenvalues --   -0.84848  -0.66411  -0.61294  -0.59950  -0.55151
 Alpha  occ. eigenvalues --   -0.53862  -0.50587  -0.47538  -0.46806  -0.44681
 Alpha  occ. eigenvalues --   -0.38588  -0.38256  -0.36194
 Alpha virt. eigenvalues --    0.00529   0.01154   0.04070   0.09040   0.12991
 Alpha virt. eigenvalues --    0.13607   0.13869   0.14552   0.16020   0.16682
 Alpha virt. eigenvalues --    0.17902   0.18659   0.19208   0.19941
  Beta  occ. eigenvalues --   -1.45275  -1.38097  -1.16762  -1.13304  -0.86945
  Beta  occ. eigenvalues --   -0.82480  -0.65965  -0.60100  -0.59396  -0.54774
  Beta  occ. eigenvalues --   -0.53123  -0.49443  -0.47164  -0.46042  -0.44242
  Beta  occ. eigenvalues --   -0.37878  -0.36607
  Beta virt. eigenvalues --    0.00335   0.00507   0.02494   0.05600   0.09731
  Beta virt. eigenvalues --    0.12869   0.13523   0.14249   0.14871   0.16294
  Beta virt. eigenvalues --    0.16915   0.18138   0.18566   0.20122   0.21137
          Condensed to atoms (all electrons):
               1          2          3          4          5          6
     1  C    4.114582   0.000000   0.000000   0.000000   0.000000   0.000000
     2  C    0.000000   4.066201   0.000000   0.000000   0.000000   0.000000
     3  C    0.000000   0.000000   4.121158   0.000000   0.000000   0.000000
     4  C    0.000000   0.000000   0.000000   4.116356   0.000000   0.000000
     5  C    0.000000   0.000000   0.000000   0.000000   4.138211   0.000000
     6  C    0.000000   0.000000   0.000000   0.000000   0.000000   4.061523
     7  Cl   0.000000   0.000000   0.000000   0.000000   0.000000   0.000000
     8  H    0.000000   0.000000   0.000000   0.000000   0.000000   0.000000
     9  H    0.000000   0.000000   0.000000   0.000000   0.000000   0.000000
    10  H    0.000000   0.000000   0.000000   0.000000   0.000000   0.000000
    11  H    0.000000   0.000000   0.000000   0.000000   0.000000   0.000000
               7          8          9         10         11
     1  C    0.000000   0.000000   0.000000   0.000000   0.000000
     2  C    0.000000   0.000000   0.000000   0.000000   0.000000
     3  C    0.000000   0.000000   0.000000   0.000000   0.000000
     4  C    0.000000   0.000000   0.000000   0.000000   0.000000
     5  C    0.000000   0.000000   0.000000   0.000000   0.000000
     6  C    0.000000   0.000000   0.000000   0.000000   0.000000
     7  Cl   7.002827   0.000000   0.000000   0.000000   0.000000
     8  H    0.000000   0.831238   0.000000   0.000000   0.000000
     9  H    0.000000   0.000000   0.840940   0.000000   0.000000
    10  H    0.000000   0.000000   0.000000   0.856561   0.000000
    11  H    0.000000   0.000000   0.000000   0.000000   0.850404
          Atomic-Atomic Spin Densities.
               1          2          3          4          5          6
     1  C   -0.476822   0.000000   0.000000   0.000000   0.000000   0.000000
     2  C    0.000000   1.359531   0.000000   0.000000   0.000000   0.000000
     3  C    0.000000   0.000000  -0.469854   0.000000   0.000000   0.000000
     4  C    0.000000   0.000000   0.000000   0.474081   0.000000   0.000000
     5  C    0.000000   0.000000   0.000000   0.000000  -0.445329   0.000000
     6  C    0.000000   0.000000   0.000000   0.000000   0.000000   0.473532
     7  Cl   0.000000   0.000000   0.000000   0.000000   0.000000   0.000000
     8  H    0.000000   0.000000   0.000000   0.000000   0.000000   0.000000
     9  H    0.000000   0.000000   0.000000   0.000000   0.000000   0.000000
    10  H    0.000000   0.000000   0.000000   0.000000   0.000000   0.000000
    11  H    0.000000   0.000000   0.000000   0.000000   0.000000   0.000000
               7          8          9         10         11
     1  C    0.000000   0.000000   0.000000   0.000000   0.000000
     2  C    0.000000   0.000000   0.000000   0.000000   0.000000
     3  C    0.000000   0.000000   0.000000   0.000000   0.000000
     4  C    0.000000   0.000000   0.000000   0.000000   0.000000
     5  C    0.000000   0.000000   0.000000   0.000000   0.000000
     6  C    0.000000   0.000000   0.000000   0.000000   0.000000
     7  Cl   0.012801   0.000000   0.000000   0.000000   0.000000
     8  H    0.000000   0.032059   0.000000   0.000000   0.000000
     9  H    0.000000   0.000000   0.031294   0.000000   0.000000
    10  H    0.000000   0.000000   0.000000  -0.017854   0.000000
    11  H    0.000000   0.000000   0.000000   0.000000   0.026561
 Mulliken charges and spin densities:
               1          2
     1  C   -0.114582  -0.476822
     2  C   -0.066201   1.359531
     3  C   -0.121158  -0.469854
     4  C   -0.116356   0.474081
     5  C   -0.138211  -0.445329
     6  C   -0.061523   0.473532
     7  Cl  -0.002827   0.012801
     8  H    0.168762   0.032059
     9  H    0.159060   0.031294
    10  H    0.143439  -0.017854
    11  H    0.149596   0.026561
 Sum of Mulliken charges =  -0.00000   1.00000
 Mulliken charges and spin densities with hydrogens summed into heavy atoms:
               1          2
     1  C    0.054180  -0.444764
     2  C   -0.066201   1.359531
     3  C    0.037902  -0.438560
     4  C    0.027083   0.456228
     5  C    0.011385  -0.418768
     6  C   -0.061523   0.473532
     7  Cl  -0.002827   0.012801
 Charge=              0.0000 electrons
 Dipole moment (field-independent basis, Debye):
    X=              0.8119    Y=             -0.7734    Z=              0.0000  Tot=              1.1213
 N-N= 1.532268730566D+02 E-N=-2.121845647058D+02  KE=-6.881003597567D+01
 Symmetry A'   KE=-5.400696826875D+01
 Symmetry A"   KE=-1.480306770692D+01
 Symmetry A'   SP= 1.000000000000D+00
 Symmetry A"   SP=-1.776356839400D-15
 1\1\GINC-SH02-01N03\FOpt\UAM1\ZDO\C6H4Cl1(2)\JLAPIER\10-Dec-2025\0\\# 
 opt am1 SCF=XQC\\Neutral Radical (removed 3) 1_\\0,2\C,-3.1829129768,0
 .1822227401,0.\C,-1.9572635472,0.7945512736,0.\C,-0.7049139688,0.23652
 79708,0.\C,-0.6858751979,-1.1719699598,0.\C,-1.8873415347,-1.893093221
 9,0.\C,-3.1287904396,-1.2299902427,0.\Cl,-4.5666141288,-2.1257725159,0
 .\H,-4.1297800808,0.735587288,0.\H,0.2139282477,0.834247003,0.\H,0.273
 8462117,-1.7071970618,0.\H,-1.8590025849,-2.9933432734,0.\\Version=ES6
 4L-G16RevB.01\State=2-A'\HF=0.1051855\S2=1.198058\S2-1=0.\S2A=0.920849
 \RMSD=4.085e-09\RMSF=1.091e-05\Dipole=0.4120663,-0.1574991,0.\PG=CS [S
 G(C6H4Cl1)]\\@


 REALITY IS FOR PEOPLE WHO CAN'T FACE SCIENCE FICTION.
 Job cpu time:       0 days  0 hours  0 minutes  9.5 seconds.
 Elapsed time:       0 days  0 hours  0 minutes 18.2 seconds.
 File lengths (MBytes):  RWF=     10 Int=      0 D2E=      0 Chk=      2 Scr=      1
 Normal termination of Gaussian 16 at Wed Dec 10 10:42:02 2025.
