 Entering Gaussian System, Link 0=g16
 Initial command:
 /share/software/user/restricted/gaussian/g16.B01/l1.exe "/home/users/jlapier/Chloroaromatics/Gau-18940.inp" -scrdir="/home/users/jlapier/Chloroaromatics/"
 Entering Link 1 = /share/software/user/restricted/gaussian/g16.B01/l1.exe PID=     18941.
  
 Copyright (c) 1988-2017, Gaussian, Inc.  All Rights Reserved.
  
 This is part of the Gaussian(R) 16 program.  It is based on
 the Gaussian(R) 09 system (copyright 2009, Gaussian, Inc.),
 the Gaussian(R) 03 system (copyright 2003, Gaussian, Inc.),
 the Gaussian(R) 98 system (copyright 1998, Gaussian, Inc.),
 the Gaussian(R) 94 system (copyright 1995, Gaussian, Inc.),
 the Gaussian 92(TM) system (copyright 1992, Gaussian, Inc.),
 the Gaussian 90(TM) system (copyright 1990, Gaussian, Inc.),
 the Gaussian 88(TM) system (copyright 1988, Gaussian, Inc.),
 the Gaussian 86(TM) system (copyright 1986, Carnegie Mellon
 University), and the Gaussian 82(TM) system (copyright 1983,
 Carnegie Mellon University). Gaussian is a federally registered
 trademark of Gaussian, Inc.
  
 This software contains proprietary and confidential information,
 including trade secrets, belonging to Gaussian, Inc.
  
 This software is provided under written license and may be
 used, copied, transmitted, or stored only in accord with that
 written license.
  
 The following legend is applicable only to US Government
 contracts under FAR:
  
                    RESTRICTED RIGHTS LEGEND
  
 Use, reproduction and disclosure by the US Government is
 subject to restrictions as set forth in subparagraphs (a)
 and (c) of the Commercial Computer Software - Restricted
 Rights clause in FAR 52.227-19.
  
 Gaussian, Inc.
 340 Quinnipiac St., Bldg. 40, Wallingford CT 06492
  
  
 ---------------------------------------------------------------
 Warning -- This program may not be used in any manner that
 competes with the business of Gaussian, Inc. or will provide
 assistance to any competitor of Gaussian, Inc.  The licensee
 of this program is prohibited from giving any competitor of
 Gaussian, Inc. access to this program.  By using this program,
 the user acknowledges that Gaussian, Inc. is engaged in the
 business of creating and licensing software in the field of
 computational chemistry and represents and warrants to the
 licensee that it is not a competitor of Gaussian, Inc. and that
 it will not use this program in any manner prohibited above.
 ---------------------------------------------------------------
  

 Cite this work as:
 Gaussian 16, Revision B.01,
 M. J. Frisch, G. W. Trucks, H. B. Schlegel, G. E. Scuseria, 
 M. A. Robb, J. R. Cheeseman, G. Scalmani, V. Barone, 
 G. A. Petersson, H. Nakatsuji, X. Li, M. Caricato, A. V. Marenich, 
 J. Bloino, B. G. Janesko, R. Gomperts, B. Mennucci, H. P. Hratchian, 
 J. V. Ortiz, A. F. Izmaylov, J. L. Sonnenberg, D. Williams-Young, 
 F. Ding, F. Lipparini, F. Egidi, J. Goings, B. Peng, A. Petrone, 
 T. Henderson, D. Ranasinghe, V. G. Zakrzewski, J. Gao, N. Rega, 
 G. Zheng, W. Liang, M. Hada, M. Ehara, K. Toyota, R. Fukuda, 
 J. Hasegawa, M. Ishida, T. Nakajima, Y. Honda, O. Kitao, H. Nakai, 
 T. Vreven, K. Throssell, J. A. Montgomery, Jr., J. E. Peralta, 
 F. Ogliaro, M. J. Bearpark, J. J. Heyd, E. N. Brothers, K. N. Kudin, 
 V. N. Staroverov, T. A. Keith, R. Kobayashi, J. Normand, 
 K. Raghavachari, A. P. Rendell, J. C. Burant, S. S. Iyengar, 
 J. Tomasi, M. Cossi, J. M. Millam, M. Klene, C. Adamo, R. Cammi, 
 J. W. Ochterski, R. L. Martin, K. Morokuma, O. Farkas, 
 J. B. Foresman, and D. J. Fox, Gaussian, Inc., Wallingford CT, 2016.
 
 ******************************************
 Gaussian 16:  ES64L-G16RevB.01 20-Dec-2017
                 8-Dec-2025 
 ******************************************
 %mem=2GB
 %nprocshare=1
 Will use up to    1 processors via shared memory.
 %chk=geometry_chks/135ClBzAnionRadical.chk
 ------------------
 # opt am1 pop=None
 ------------------
 1/18=20,19=15,26=1,38=1/1,3;
 2/9=110,12=2,17=6,18=5,40=1/2;
 3/5=2,25=1,41=700000,71=1/1,2,3;
 4/35=1/1;
 5/5=2,35=1,38=5/2;
 7//1,2,3,16;
 1/18=20,19=15,26=1/3(2);
 2/9=110/2;
 99//99;
 2/9=110/2;
 3/5=2,25=1,41=700000,71=1,135=20/1,2,3;
 4/5=5,16=3,35=1/1;
 5/5=2,35=1,38=5/2;
 7//1,2,3,16;
 1/18=20,19=15,26=1/3(-5);
 2/9=110/2;
 99/9=1/99;
 ------------------------------------
 3-Chloro-Benzene Anion Radical (135)
 ------------------------------------
 Symbolic Z-matrix:
 Charge = -1 Multiplicity = 2
 C                    -3.20928   0.19943   0. 
 C                    -2.0115    0.93555   0. 
 C                    -0.77511   0.2663    0. 
 C                    -0.7365   -1.13907   0. 
 C                    -1.93429  -1.87519   0. 
 C                    -3.17067  -1.20594   0. 
 Cl                   -4.67483  -2.13035   0. 
 H                    -4.76193   1.03987   0. 
 Cl                    0.81614  -1.97951   0. 
 H                    -1.8858   -3.64003   0. 
 Cl                   -2.05998   2.7004    0. 
 H                     0.72905   1.19071   0. 
 
 Add virtual bond connecting atoms H10        and C5         Dist= 3.34D+00.
 Add virtual bond connecting atoms H12        and C3         Dist= 3.34D+00.
 Add virtual bond connecting atoms H8         and C1         Dist= 3.34D+00.

 GradGradGradGradGradGradGradGradGradGradGradGradGradGradGradGradGradGrad
 Berny optimization.
 Initialization pass.
                           ----------------------------
                           !    Initial Parameters    !
                           ! (Angstroms and Degrees)  !
 --------------------------                            --------------------------
 ! Name  Definition              Value          Derivative Info.                !
 --------------------------------------------------------------------------------
 ! R1    R(1,2)                  1.4059         estimate D2E/DX2                !
 ! R2    R(1,6)                  1.4059         estimate D2E/DX2                !
 ! R3    R(1,8)                  1.7655         estimate D2E/DX2                !
 ! R4    R(2,3)                  1.4059         estimate D2E/DX2                !
 ! R5    R(2,11)                 1.7655         estimate D2E/DX2                !
 ! R6    R(3,4)                  1.4059         estimate D2E/DX2                !
 ! R7    R(3,12)                 1.7655         estimate D2E/DX2                !
 ! R8    R(4,5)                  1.4059         estimate D2E/DX2                !
 ! R9    R(4,9)                  1.7655         estimate D2E/DX2                !
 ! R10   R(5,6)                  1.4059         estimate D2E/DX2                !
 ! R11   R(5,10)                 1.7655         estimate D2E/DX2                !
 ! R12   R(6,7)                  1.7655         estimate D2E/DX2                !
 ! A1    A(2,1,6)              119.9999         estimate D2E/DX2                !
 ! A2    A(2,1,8)              119.9999         estimate D2E/DX2                !
 ! A3    A(6,1,8)              120.0001         estimate D2E/DX2                !
 ! A4    A(1,2,3)              120.0            estimate D2E/DX2                !
 ! A5    A(1,2,11)             120.0001         estimate D2E/DX2                !
 ! A6    A(3,2,11)             119.9999         estimate D2E/DX2                !
 ! A7    A(2,3,4)              120.0001         estimate D2E/DX2                !
 ! A8    A(2,3,12)             120.0            estimate D2E/DX2                !
 ! A9    A(4,3,12)             119.9999         estimate D2E/DX2                !
 ! A10   A(3,4,5)              119.9997         estimate D2E/DX2                !
 ! A11   A(3,4,9)              120.0003         estimate D2E/DX2                !
 ! A12   A(5,4,9)              120.0            estimate D2E/DX2                !
 ! A13   A(4,5,6)              120.0            estimate D2E/DX2                !
 ! A14   A(4,5,10)             119.9996         estimate D2E/DX2                !
 ! A15   A(6,5,10)             120.0004         estimate D2E/DX2                !
 ! A16   A(1,6,5)              120.0003         estimate D2E/DX2                !
 ! A17   A(1,6,7)              119.9999         estimate D2E/DX2                !
 ! A18   A(5,6,7)              119.9998         estimate D2E/DX2                !
 ! D1    D(6,1,2,3)              0.0            estimate D2E/DX2                !
 ! D2    D(6,1,2,11)           180.0            estimate D2E/DX2                !
 ! D3    D(8,1,2,3)            180.0            estimate D2E/DX2                !
 ! D4    D(8,1,2,11)             0.0            estimate D2E/DX2                !
 ! D5    D(2,1,6,5)              0.0            estimate D2E/DX2                !
 ! D6    D(2,1,6,7)            180.0            estimate D2E/DX2                !
 ! D7    D(8,1,6,5)            180.0            estimate D2E/DX2                !
 ! D8    D(8,1,6,7)              0.0            estimate D2E/DX2                !
 ! D9    D(1,2,3,4)              0.0            estimate D2E/DX2                !
 ! D10   D(1,2,3,12)           180.0            estimate D2E/DX2                !
 ! D11   D(11,2,3,4)           180.0            estimate D2E/DX2                !
 ! D12   D(11,2,3,12)            0.0            estimate D2E/DX2                !
 ! D13   D(2,3,4,5)              0.0            estimate D2E/DX2                !
 ! D14   D(2,3,4,9)            180.0            estimate D2E/DX2                !
 ! D15   D(12,3,4,5)           180.0            estimate D2E/DX2                !
 ! D16   D(12,3,4,9)             0.0            estimate D2E/DX2                !
 ! D17   D(3,4,5,6)              0.0            estimate D2E/DX2                !
 ! D18   D(3,4,5,10)           180.0            estimate D2E/DX2                !
 ! D19   D(9,4,5,6)            180.0            estimate D2E/DX2                !
 ! D20   D(9,4,5,10)             0.0            estimate D2E/DX2                !
 ! D21   D(4,5,6,1)              0.0            estimate D2E/DX2                !
 ! D22   D(4,5,6,7)            180.0            estimate D2E/DX2                !
 ! D23   D(10,5,6,1)           180.0            estimate D2E/DX2                !
 ! D24   D(10,5,6,7)             0.0            estimate D2E/DX2                !
 --------------------------------------------------------------------------------
 Trust Radius=3.00D-01 FncErr=1.00D-07 GrdErr=1.00D-07 EigMax=2.50D+02 EigMin=1.00D-04
 Number of steps in this run=     64 maximum allowed number of steps=    100.
 GradGradGradGradGradGradGradGradGradGradGradGradGradGradGradGradGradGrad

                          Input orientation:                          
 ---------------------------------------------------------------------
 Center     Atomic      Atomic             Coordinates (Angstroms)
 Number     Number       Type             X           Y           Z
 ---------------------------------------------------------------------
      1          6           0       -3.209280    0.199430    0.000000
      2          6           0       -2.011500    0.935550    0.000000
      3          6           0       -0.775110    0.266300    0.000000
      4          6           0       -0.736500   -1.139070    0.000000
      5          6           0       -1.934290   -1.875190    0.000000
      6          6           0       -3.170670   -1.205940    0.000000
      7         17           0       -4.674830   -2.130350    0.000000
      8          1           0       -4.761930    1.039870    0.000000
      9         17           0        0.816140   -1.979510    0.000000
     10          1           0       -1.885800   -3.640030    0.000000
     11         17           0       -2.059980    2.700400    0.000000
     12          1           0        0.729050    1.190710    0.000000
 ---------------------------------------------------------------------
                    Distance matrix (angstroms):
                    1          2          3          4          5
     1  C    0.000000
     2  C    1.405898   0.000000
     3  C    2.435088   1.405900   0.000000
     4  C    2.811801   2.435092   1.405900   0.000000
     5  C    2.435087   2.811800   2.435093   1.405907   0.000000
     6  C    1.405900   2.435088   2.811796   2.435088   1.405892
     7  Cl   2.752401   4.061166   4.577308   4.061167   2.752393
     8  H    1.765520   2.752408   4.061175   4.577321   4.061173
     9  Cl   4.577312   4.061173   2.752406   1.765511   2.752408
    10  H    4.061164   4.577306   4.061163   2.752397   1.765506
    11  Cl   2.752406   1.765516   2.752405   4.061173   4.577316
    12  H    4.061167   2.752403   1.765512   2.752401   4.061173
                    6          7          8          9         10
     6  C    0.000000
     7  Cl   1.765512   0.000000
     8  H    2.752412   3.171416   0.000000
     9  Cl   4.061165   5.493041   6.342832   0.000000
    10  H    2.752396   3.171407   5.493049   3.171404   0.000000
    11  Cl   4.061173   5.493049   3.171418   5.493052   6.342822
    12  H    4.577308   6.342819   5.493051   3.171416   5.493040
                   11         12
    11  Cl   0.000000
    12  H    3.171412   0.000000
 Stoichiometry    C6H3Cl3(1-,2)
 Framework group  CS[SG(C6H3Cl3)]
 Deg. of freedom    21
 Full point group                 CS      NOp   2
 Largest Abelian subgroup         CS      NOp   2
 Largest concise Abelian subgroup C1      NOp   1
                         Standard orientation:                         
 ---------------------------------------------------------------------
 Center     Atomic      Atomic             Coordinates (Angstroms)
 Number     Number       Type             X           Y           Z
 ---------------------------------------------------------------------
      1          6           0        1.217546    0.702949    0.000000
      2          6           0        1.217546   -0.702950    0.000000
      3          6           0       -0.000001   -1.405899    0.000000
      4          6           0       -1.217547   -0.702950    0.000000
      5          6           0       -1.217541    0.702957    0.000000
      6          6           0       -0.000001    1.405898    0.000000
      7         17           0        0.000001    3.171409    0.000000
      8          1           0        2.746532    1.585707    0.000000
      9         17           0       -2.746528   -1.585700    0.000000
     10          1           0       -2.746517    1.585705    0.000000
     11         17           0        2.746525   -1.585711    0.000000
     12          1           0       -0.000002   -3.171410    0.000000
 ---------------------------------------------------------------------
 Rotational constants (GHZ):           0.8231906           0.8231872           0.4115945
 Standard basis: VSTO-6G (5D, 7F)
 There are    30 symmetry adapted cartesian basis functions of A'  symmetry.
 There are     9 symmetry adapted cartesian basis functions of A"  symmetry.
 There are    30 symmetry adapted basis functions of A'  symmetry.
 There are     9 symmetry adapted basis functions of A"  symmetry.
    39 basis functions,   234 primitive gaussians,    39 cartesian basis functions
    25 alpha electrons       24 beta electrons
       nuclear repulsion energy       244.4218496389 Hartrees.
 Integral buffers will be    131072 words long.
 Regular integral format.
 Two-electron integral symmetry is turned off.
 Do NDO integrals.
 One-electron integrals computed using PRISM.
 NBasis=    39 RedAO= T EigKep=  1.00D+00  NBF=    30     9
 NBsUse=    39 1.00D-06 EigRej= -1.00D+00 NBFU=    30     9
 Simple Huckel Guess.
 Initial guess orbital symmetries:
 Alpha Orbitals:
       Occupied  (A') (A') (A') (A') (A') (A') (A') (A') (A') (A")
                 (A') (A') (A') (A') (A") (A") (A') (A') (A") (A')
                 (A') (A') (A") (A") (A')
       Virtual   (A") (A") (A') (A') (A") (A') (A') (A') (A') (A')
                 (A') (A') (A') (A')
 Beta  Orbitals:
       Occupied  (A') (A') (A') (A') (A') (A') (A') (A') (A') (A")
                 (A') (A') (A') (A') (A") (A") (A') (A') (A") (A')
                 (A') (A') (A") (A")
       Virtual   (A') (A") (A") (A') (A') (A") (A') (A') (A') (A')
                 (A') (A') (A') (A') (A')
 The electronic state of the initial guess is 2-A'.
 Initial guess <Sx>= 0.0000 <Sy>= 0.0000 <Sz>= 0.5000 <S**2>= 0.7500 S= 0.5000
 Keep J ints in memory in canonical form, NReq=863709.
 Overlap will be assumed to be unity.
 Requested convergence on RMS density matrix=1.00D-08 within 128 cycles.
 Requested convergence on MAX density matrix=1.00D-06.
 Requested convergence on             energy=1.00D-06.
 No special actions if energy rises.
 Fock symm off for IB=2 I1=    1 I=   31 J=   11 Cut=1.00D-07 Err=2.22D-03
 Fock matrix is not symmetric: symmetry in diagonalization turned off.
 Rare condition: small coef for last iteration:  0.000D+00
 Rare condition: small coef for last iteration:  0.000D+00
 Rare condition: small coef for last iteration:  0.000D+00
 Rare condition: small coef for last iteration:  0.000D+00
 SCF Done:  E(UAM1) =  0.330948395058     A.U. after   48 cycles
            NFock= 47  Conv=0.77D-08     -V/T= 1.0029
 <Sx>= 0.0000 <Sy>= 0.0000 <Sz>= 0.5000 <S**2>= 1.8488 S= 0.9487
 <L.S>=  0.00000000000    
 Annihilation of the first spin contaminant:
 S**2 before annihilation     1.8488,   after     2.3683
 Calling FoFJK, ICntrl=      2127 FMM=F ISym2X=1 I1Cent= 0 IOpClX= 1 NMat=1 NMatS=1 NMatT=0.
 ***** Axes restored to original set *****
 -------------------------------------------------------------------
 Center     Atomic                   Forces (Hartrees/Bohr)
 Number     Number              X              Y              Z
 -------------------------------------------------------------------
      1        6          -0.026856601    0.014537929   -0.000000000
      2        6          -0.000135642    0.004951152    0.000000000
      3        6           0.026014623    0.015983711    0.000000000
      4        6           0.004346344   -0.002355612    0.000000000
      5        6           0.000850503   -0.030519639    0.000000000
      6        6          -0.004223249   -0.002590214    0.000000000
      7       17           0.025846797    0.015885463    0.000000000
      8        1           0.053103582   -0.028744596   -0.000000000
      9       17          -0.026681421    0.014442781   -0.000000000
     10        1          -0.001658486    0.060351187   -0.000000000
     11       17           0.000832772   -0.030329570   -0.000000000
     12        1          -0.051439222   -0.031612591   -0.000000000
 -------------------------------------------------------------------
 Cartesian Forces:  Max     0.060351187 RMS     0.021453204

 GradGradGradGradGradGradGradGradGradGradGradGradGradGradGradGradGradGrad
 Berny optimization.
 FormGI is forming the generalized inverse of G from B-inverse, IUseBI=4.
 Internal  Forces:  Max     0.060384123 RMS     0.018401798
 Search for a local minimum.
 Step number   1 out of a maximum of   64
 All quantities printed in internal units (Hartrees-Bohrs-Radians)
 Mixed Optimization -- RFO/linear search
 Second derivative matrix not updated -- first step.
 ITU=  0
     Eigenvalues ---    0.02011   0.02011   0.02011   0.02011   0.02011
     Eigenvalues ---    0.02011   0.02011   0.02011   0.02011   0.06524
     Eigenvalues ---    0.06524   0.06524   0.16000   0.16000   0.16000
     Eigenvalues ---    0.23477   0.23477   0.23500   0.25000   0.25000
     Eigenvalues ---    0.25000   0.29033   0.29033   0.29033   0.40971
     Eigenvalues ---    0.40971   0.44656   0.44657   0.44657   0.44657
 RFO step:  Lambda=-8.75110159D-02 EMin= 2.01065826D-02
 Linear search not attempted -- first point.
 Maximum step size (   0.300) exceeded in Quadratic search.
    -- Step size scaled by   0.422
 Iteration  1 RMS(Cart)=  0.04716178 RMS(Int)=  0.00000505
 Iteration  2 RMS(Cart)=  0.00000444 RMS(Int)=  0.00000000
 Iteration  3 RMS(Cart)=  0.00000000 RMS(Int)=  0.00000000
 ClnCor:  largest displacement from symmetrization is 1.08D-12 for atom     9.
 Variable       Old X    -DE/DX   Delta X   Delta X   Delta X     New X
                                 (Linear)    (Quad)   (Total)
    R1        2.65676  -0.02762   0.00000  -0.02185  -0.02185   2.63492
    R2        2.65677  -0.02762   0.00000  -0.02185  -0.02185   2.63492
    R3        3.33635  -0.06038   0.00000  -0.16701  -0.16701   3.16934
    R4        2.65677  -0.02762   0.00000  -0.02185  -0.02185   2.63492
    R5        3.33634  -0.03034   0.00000  -0.03393  -0.03393   3.30242
    R6        2.65677  -0.02762   0.00000  -0.02185  -0.02185   2.63492
    R7        3.33633  -0.06038   0.00000  -0.16699  -0.16699   3.16934
    R8        2.65678  -0.02762   0.00000  -0.02185  -0.02185   2.63493
    R9        3.33633  -0.03034   0.00000  -0.03392  -0.03392   3.30241
   R10        2.65675  -0.02761   0.00000  -0.02184  -0.02184   2.63491
   R11        3.33632  -0.06037   0.00000  -0.16698  -0.16698   3.16934
   R12        3.33633  -0.03034   0.00000  -0.03392  -0.03392   3.30241
    A1        2.09439   0.00114   0.00000   0.00149   0.00149   2.09589
    A2        2.09439  -0.00057   0.00000  -0.00075  -0.00075   2.09365
    A3        2.09440  -0.00057   0.00000  -0.00075  -0.00075   2.09365
    A4        2.09439  -0.00114   0.00000  -0.00149  -0.00149   2.09290
    A5        2.09440   0.00057   0.00000   0.00075   0.00075   2.09514
    A6        2.09439   0.00057   0.00000   0.00075   0.00075   2.09514
    A7        2.09440   0.00114   0.00000   0.00149   0.00149   2.09589
    A8        2.09440  -0.00057   0.00000  -0.00075  -0.00075   2.09365
    A9        2.09439  -0.00057   0.00000  -0.00074  -0.00074   2.09365
   A10        2.09439  -0.00114   0.00000  -0.00149  -0.00149   2.09290
   A11        2.09440   0.00057   0.00000   0.00074   0.00074   2.09514
   A12        2.09440   0.00057   0.00000   0.00074   0.00074   2.09514
   A13        2.09439   0.00114   0.00000   0.00149   0.00149   2.09589
   A14        2.09439  -0.00057   0.00000  -0.00074  -0.00074   2.09364
   A15        2.09440  -0.00057   0.00000  -0.00075  -0.00075   2.09366
   A16        2.09440  -0.00114   0.00000  -0.00149  -0.00149   2.09291
   A17        2.09439   0.00057   0.00000   0.00075   0.00075   2.09514
   A18        2.09439   0.00057   0.00000   0.00075   0.00075   2.09514
    D1        0.00000   0.00000   0.00000   0.00000   0.00000   0.00000
    D2        3.14159  -0.00000   0.00000  -0.00000   0.00000   3.14159
    D3        3.14159   0.00000   0.00000   0.00000   0.00000   3.14159
    D4        0.00000  -0.00000   0.00000  -0.00000   0.00000   0.00000
    D5        0.00000  -0.00000   0.00000  -0.00000   0.00000   0.00000
    D6        3.14159   0.00000   0.00000   0.00000   0.00000   3.14159
    D7        3.14159  -0.00000   0.00000  -0.00000   0.00000   3.14159
    D8        0.00000  -0.00000   0.00000  -0.00000   0.00000   0.00000
    D9        0.00000   0.00000   0.00000  -0.00000   0.00000   0.00000
   D10        3.14159  -0.00000   0.00000  -0.00000   0.00000   3.14159
   D11        3.14159   0.00000   0.00000   0.00000   0.00000   3.14159
   D12        0.00000  -0.00000   0.00000  -0.00000   0.00000   0.00000
   D13        0.00000  -0.00000   0.00000   0.00000   0.00000   0.00000
   D14        3.14159  -0.00000   0.00000  -0.00000   0.00000   3.14159
   D15        3.14159   0.00000   0.00000   0.00000   0.00000   3.14159
   D16        0.00000   0.00000   0.00000   0.00000   0.00000   0.00000
   D17        0.00000  -0.00000   0.00000  -0.00000   0.00000   0.00000
   D18        3.14159  -0.00000   0.00000  -0.00000   0.00000   3.14159
   D19        3.14159   0.00000   0.00000   0.00000   0.00000   3.14159
   D20        0.00000  -0.00000   0.00000  -0.00000   0.00000   0.00000
   D21        0.00000   0.00000   0.00000   0.00000   0.00000   0.00000
   D22        3.14159  -0.00000   0.00000  -0.00000   0.00000   3.14159
   D23        3.14159   0.00000   0.00000   0.00000   0.00000   3.14159
   D24        0.00000   0.00000   0.00000   0.00000   0.00000   0.00000
         Item               Value     Threshold  Converged?
 Maximum Force            0.060384     0.000450     NO 
 RMS     Force            0.018402     0.000300     NO 
 Maximum Displacement     0.189894     0.001800     NO 
 RMS     Displacement     0.047161     0.001200     NO 
 Predicted change in Energy=-3.309988D-02
 GradGradGradGradGradGradGradGradGradGradGradGradGradGradGradGradGradGrad

                          Input orientation:                          
 ---------------------------------------------------------------------
 Center     Atomic      Atomic             Coordinates (Angstroms)
 Number     Number       Type             X           Y           Z
 ---------------------------------------------------------------------
      1          6           0       -3.198585    0.193642    0.000000
      2          6           0       -2.011199    0.924595    0.000000
      3          6           0       -0.785472    0.259933    0.000000
      4          6           0       -0.746141   -1.133851    0.000000
      5          6           0       -1.934623   -1.863033    0.000000
      6          6           0       -3.161334   -1.200201    0.000000
      7         17           0       -4.650202   -2.115209    0.000000
      8          1           0       -4.673511    0.992011    0.000000
      9         17           0        0.790713   -1.965745    0.000000
     10          1           0       -1.888559   -3.539542    0.000000
     11         17           0       -2.059187    2.671499    0.000000
     12          1           0        0.643401    1.138073    0.000000
 ---------------------------------------------------------------------
                    Distance matrix (angstroms):
                    1          2          3          4          5
     1  C    0.000000
     2  C    1.394338   0.000000
     3  C    2.414024   1.394340   0.000000
     4  C    2.788677   2.416107   1.394339   0.000000
     5  C    2.414024   2.788680   2.414028   1.394344   0.000000
     6  C    1.394340   2.416105   2.788675   2.416104   1.394334
     7  Cl   2.727267   4.025512   4.536236   4.025513   2.727263
     8  H    1.677140   2.663165   3.956360   4.465817   3.956360
     9  Cl   4.536237   4.025515   2.727269   1.747560   2.727270
    10  H    3.956366   4.465821   3.956363   2.663169   1.677142
    11  Cl   2.727270   1.747563   2.727270   4.025516   4.536243
    12  H    3.956363   2.663170   1.677143   2.663169   3.956368
                    6          7          8          9         10
     6  C    0.000000
     7  Cl   1.747561   0.000000
     8  H    2.663169   3.107308   0.000000
     9  Cl   4.025510   5.442967   6.213377   0.000000
    10  H    2.663170   3.107314   5.318922   3.107303   0.000000
    11  Cl   4.025517   5.442971   3.107308   5.442973   6.213384
    12  H    4.465818   6.213379   5.318917   3.107312   5.318920
                   11         12
    11  Cl   0.000000
    12  H    3.107310   0.000000
 Stoichiometry    C6H3Cl3(1-,2)
 Framework group  CS[SG(C6H3Cl3)]
 Deg. of freedom    21
 Full point group                 CS      NOp   2
 Largest Abelian subgroup         CS      NOp   2
 Largest concise Abelian subgroup C1      NOp   1
                         Standard orientation:                         
 ---------------------------------------------------------------------
 Center     Atomic      Atomic             Coordinates (Angstroms)
 Number     Number       Type             X           Y           Z
 ---------------------------------------------------------------------
      1          6           0        1.207012   -0.696868    0.000000
      2          6           0        0.000002   -1.394940    0.000000
      3          6           0       -1.207011   -0.696870    0.000000
      4          6           0       -1.208054    0.697469    0.000000
      5          6           0        0.000002    1.393740    0.000000
      6          6           0        1.208050    0.697472    0.000000
      7         17           0        2.721482    1.571251    0.000000
      8          1           0        2.659458   -1.535437    0.000000
      9         17           0       -2.721485    1.571250    0.000000
     10          1           0       -0.000007    3.070882    0.000000
     11         17           0        0.000003   -3.142503    0.000000
     12          1           0       -2.659459   -1.535443    0.000000
 ---------------------------------------------------------------------
 Rotational constants (GHZ):           0.8391680           0.8391659           0.4195835
 Standard basis: VSTO-6G (5D, 7F)
 There are    30 symmetry adapted cartesian basis functions of A'  symmetry.
 There are     9 symmetry adapted cartesian basis functions of A"  symmetry.
 There are    30 symmetry adapted basis functions of A'  symmetry.
 There are     9 symmetry adapted basis functions of A"  symmetry.
    39 basis functions,   234 primitive gaussians,    39 cartesian basis functions
    25 alpha electrons       24 beta electrons
       nuclear repulsion energy       246.1248290191 Hartrees.
 Integral buffers will be    131072 words long.
 Regular integral format.
 Two-electron integral symmetry is turned off.
 Do NDO integrals.
 One-electron integrals computed using PRISM.
 NBasis=    39 RedAO= T EigKep=  1.00D+00  NBF=    30     9
 NBsUse=    39 1.00D-06 EigRej= -1.00D+00 NBFU=    30     9
 Initial guess from the checkpoint file:  "geometry_chks/135ClBzAnionRadical.chk"
 B after Tr=     0.000000    0.000000    0.000000
         Rot=    0.866026    0.000000    0.000000    0.499999 Ang=  60.00 deg.
 Initial guess orbital symmetries:
 Alpha Orbitals:
       Occupied  (A') (A') (A') (A') (A') (A') (A') (A') (A') (A')
                 (A') (A') (A") (A") (A") (A') (A') (A') (A') (A")
                 (A') (A') (A") (A") (A')
       Virtual   (A') (A') (A') (A") (A") (A') (A') (A") (A') (A')
                 (A') (A') (A') (A')
 Beta  Orbitals:
       Occupied  (A') (A') (A') (A') (A') (A') (A') (A') (A') (A')
                 (A') (A') (A") (A") (A") (A') (A') (A') (A') (A")
                 (A') (A') (A") (A")
       Virtual   (A") (A") (A') (A') (A') (A') (A') (A') (A") (A')
                 (A') (A') (A') (A') (A')
 Initial guess <Sx>= 0.0000 <Sy>= 0.0000 <Sz>= 0.5000 <S**2>= 1.8488 S= 0.9487
 Keep J ints in memory in canonical form, NReq=863709.
 Overlap will be assumed to be unity.
 Requested convergence on RMS density matrix=1.00D-08 within 128 cycles.
 Requested convergence on MAX density matrix=1.00D-06.
 Requested convergence on             energy=1.00D-06.
 No special actions if energy rises.
 Fock symm off for IB=2 I1=    1 I=   31 J=   22 Cut=1.00D-07 Err=3.56D-03
 Fock matrix is not symmetric: symmetry in diagonalization turned off.
 SCF Done:  E(UAM1) =  0.292028670870     A.U. after   38 cycles
            NFock= 37  Conv=0.90D-08     -V/T= 1.0026
 <Sx>= 0.0000 <Sy>= 0.0000 <Sz>= 0.5000 <S**2>= 1.3765 S= 0.7754
 <L.S>=  0.00000000000    
 Annihilation of the first spin contaminant:
 S**2 before annihilation     1.3765,   after     1.2126
 Calling FoFJK, ICntrl=      2127 FMM=F ISym2X=1 I1Cent= 0 IOpClX= 1 NMat=1 NMatS=1 NMatT=0.
 ***** Axes restored to original set *****
 -------------------------------------------------------------------
 Center     Atomic                   Forces (Hartrees/Bohr)
 Number     Number              X              Y              Z
 -------------------------------------------------------------------
      1        6          -0.051550522    0.027904213    0.000000000
      2        6          -0.000223520    0.008160719    0.000000000
      3        6           0.049940795    0.030691232    0.000000000
      4        6           0.007175997   -0.003886890   -0.000000000
      5        6           0.001617056   -0.058595424   -0.000000000
      6        6          -0.006958393   -0.004272753   -0.000000000
      7       17           0.016209631    0.009962013    0.000000000
      8        1           0.064930014   -0.035146340   -0.000000000
      9       17          -0.016732635    0.009057386    0.000000000
     10        1          -0.002027980    0.073804773   -0.000000000
     11       17           0.000522475   -0.019020725    0.000000000
     12        1          -0.062902917   -0.038658204   -0.000000000
 -------------------------------------------------------------------
 Cartesian Forces:  Max     0.073804773 RMS     0.027862677

 GradGradGradGradGradGradGradGradGradGradGradGradGradGradGradGradGradGrad
 Berny optimization.
 Using GEDIIS/GDIIS optimizer.
 FormGI is forming the generalized inverse of G from B-inverse, IUseBI=4.
 Internal  Forces:  Max     0.073832630 RMS     0.018494645
 Search for a local minimum.
 Step number   2 out of a maximum of   64
 All quantities printed in internal units (Hartrees-Bohrs-Radians)
 Mixed Optimization -- RFO/linear search
 Update second derivatives using D2CorX and points    1    2
 DE= -3.89D-02 DEPred=-3.31D-02 R= 1.18D+00
 TightC=F SS=  1.41D+00  RLast= 3.00D-01 DXNew= 5.0454D-01 9.0000D-01
 Trust test= 1.18D+00 RLast= 3.00D-01 DXMaxT set to 5.05D-01
 ITU=  1  0
 Use linear search instead of GDIIS.
     Eigenvalues ---   -0.33094   0.02011   0.02011   0.02011   0.02011
     Eigenvalues ---    0.02011   0.02011   0.02011   0.02011   0.02011
     Eigenvalues ---    0.03557   0.06524   0.06524   0.16000   0.16000
     Eigenvalues ---    0.16000   0.23476   0.23476   0.23497   0.25000
     Eigenvalues ---    0.25000   0.25000   0.29033   0.29033   0.34132
     Eigenvalues ---    0.40921   0.40921   0.44656   0.44657   0.44657
 RFO step:  Lambda=-3.40335454D-01 EMin=-3.30941905D-01
 I=     1 Eig=   -3.31D-01 Dot1= -3.18D-02
 I=     1 Stepn= -6.00D-01 RXN=   6.00D-01 EDone=F
 Mixed    1 eigenvectors in step.  Raw Step.Grad=  3.18D-02.
 RFO eigenvector is Hessian eigenvector with negative curvature.
 Taking step of  6.00D-01 in eigenvector direction(s).  Step.Grad=  3.71D-02.
 Skip linear search -- no minimum in search direction.
 Maximum step size (   0.505) exceeded in Quadratic search.
    -- Step size not scaled.
 Iteration  1 RMS(Cart)=  0.08600088 RMS(Int)=  0.00792867
 Iteration  2 RMS(Cart)=  0.00792077 RMS(Int)=  0.00000007
 Iteration  3 RMS(Cart)=  0.00000000 RMS(Int)=  0.00000007
 ClnCor:  largest displacement from symmetrization is 6.32D-09 for atom     9.
 Variable       Old X    -DE/DX   Delta X   Delta X   Delta X     New X
                                 (Linear)    (Quad)   (Total)
    R1        2.63492  -0.01304   0.00000   0.14824   0.14824   2.78316
    R2        2.63492  -0.01304   0.00000   0.14823   0.14823   2.78315
    R3        3.16934  -0.07383   0.00000  -0.23352  -0.23352   2.93581
    R4        2.63492  -0.01304   0.00000   0.14824   0.14824   2.78316
    R5        3.30242  -0.01903   0.00000   0.14651   0.14651   3.44892
    R6        2.63492  -0.01304   0.00000   0.14825   0.14825   2.78317
    R7        3.16934  -0.07383   0.00000  -0.23367  -0.23367   2.93567
    R8        2.63493  -0.01304   0.00000   0.14826   0.14826   2.78318
    R9        3.30241  -0.01903   0.00000   0.14650   0.14650   3.44891
   R10        2.63491  -0.01303   0.00000   0.14821   0.14821   2.78312
   R11        3.16934  -0.07383   0.00000  -0.23372  -0.23372   2.93561
   R12        3.30241  -0.01903   0.00000   0.14649   0.14649   3.44890
    A1        2.09589   0.00111   0.00000  -0.00081  -0.00081   2.09508
    A2        2.09365  -0.00056   0.00000   0.00041   0.00041   2.09405
    A3        2.09365  -0.00056   0.00000   0.00040   0.00040   2.09405
    A4        2.09290  -0.00111   0.00000   0.00080   0.00080   2.09370
    A5        2.09514   0.00056   0.00000  -0.00039  -0.00039   2.09475
    A6        2.09514   0.00056   0.00000  -0.00041  -0.00041   2.09473
    A7        2.09589   0.00111   0.00000  -0.00078  -0.00078   2.09511
    A8        2.09365  -0.00056   0.00000   0.00040   0.00040   2.09405
    A9        2.09365  -0.00056   0.00000   0.00038   0.00038   2.09403
   A10        2.09290  -0.00111   0.00000   0.00076   0.00076   2.09366
   A11        2.09514   0.00056   0.00000  -0.00038  -0.00038   2.09477
   A12        2.09514   0.00056   0.00000  -0.00038  -0.00038   2.09476
   A13        2.09589   0.00111   0.00000  -0.00077  -0.00077   2.09512
   A14        2.09364  -0.00056   0.00000   0.00038   0.00038   2.09402
   A15        2.09366  -0.00056   0.00000   0.00039   0.00039   2.09405
   A16        2.09291  -0.00111   0.00000   0.00080   0.00080   2.09370
   A17        2.09514   0.00056   0.00000  -0.00039  -0.00039   2.09475
   A18        2.09514   0.00056   0.00000  -0.00041  -0.00041   2.09473
    D1        0.00000   0.00000   0.00000   0.00000   0.00000   0.00000
    D2        3.14159  -0.00000   0.00000   0.00000   0.00000   3.14159
    D3        3.14159   0.00000   0.00000   0.00000   0.00000   3.14159
    D4        0.00000   0.00000   0.00000   0.00000   0.00000   0.00000
    D5        0.00000  -0.00000   0.00000   0.00000   0.00000   0.00000
    D6        3.14159  -0.00000   0.00000  -0.00000   0.00000   3.14159
    D7        3.14159  -0.00000   0.00000  -0.00000   0.00000   3.14159
    D8        0.00000  -0.00000   0.00000  -0.00000   0.00000   0.00000
    D9        0.00000  -0.00000   0.00000  -0.00000   0.00000   0.00000
   D10        3.14159  -0.00000   0.00000   0.00000   0.00000   3.14159
   D11        3.14159   0.00000   0.00000  -0.00000   0.00000   3.14159
   D12        0.00000  -0.00000   0.00000   0.00000   0.00000   0.00000
   D13        0.00000  -0.00000   0.00000   0.00000   0.00000   0.00000
   D14        3.14159  -0.00000   0.00000   0.00000   0.00000   3.14159
   D15        3.14159   0.00000   0.00000  -0.00000   0.00000   3.14159
   D16        0.00000   0.00000   0.00000   0.00000   0.00000   0.00000
   D17        0.00000   0.00000   0.00000   0.00000   0.00000   0.00000
   D18        3.14159  -0.00000   0.00000   0.00000   0.00000   3.14159
   D19        3.14159   0.00000   0.00000  -0.00000   0.00000   3.14159
   D20        0.00000  -0.00000   0.00000  -0.00000   0.00000   0.00000
   D21        0.00000   0.00000   0.00000  -0.00000   0.00000   0.00000
   D22        3.14159  -0.00000   0.00000   0.00000   0.00000   3.14159
   D23        3.14159   0.00000   0.00000  -0.00000   0.00000   3.14159
   D24        0.00000   0.00000   0.00000  -0.00000   0.00000   0.00000
         Item               Value     Threshold  Converged?
 Maximum Force            0.073833     0.000450     NO 
 RMS     Force            0.018495     0.000300     NO 
 Maximum Displacement     0.294046     0.001800     NO 
 RMS     Displacement     0.087459     0.001200     NO 
 Predicted change in Energy=-9.135315D-02
 GradGradGradGradGradGradGradGradGradGradGradGradGradGradGradGradGradGrad

                          Input orientation:                          
 ---------------------------------------------------------------------
 Center     Atomic      Atomic             Coordinates (Angstroms)
 Number     Number       Type             X           Y           Z
 ---------------------------------------------------------------------
      1          6           0       -3.267843    0.231126    0.000000
      2          6           0       -2.013344    1.002698    0.000000
      3          6           0       -0.718379    0.301160    0.000000
      4          6           0       -0.677400   -1.171059    0.000000
      5          6           0       -1.932464   -1.941740    0.000000
      6          6           0       -3.227901   -1.241114    0.000000
      7         17           0       -4.782796   -2.196741    0.000000
      8          1           0       -4.634096    0.970665    0.000000
      9         17           0        0.927626   -2.039868    0.000000
     10          1           0       -1.889804   -3.494614    0.000000
     11         17           0       -2.063444    2.827101    0.000000
     12          1           0        0.605146    1.114556    0.000000
 ---------------------------------------------------------------------
                    Distance matrix (angstroms):
                    1          2          3          4          5
     1  C    0.000000
     2  C    1.472783   0.000000
     3  C    2.550425   1.472783   0.000000
     4  C    2.945592   2.551463   1.472789   0.000000
     5  C    2.550408   2.945548   2.550412   1.472798   0.000000
     6  C    1.472782   2.551439   2.945557   2.551462   1.472763
     7  Cl   2.861751   4.231580   4.770638   4.231583   2.861715
     8  H    1.553566   2.620948   3.972541   4.499158   3.972521
     9  Cl   4.770678   4.231608   2.861773   1.825086   2.861773
    10  H    3.972421   4.499008   3.972422   2.620845   1.553460
    11  Cl   2.861759   1.825091   2.861744   4.231596   4.770640
    12  H    3.972467   2.620878   1.553490   2.620871   3.972456
                    6          7          8          9         10
     6  C    0.000000
     7  Cl   1.825081   0.000000
     8  H    2.620945   3.170895   0.000000
     9  Cl   4.231596   5.712576   6.324244   0.000000
    10  H    2.620833   3.170785   5.241170   3.170835   0.000000
    11  Cl   4.231588   5.712606   3.170900   5.712608   6.324100
    12  H    4.499047   6.324129   5.241218   3.170865   5.241109
                   11         12
    11  Cl   0.000000
    12  H    3.170833   0.000000
 Stoichiometry    C6H3Cl3(1-,2)
 Framework group  CS[SG(C6H3Cl3)]
 Deg. of freedom    21
 Full point group                 CS      NOp   2
 Largest Abelian subgroup         CS      NOp   2
 Largest concise Abelian subgroup C1      NOp   1
                         Standard orientation:                         
 ---------------------------------------------------------------------
 Center     Atomic      Atomic             Coordinates (Angstroms)
 Number     Number       Type             X           Y           Z
 ---------------------------------------------------------------------
      1          6           0        1.275236   -0.736234    0.000000
      2          6           0        0.000032   -1.473083    0.000000
      3          6           0       -1.275190   -0.736265    0.000000
      4          6           0       -1.275744    0.736524    0.000000
      5          6           0        0.000000    1.472466    0.000000
      6          6           0        1.275718    0.736547    0.000000
      7         17           0        2.856257    1.649136    0.000000
      8          1           0        2.620676   -1.512996    0.000000
      9         17           0       -2.856319    1.649060    0.000000
     10          1           0       -0.000022    3.025926    0.000000
     11         17           0        0.000037   -3.298174    0.000000
     12          1           0       -2.620542   -1.513027    0.000000
 ---------------------------------------------------------------------
 Rotational constants (GHZ):           0.7628262           0.7628183           0.3814111
 Standard basis: VSTO-6G (5D, 7F)
 There are    30 symmetry adapted cartesian basis functions of A'  symmetry.
 There are     9 symmetry adapted cartesian basis functions of A"  symmetry.
 There are    30 symmetry adapted basis functions of A'  symmetry.
 There are     9 symmetry adapted basis functions of A"  symmetry.
    39 basis functions,   234 primitive gaussians,    39 cartesian basis functions
    25 alpha electrons       24 beta electrons
       nuclear repulsion energy       239.6957028406 Hartrees.
 Integral buffers will be    131072 words long.
 Regular integral format.
 Two-electron integral symmetry is turned off.
 Do NDO integrals.
 One-electron integrals computed using PRISM.
 NBasis=    39 RedAO= T EigKep=  1.00D+00  NBF=    30     9
 NBsUse=    39 1.00D-06 EigRej= -1.00D+00 NBFU=    30     9
 Initial guess from the checkpoint file:  "geometry_chks/135ClBzAnionRadical.chk"
 B after Tr=    -0.000000   -0.000000   -0.000000
         Rot=    1.000000    0.000000    0.000000   -0.000006 Ang=  -0.00 deg.
 Initial guess orbital symmetries:
 Alpha Orbitals:
       Occupied  (A') (A') (A') (A') (A') (A') (A') (A') (A') (A')
                 (A") (A') (A') (A") (A") (A') (A') (A') (A') (A")
                 (A') (A') (A") (A") (A')
       Virtual   (A') (A') (A') (A") (A") (A') (A') (A") (A') (A')
                 (A') (A') (A') (A')
 Beta  Orbitals:
       Occupied  (A') (A') (A') (A') (A') (A') (A') (A') (A') (A')
                 (A') (A') (A") (A") (A") (A') (A') (A') (A') (A")
                 (A') (A') (A") (A")
       Virtual   (A") (A") (A') (A') (A') (A') (A') (A') (A") (A')
                 (A') (A') (A') (A') (A')
 Initial guess <Sx>= 0.0000 <Sy>= 0.0000 <Sz>= 0.5000 <S**2>= 1.3765 S= 0.7754
 Keep J ints in memory in canonical form, NReq=863709.
 Overlap will be assumed to be unity.
 Requested convergence on RMS density matrix=1.00D-08 within 128 cycles.
 Requested convergence on MAX density matrix=1.00D-06.
 Requested convergence on             energy=1.00D-06.
 No special actions if energy rises.
 Fock symm off for IB=2 I1=    1 I=   31 J=   22 Cut=1.00D-07 Err=6.94D-03
 Fock matrix is not symmetric: symmetry in diagonalization turned off.
 Rare condition: small coef for last iteration:  0.000D+00
 Rare condition: small coef for last iteration:  0.000D+00
 SCF Done:  E(UAM1) =  0.307319521402     A.U. after   33 cycles
            NFock= 32  Conv=0.15D-08     -V/T= 1.0027
 <Sx>= 0.0000 <Sy>= 0.0000 <Sz>= 0.5000 <S**2>= 1.6292 S= 0.8708
 <L.S>=  0.00000000000    
 Annihilation of the first spin contaminant:
 S**2 before annihilation     1.6292,   after     1.7134
 Calling FoFJK, ICntrl=      2127 FMM=F ISym2X=1 I1Cent= 0 IOpClX= 1 NMat=1 NMatS=1 NMatT=0.
 ***** Axes restored to original set *****
 -------------------------------------------------------------------
 Center     Atomic                   Forces (Hartrees/Bohr)
 Number     Number              X              Y              Z
 -------------------------------------------------------------------
      1        6          -0.003004274    0.001628615    0.000000000
      2        6           0.001517705   -0.055133575    0.000000000
      3        6           0.002892763    0.001763572   -0.000000000
      4        6          -0.048539743    0.026269994    0.000000000
      5        6           0.000114375   -0.003379589    0.000000000
      6        6           0.046993816    0.028879867    0.000000000
      7       17           0.050688093    0.031155795   -0.000000000
      8        1           0.071892983   -0.038914621   -0.000000000
      9       17          -0.052325602    0.028324794    0.000000000
     10        1          -0.002244716    0.081669155   -0.000000000
     11       17           0.001631760   -0.059481166   -0.000000000
     12        1          -0.069617161   -0.042782841   -0.000000000
 -------------------------------------------------------------------
 Cartesian Forces:  Max     0.081669155 RMS     0.033258645

 GradGradGradGradGradGradGradGradGradGradGradGradGradGradGradGradGradGrad
 Berny optimization.
 Using GEDIIS/GDIIS optimizer.
 FormGI is forming the generalized inverse of G from B-inverse, IUseBI=4.
 Internal  Forces:  Max     0.096510019 RMS     0.040225531
 Search for a local minimum.
 Step number   3 out of a maximum of   64
 All quantities printed in internal units (Hartrees-Bohrs-Radians)
 Mixed Optimization -- RFO/linear search
 Update second derivatives using D2CorX and points    1    3    2
 ITU=  0  1  0
 Use linear search instead of GDIIS.
     Eigenvalues ---    0.01735   0.02011   0.02011   0.02011   0.02011
     Eigenvalues ---    0.02011   0.02011   0.02011   0.02011   0.02011
     Eigenvalues ---    0.06524   0.06524   0.16000   0.16000   0.16000
     Eigenvalues ---    0.21639   0.23479   0.23479   0.25000   0.25000
     Eigenvalues ---    0.25000   0.27875   0.29033   0.29033   0.41245
     Eigenvalues ---    0.41245   0.44656   0.44657   0.44657   0.65422
 RFO step:  Lambda=-1.21410630D-01 EMin= 1.73513697D-02
 Quartic linear search produced a step of -0.69055.
 Maximum step size (   0.505) exceeded in Quadratic search.
    -- Step size scaled by   0.588
 Iteration  1 RMS(Cart)=  0.09385249 RMS(Int)=  0.00009925
 Iteration  2 RMS(Cart)=  0.00008846 RMS(Int)=  0.00000001
 Iteration  3 RMS(Cart)=  0.00000001 RMS(Int)=  0.00000001
 ClnCor:  largest displacement from symmetrization is 1.37D-11 for atom     8.
 Variable       Old X    -DE/DX   Delta X   Delta X   Delta X     New X
                                 (Linear)    (Quad)   (Total)
    R1        2.78316  -0.09650  -0.10237  -0.01471  -0.11708   2.66607
    R2        2.78315  -0.09649  -0.10236  -0.01472  -0.11708   2.66608
    R3        2.93581  -0.08175   0.16126  -0.28577  -0.12451   2.81131
    R4        2.78316  -0.09650  -0.10236  -0.01472  -0.11708   2.66608
    R5        3.44892  -0.05950  -0.10117  -0.05194  -0.15311   3.29581
    R6        2.78317  -0.09651  -0.10237  -0.01472  -0.11709   2.66608
    R7        2.93567  -0.08171   0.16136  -0.28573  -0.12437   2.81130
    R8        2.78318  -0.09651  -0.10238  -0.01472  -0.11710   2.66608
    R9        3.44891  -0.05950  -0.10117  -0.05193  -0.15310   3.29581
   R10        2.78312  -0.09649  -0.10235  -0.01471  -0.11705   2.66607
   R11        2.93561  -0.08170   0.16140  -0.28572  -0.12432   2.81129
   R12        3.44890  -0.05950  -0.10116  -0.05193  -0.15309   3.29581
    A1        2.09508  -0.00969   0.00056   0.00499   0.00555   2.10063
    A2        2.09405   0.00485  -0.00028  -0.00249  -0.00277   2.09128
    A3        2.09405   0.00485  -0.00028  -0.00249  -0.00277   2.09128
    A4        2.09370   0.00970  -0.00055  -0.00499  -0.00554   2.08816
    A5        2.09475  -0.00485   0.00027   0.00249   0.00277   2.09752
    A6        2.09473  -0.00484   0.00028   0.00249   0.00278   2.09751
    A7        2.09511  -0.00970   0.00054   0.00499   0.00553   2.10064
    A8        2.09405   0.00485  -0.00028  -0.00250  -0.00277   2.09128
    A9        2.09403   0.00485  -0.00026  -0.00249  -0.00276   2.09127
   A10        2.09366   0.00971  -0.00052  -0.00499  -0.00551   2.08815
   A11        2.09477  -0.00486   0.00026   0.00249   0.00275   2.09752
   A12        2.09476  -0.00486   0.00026   0.00249   0.00276   2.09752
   A13        2.09512  -0.00971   0.00053   0.00499   0.00552   2.10064
   A14        2.09402   0.00486  -0.00026  -0.00249  -0.00276   2.09127
   A15        2.09405   0.00485  -0.00027  -0.00250  -0.00277   2.09128
   A16        2.09370   0.00970  -0.00055  -0.00499  -0.00554   2.08816
   A17        2.09475  -0.00485   0.00027   0.00250   0.00276   2.09751
   A18        2.09473  -0.00484   0.00028   0.00250   0.00278   2.09751
    D1       -0.00000   0.00000   0.00000   0.00000   0.00000   0.00000
    D2        3.14159  -0.00000   0.00000  -0.00000   0.00000   3.14159
    D3        3.14159   0.00000   0.00000   0.00000   0.00000   3.14159
    D4       -0.00000   0.00000   0.00000  -0.00000   0.00000   0.00000
    D5        0.00000   0.00000   0.00000  -0.00000  -0.00000   0.00000
    D6        3.14159   0.00000   0.00000   0.00000   0.00000   3.14159
    D7        3.14159  -0.00000   0.00000  -0.00000   0.00000   3.14159
    D8        0.00000  -0.00000   0.00000   0.00000   0.00000   0.00000
    D9        0.00000  -0.00000   0.00000   0.00000   0.00000   0.00000
   D10        3.14159  -0.00000   0.00000  -0.00000   0.00000   3.14159
   D11        3.14159   0.00000   0.00000   0.00000   0.00000   3.14159
   D12       -0.00000  -0.00000   0.00000  -0.00000   0.00000   0.00000
   D13       -0.00000   0.00000   0.00000  -0.00000   0.00000   0.00000
   D14        3.14159  -0.00000   0.00000  -0.00000   0.00000   3.14159
   D15        3.14159   0.00000   0.00000   0.00000   0.00000   3.14159
   D16        0.00000   0.00000   0.00000  -0.00000  -0.00000   0.00000
   D17        0.00000  -0.00000   0.00000  -0.00000  -0.00000   0.00000
   D18        3.14159  -0.00000   0.00000  -0.00000   0.00000   3.14159
   D19        3.14159   0.00000   0.00000   0.00000   0.00000   3.14159
   D20       -0.00000  -0.00000   0.00000  -0.00000   0.00000   0.00000
   D21       -0.00000   0.00000   0.00000   0.00000   0.00000   0.00000
   D22        3.14159  -0.00000   0.00000  -0.00000   0.00000   3.14159
   D23        3.14159   0.00000   0.00000   0.00000   0.00000   3.14159
   D24        0.00000   0.00000   0.00000   0.00000  -0.00000   0.00000
         Item               Value     Threshold  Converged?
 Maximum Force            0.096510     0.000450     NO 
 RMS     Force            0.040226     0.000300     NO 
 Maximum Displacement     0.265853     0.001800     NO 
 RMS     Displacement     0.093860     0.001200     NO 
 Predicted change in Energy=-6.996222D-02
 GradGradGradGradGradGradGradGradGradGradGradGradGradGradGradGradGradGrad

                          Input orientation:                          
 ---------------------------------------------------------------------
 Center     Atomic      Atomic             Coordinates (Angstroms)
 Number     Number       Type             X           Y           Z
 ---------------------------------------------------------------------
      1          6           0       -3.211377    0.200565    0.000000
      2          6           0       -2.011706    0.943006    0.000000
      3          6           0       -0.773084    0.267545   -0.000000
      4          6           0       -0.729937   -1.142622   -0.000000
      5          6           0       -1.934222   -1.877564   -0.000000
      6          6           0       -3.177028   -1.209843    0.000000
      7         17           0       -4.662915   -2.123032    0.000000
      8          1           0       -4.519686    0.908745    0.000000
      9         17           0        0.803845   -1.972855   -0.000000
     10          1           0       -1.893364   -3.364673   -0.000000
     11         17           0       -2.059592    2.686418    0.000000
     12          1           0        0.494367    1.046482   -0.000000
 ---------------------------------------------------------------------
                    Distance matrix (angstroms):
                    1          2          3          4          5
     1  C    0.000000
     2  C    1.410826   0.000000
     3  C    2.439213   1.410827   0.000000
     4  C    2.821648   2.448015   1.410827   0.000000
     5  C    2.439209   2.821633   2.439208   1.410831   0.000000
     6  C    1.410826   2.448006   2.821635   2.448015   1.410821
     7  Cl   2.739720   4.053332   4.565703   4.053335   2.739711
     8  H    1.487680   2.508214   3.801074   4.309328   3.801070
     9  Cl   4.565716   4.053341   2.739726   1.744068   2.739725
    10  H    3.801063   4.309304   3.801057   2.508201   1.487671
    11  Cl   2.739722   1.744070   2.739717   4.053336   4.565703
    12  H    3.801068   2.508209   1.487674   2.508206   3.801065
                    6          7          8          9         10
     6  C    0.000000
     7  Cl   1.744068   0.000000
     8  H    2.508216   3.035158   0.000000
     9  Cl   4.053336   5.468822   6.053396   0.000000
    10  H    2.508203   3.035142   5.015941   3.035143   0.000000
    11  Cl   4.053334   5.468830   3.035158   5.468830   6.053374
    12  H    4.309310   6.053378   5.015945   3.035156   5.015930
                   11         12
    11  Cl   0.000000
    12  H    3.035144   0.000000
 Stoichiometry    C6H3Cl3(1-,2)
 Framework group  CS[SG(C6H3Cl3)]
 Deg. of freedom    21
 Full point group                 CS      NOp   2
 Largest Abelian subgroup         CS      NOp   2
 Largest concise Abelian subgroup C1      NOp   1
                         Standard orientation:                         
 ---------------------------------------------------------------------
 Center     Atomic      Atomic             Coordinates (Angstroms)
 Number     Number       Type             X           Y           Z
 ---------------------------------------------------------------------
      1          6           0        1.219614   -0.704139    0.000000
      2          6           0        0.000009   -1.413360    0.000000
      3          6           0       -1.219600   -0.704145   -0.000000
      4          6           0       -1.224011    0.706675   -0.000000
      5          6           0       -0.000000    1.408273   -0.000000
      6          6           0        1.224003    0.706681    0.000000
      7         17           0        2.734404    1.578727    0.000000
      8          1           0        2.507985   -1.447974    0.000000
      9         17           0       -2.734418    1.578709   -0.000000
     10          1           0       -0.000011    2.895944   -0.000000
     11         17           0        0.000008   -3.157430    0.000000
     12          1           0       -2.507960   -1.447988   -0.000000
 ---------------------------------------------------------------------
 Rotational constants (GHZ):           0.8322311           0.8322290           0.4161150
 Standard basis: VSTO-6G (5D, 7F)
 There are    30 symmetry adapted cartesian basis functions of A'  symmetry.
 There are     9 symmetry adapted cartesian basis functions of A"  symmetry.
 There are    30 symmetry adapted basis functions of A'  symmetry.
 There are     9 symmetry adapted basis functions of A"  symmetry.
    39 basis functions,   234 primitive gaussians,    39 cartesian basis functions
    25 alpha electrons       24 beta electrons
       nuclear repulsion energy       246.1692459326 Hartrees.
 Integral buffers will be    131072 words long.
 Regular integral format.
 Two-electron integral symmetry is turned off.
 Do NDO integrals.
 One-electron integrals computed using PRISM.
 NBasis=    39 RedAO= T EigKep=  1.00D+00  NBF=    30     9
 NBsUse=    39 1.00D-06 EigRej= -1.00D+00 NBFU=    30     9
 Lowest energy guess from the checkpoint file:  "geometry_chks/135ClBzAnionRadical.chk"
 B after Tr=    -0.000000   -0.000000    0.000000
         Rot=    1.000000   -0.000000   -0.000000   -0.000001 Ang=  -0.00 deg.
 B after Tr=     0.000000   -0.000000    0.000000
         Rot=    1.000000    0.000000    0.000000    0.000005 Ang=   0.00 deg.
 Initial guess orbital symmetries:
 Alpha Orbitals:
       Occupied  (A') (A") (A") (A') (A') (A") (A') (A') (A') (A')
                 (A') (A') (A') (A') (A") (A") (A") (A") (A") (A")
                 (A") (A") (A") (A") (A")
       Virtual   (A') (A") (A") (A') (A') (A") (A') (A') (A') (A')
                 (A') (A') (A') (A')
 Beta  Orbitals:
       Occupied  (A") (A") (A') (A') (A') (A") (A') (A') (A') (A')
                 (A') (A') (A') (A') (A') (A") (A") (A") (A') (A")
                 (A") (A") (A") (A")
       Virtual   (A") (A") (A') (A') (A') (A") (A') (A') (A') (A')
                 (A') (A') (A') (A') (A')
 Initial guess <Sx>= 0.0000 <Sy>= 0.0000 <Sz>= 0.5000 <S**2>= 1.4251 S= 0.7943
 Keep J ints in memory in canonical form, NReq=863709.
 Overlap will be assumed to be unity.
 Requested convergence on RMS density matrix=1.00D-08 within 128 cycles.
 Requested convergence on MAX density matrix=1.00D-06.
 Requested convergence on             energy=1.00D-06.
 No special actions if energy rises.
 An orbital has undefined symmetry, so N**3 symmetry is turned off.
 Rare condition: small coef for last iteration:  0.000D+00
 Rare condition: small coef for last iteration:  0.000D+00
 Rare condition: small coef for last iteration:  0.000D+00
 Rare condition: small coef for last iteration:  0.000D+00
 Rare condition: small coef for last iteration:  0.000D+00
 Rare condition: small coef for last iteration:  0.000D+00
 Rare condition: small coef for last iteration:  0.000D+00
 Rare condition: small coef for last iteration:  0.000D+00
 Rare condition: small coef for last iteration:  0.000D+00
 >>>>>>>>>> Convergence criterion not met.
 SCF Done:  E(UAM1) =  0.213694616871     A.U. after  129 cycles
            NFock=128  Conv=0.67D-02     -V/T= 1.0019
 <Sx>= 0.0000 <Sy>= 0.0000 <Sz>= 0.5000 <S**2>= 0.8435 S= 0.5457
 <L.S>=  0.00000000000    
 Annihilation of the first spin contaminant:
 S**2 before annihilation     0.8435,   after     0.7576
 SCFChk:  SCF convergence  6.65D-03 required  1.00D-08


 SCF Error SCF Error SCF Error SCF Error SCF Error SCF Error SCF Error SCF Error

                                    ERROR!!!!

    SCF has not converged.  Gradients and post-SCF results would be GARBAGE!!

 SCF Error SCF Error SCF Error SCF Error SCF Error SCF Error SCF Error SCF Error


 Error termination via Lnk1e in /share/software/user/restricted/gaussian/g16.B01/l701.exe at Mon Dec  8 19:25:18 2025.
 Job cpu time:       0 days  0 hours  0 minutes  3.4 seconds.
 Elapsed time:       0 days  0 hours  0 minutes  5.5 seconds.
 File lengths (MBytes):  RWF=     10 Int=      0 D2E=      0 Chk=      2 Scr=      1
