 Entering Gaussian System, Link 0=g16
 Initial command:
 /share/software/user/restricted/gaussian/g16.B01/l1.exe "/home/users/jlapier/Chloroaromatics/Gau-3952.inp" -scrdir="/home/users/jlapier/Chloroaromatics/"
 Entering Link 1 = /share/software/user/restricted/gaussian/g16.B01/l1.exe PID=      3953.
  
 Copyright (c) 1988-2017, Gaussian, Inc.  All Rights Reserved.
  
 This is part of the Gaussian(R) 16 program.  It is based on
 the Gaussian(R) 09 system (copyright 2009, Gaussian, Inc.),
 the Gaussian(R) 03 system (copyright 2003, Gaussian, Inc.),
 the Gaussian(R) 98 system (copyright 1998, Gaussian, Inc.),
 the Gaussian(R) 94 system (copyright 1995, Gaussian, Inc.),
 the Gaussian 92(TM) system (copyright 1992, Gaussian, Inc.),
 the Gaussian 90(TM) system (copyright 1990, Gaussian, Inc.),
 the Gaussian 88(TM) system (copyright 1988, Gaussian, Inc.),
 the Gaussian 86(TM) system (copyright 1986, Carnegie Mellon
 University), and the Gaussian 82(TM) system (copyright 1983,
 Carnegie Mellon University). Gaussian is a federally registered
 trademark of Gaussian, Inc.
  
 This software contains proprietary and confidential information,
 including trade secrets, belonging to Gaussian, Inc.
  
 This software is provided under written license and may be
 used, copied, transmitted, or stored only in accord with that
 written license.
  
 The following legend is applicable only to US Government
 contracts under FAR:
  
                    RESTRICTED RIGHTS LEGEND
  
 Use, reproduction and disclosure by the US Government is
 subject to restrictions as set forth in subparagraphs (a)
 and (c) of the Commercial Computer Software - Restricted
 Rights clause in FAR 52.227-19.
  
 Gaussian, Inc.
 340 Quinnipiac St., Bldg. 40, Wallingford CT 06492
  
  
 ---------------------------------------------------------------
 Warning -- This program may not be used in any manner that
 competes with the business of Gaussian, Inc. or will provide
 assistance to any competitor of Gaussian, Inc.  The licensee
 of this program is prohibited from giving any competitor of
 Gaussian, Inc. access to this program.  By using this program,
 the user acknowledges that Gaussian, Inc. is engaged in the
 business of creating and licensing software in the field of
 computational chemistry and represents and warrants to the
 licensee that it is not a competitor of Gaussian, Inc. and that
 it will not use this program in any manner prohibited above.
 ---------------------------------------------------------------
  

 Cite this work as:
 Gaussian 16, Revision B.01,
 M. J. Frisch, G. W. Trucks, H. B. Schlegel, G. E. Scuseria, 
 M. A. Robb, J. R. Cheeseman, G. Scalmani, V. Barone, 
 G. A. Petersson, H. Nakatsuji, X. Li, M. Caricato, A. V. Marenich, 
 J. Bloino, B. G. Janesko, R. Gomperts, B. Mennucci, H. P. Hratchian, 
 J. V. Ortiz, A. F. Izmaylov, J. L. Sonnenberg, D. Williams-Young, 
 F. Ding, F. Lipparini, F. Egidi, J. Goings, B. Peng, A. Petrone, 
 T. Henderson, D. Ranasinghe, V. G. Zakrzewski, J. Gao, N. Rega, 
 G. Zheng, W. Liang, M. Hada, M. Ehara, K. Toyota, R. Fukuda, 
 J. Hasegawa, M. Ishida, T. Nakajima, Y. Honda, O. Kitao, H. Nakai, 
 T. Vreven, K. Throssell, J. A. Montgomery, Jr., J. E. Peralta, 
 F. Ogliaro, M. J. Bearpark, J. J. Heyd, E. N. Brothers, K. N. Kudin, 
 V. N. Staroverov, T. A. Keith, R. Kobayashi, J. Normand, 
 K. Raghavachari, A. P. Rendell, J. C. Burant, S. S. Iyengar, 
 J. Tomasi, M. Cossi, J. M. Millam, M. Klene, C. Adamo, R. Cammi, 
 J. W. Ochterski, R. L. Martin, K. Morokuma, O. Farkas, 
 J. B. Foresman, and D. J. Fox, Gaussian, Inc., Wallingford CT, 2016.
 
 ******************************************
 Gaussian 16:  ES64L-G16RevB.01 20-Dec-2017
                 9-Dec-2025 
 ******************************************
 %mem=2GB
 %nprocshare=1
 Will use up to    1 processors via shared memory.
 %chk=geometry_chks/135ClBzAnionRadical.chk
 -----------------
 # opt am1 SCF=XQC
 -----------------
 1/18=20,19=15,26=1,38=1/1,3;
 2/9=110,12=2,17=6,18=5,40=1/2;
 3/5=2,25=1,41=700000,71=1/1,2,3;
 4/35=1/1;
 5/5=2,8=3,13=1,35=1,38=5/2,8;
 6/7=2,8=2,9=2,10=2,28=1/1;
 7//1,2,3,16;
 1/18=20,19=15,26=1/3(2);
 2/9=110/2;
 99//99;
 2/9=110/2;
 3/5=2,25=1,41=700000,71=1,135=20/1,2,3;
 4/5=5,16=3,35=1/1;
 5/5=2,8=3,13=1,35=1,38=5/2,8;
 7//1,2,3,16;
 1/18=20,19=15,26=1/3(-5);
 2/9=110/2;
 6/7=2,8=2,9=2,10=2,19=2,28=1/1;
 99/9=1/99;
 ------------------------------------
 3-Chloro-Benzene Anion Radical (135)
 ------------------------------------
 Symbolic Z-matrix:
 Charge = -1 Multiplicity = 2
 C                    -3.20928   0.19943   0. 
 C                    -2.0115    0.93555   0. 
 C                    -0.77511   0.2663    0. 
 C                    -0.7365   -1.13907   0. 
 C                    -1.93429  -1.87519   0. 
 C                    -3.17067  -1.20594   0. 
 Cl                   -4.67483  -2.13035   0. 
 H                    -4.76193   1.03987   0. 
 Cl                   -2.05998   2.7004    0. 
 H                     0.72905   1.19071   0. 
 Cl                    0.81614  -1.97951   0. 
 H                    -1.8858   -3.64003   0. 
 
 Add virtual bond connecting atoms H12        and C5         Dist= 3.34D+00.
 Add virtual bond connecting atoms H10        and C3         Dist= 3.34D+00.
 Add virtual bond connecting atoms H8         and C1         Dist= 3.34D+00.

 GradGradGradGradGradGradGradGradGradGradGradGradGradGradGradGradGradGrad
 Berny optimization.
 Initialization pass.
                           ----------------------------
                           !    Initial Parameters    !
                           ! (Angstroms and Degrees)  !
 --------------------------                            --------------------------
 ! Name  Definition              Value          Derivative Info.                !
 --------------------------------------------------------------------------------
 ! R1    R(1,2)                  1.4059         estimate D2E/DX2                !
 ! R2    R(1,6)                  1.4059         estimate D2E/DX2                !
 ! R3    R(1,8)                  1.7655         estimate D2E/DX2                !
 ! R4    R(2,3)                  1.4059         estimate D2E/DX2                !
 ! R5    R(2,9)                  1.7655         estimate D2E/DX2                !
 ! R6    R(3,4)                  1.4059         estimate D2E/DX2                !
 ! R7    R(3,10)                 1.7655         estimate D2E/DX2                !
 ! R8    R(4,5)                  1.4059         estimate D2E/DX2                !
 ! R9    R(4,11)                 1.7655         estimate D2E/DX2                !
 ! R10   R(5,6)                  1.4059         estimate D2E/DX2                !
 ! R11   R(5,12)                 1.7655         estimate D2E/DX2                !
 ! R12   R(6,7)                  1.7655         estimate D2E/DX2                !
 ! A1    A(2,1,6)              119.9999         estimate D2E/DX2                !
 ! A2    A(2,1,8)              119.9999         estimate D2E/DX2                !
 ! A3    A(6,1,8)              120.0001         estimate D2E/DX2                !
 ! A4    A(1,2,3)              120.0            estimate D2E/DX2                !
 ! A5    A(1,2,9)              120.0001         estimate D2E/DX2                !
 ! A6    A(3,2,9)              119.9999         estimate D2E/DX2                !
 ! A7    A(2,3,4)              120.0001         estimate D2E/DX2                !
 ! A8    A(2,3,10)             120.0            estimate D2E/DX2                !
 ! A9    A(4,3,10)             119.9999         estimate D2E/DX2                !
 ! A10   A(3,4,5)              119.9997         estimate D2E/DX2                !
 ! A11   A(3,4,11)             120.0003         estimate D2E/DX2                !
 ! A12   A(5,4,11)             120.0            estimate D2E/DX2                !
 ! A13   A(4,5,6)              120.0            estimate D2E/DX2                !
 ! A14   A(4,5,12)             119.9996         estimate D2E/DX2                !
 ! A15   A(6,5,12)             120.0004         estimate D2E/DX2                !
 ! A16   A(1,6,5)              120.0003         estimate D2E/DX2                !
 ! A17   A(1,6,7)              119.9999         estimate D2E/DX2                !
 ! A18   A(5,6,7)              119.9998         estimate D2E/DX2                !
 ! D1    D(6,1,2,3)              0.0            estimate D2E/DX2                !
 ! D2    D(6,1,2,9)            180.0            estimate D2E/DX2                !
 ! D3    D(8,1,2,3)            180.0            estimate D2E/DX2                !
 ! D4    D(8,1,2,9)              0.0            estimate D2E/DX2                !
 ! D5    D(2,1,6,5)              0.0            estimate D2E/DX2                !
 ! D6    D(2,1,6,7)            180.0            estimate D2E/DX2                !
 ! D7    D(8,1,6,5)            180.0            estimate D2E/DX2                !
 ! D8    D(8,1,6,7)              0.0            estimate D2E/DX2                !
 ! D9    D(1,2,3,4)              0.0            estimate D2E/DX2                !
 ! D10   D(1,2,3,10)           180.0            estimate D2E/DX2                !
 ! D11   D(9,2,3,4)            180.0            estimate D2E/DX2                !
 ! D12   D(9,2,3,10)             0.0            estimate D2E/DX2                !
 ! D13   D(2,3,4,5)              0.0            estimate D2E/DX2                !
 ! D14   D(2,3,4,11)           180.0            estimate D2E/DX2                !
 ! D15   D(10,3,4,5)           180.0            estimate D2E/DX2                !
 ! D16   D(10,3,4,11)            0.0            estimate D2E/DX2                !
 ! D17   D(3,4,5,6)              0.0            estimate D2E/DX2                !
 ! D18   D(3,4,5,12)           180.0            estimate D2E/DX2                !
 ! D19   D(11,4,5,6)           180.0            estimate D2E/DX2                !
 ! D20   D(11,4,5,12)            0.0            estimate D2E/DX2                !
 ! D21   D(4,5,6,1)              0.0            estimate D2E/DX2                !
 ! D22   D(4,5,6,7)            180.0            estimate D2E/DX2                !
 ! D23   D(12,5,6,1)           180.0            estimate D2E/DX2                !
 ! D24   D(12,5,6,7)             0.0            estimate D2E/DX2                !
 --------------------------------------------------------------------------------
 Trust Radius=3.00D-01 FncErr=1.00D-07 GrdErr=1.00D-07 EigMax=2.50D+02 EigMin=1.00D-04
 Number of steps in this run=     64 maximum allowed number of steps=    100.
 GradGradGradGradGradGradGradGradGradGradGradGradGradGradGradGradGradGrad

                          Input orientation:                          
 ---------------------------------------------------------------------
 Center     Atomic      Atomic             Coordinates (Angstroms)
 Number     Number       Type             X           Y           Z
 ---------------------------------------------------------------------
      1          6           0       -3.209280    0.199430    0.000000
      2          6           0       -2.011500    0.935550    0.000000
      3          6           0       -0.775110    0.266300    0.000000
      4          6           0       -0.736500   -1.139070    0.000000
      5          6           0       -1.934290   -1.875190    0.000000
      6          6           0       -3.170670   -1.205940    0.000000
      7         17           0       -4.674830   -2.130350    0.000000
      8          1           0       -4.761930    1.039870    0.000000
      9         17           0       -2.059980    2.700400    0.000000
     10          1           0        0.729050    1.190710    0.000000
     11         17           0        0.816140   -1.979510    0.000000
     12          1           0       -1.885800   -3.640030    0.000000
 ---------------------------------------------------------------------
                    Distance matrix (angstroms):
                    1          2          3          4          5
     1  C    0.000000
     2  C    1.405898   0.000000
     3  C    2.435088   1.405900   0.000000
     4  C    2.811801   2.435092   1.405900   0.000000
     5  C    2.435087   2.811800   2.435093   1.405907   0.000000
     6  C    1.405900   2.435088   2.811796   2.435088   1.405892
     7  Cl   2.752401   4.061166   4.577308   4.061167   2.752393
     8  H    1.765520   2.752408   4.061175   4.577321   4.061173
     9  Cl   2.752406   1.765516   2.752405   4.061173   4.577316
    10  H    4.061167   2.752403   1.765512   2.752401   4.061173
    11  Cl   4.577312   4.061173   2.752406   1.765511   2.752408
    12  H    4.061164   4.577306   4.061163   2.752397   1.765506
                    6          7          8          9         10
     6  C    0.000000
     7  Cl   1.765512   0.000000
     8  H    2.752412   3.171416   0.000000
     9  Cl   4.061173   5.493049   3.171418   0.000000
    10  H    4.577308   6.342819   5.493051   3.171412   0.000000
    11  Cl   4.061165   5.493041   6.342832   5.493052   3.171416
    12  H    2.752396   3.171407   5.493049   6.342822   5.493040
                   11         12
    11  Cl   0.000000
    12  H    3.171404   0.000000
 Stoichiometry    C6H3Cl3(1-,2)
 Framework group  CS[SG(C6H3Cl3)]
 Deg. of freedom    21
 Full point group                 CS      NOp   2
 Largest Abelian subgroup         CS      NOp   2
 Largest concise Abelian subgroup C1      NOp   1
                         Standard orientation:                         
 ---------------------------------------------------------------------
 Center     Atomic      Atomic             Coordinates (Angstroms)
 Number     Number       Type             X           Y           Z
 ---------------------------------------------------------------------
      1          6           0        1.217546    0.702949    0.000000
      2          6           0        1.217546   -0.702950    0.000000
      3          6           0       -0.000001   -1.405899    0.000000
      4          6           0       -1.217547   -0.702950    0.000000
      5          6           0       -1.217541    0.702957    0.000000
      6          6           0       -0.000001    1.405898    0.000000
      7         17           0        0.000001    3.171409    0.000000
      8          1           0        2.746532    1.585707    0.000000
      9         17           0        2.746525   -1.585711    0.000000
     10          1           0       -0.000002   -3.171410    0.000000
     11         17           0       -2.746528   -1.585700    0.000000
     12          1           0       -2.746517    1.585705    0.000000
 ---------------------------------------------------------------------
 Rotational constants (GHZ):           0.8231906           0.8231872           0.4115945
 Standard basis: VSTO-6G (5D, 7F)
 There are    30 symmetry adapted cartesian basis functions of A'  symmetry.
 There are     9 symmetry adapted cartesian basis functions of A"  symmetry.
 There are    30 symmetry adapted basis functions of A'  symmetry.
 There are     9 symmetry adapted basis functions of A"  symmetry.
    39 basis functions,   234 primitive gaussians,    39 cartesian basis functions
    25 alpha electrons       24 beta electrons
       nuclear repulsion energy       244.4218496389 Hartrees.
 Integral buffers will be    131072 words long.
 Regular integral format.
 Two-electron integral symmetry is turned off.
 Do NDO integrals.
 One-electron integrals computed using PRISM.
 NBasis=    39 RedAO= T EigKep=  1.00D+00  NBF=    30     9
 NBsUse=    39 1.00D-06 EigRej= -1.00D+00 NBFU=    30     9
 Simple Huckel Guess.
 Initial guess orbital symmetries:
 Alpha Orbitals:
       Occupied  (A') (A') (A') (A') (A') (A') (A') (A') (A') (A")
                 (A') (A') (A') (A') (A") (A") (A') (A') (A") (A')
                 (A') (A') (A") (A") (A')
       Virtual   (A") (A") (A') (A') (A") (A') (A') (A') (A') (A')
                 (A') (A') (A') (A')
 Beta  Orbitals:
       Occupied  (A') (A') (A') (A') (A') (A') (A') (A') (A') (A")
                 (A') (A') (A') (A') (A") (A") (A') (A') (A") (A')
                 (A') (A') (A") (A")
       Virtual   (A') (A") (A") (A') (A') (A") (A') (A') (A') (A')
                 (A') (A') (A') (A') (A')
 The electronic state of the initial guess is 2-A'.
 Initial guess <Sx>= 0.0000 <Sy>= 0.0000 <Sz>= 0.5000 <S**2>= 0.7500 S= 0.5000
 Keep J ints in memory in canonical form, NReq=863709.
 Overlap will be assumed to be unity.
 Requested convergence on RMS density matrix=1.00D-08 within  32 cycles.
 Requested convergence on MAX density matrix=1.00D-06.
 Requested convergence on             energy=1.00D-06.
 No special actions if energy rises.
 Fock symm off for IB=2 I1=    1 I=   31 J=   11 Cut=1.00D-07 Err=2.22D-03
 Fock matrix is not symmetric: symmetry in diagonalization turned off.
 Rare condition: small coef for last iteration:  0.000D+00
 Rare condition: small coef for last iteration:  0.000D+00
 Rare condition: small coef for last iteration:  0.000D+00
 Rare condition: small coef for last iteration:  0.000D+00
 >>>>>>>>>> Convergence criterion not met.
 SCF Done:  E(UAM1) =  0.330948396371     A.U. after   33 cycles
            NFock= 32  Conv=0.24D-04     -V/T= 1.0029
 <Sx>= 0.0000 <Sy>= 0.0000 <Sz>= 0.5000 <S**2>= 1.8469 S= 0.9481
 <L.S>=  0.00000000000    
 Annihilation of the first spin contaminant:
 S**2 before annihilation     1.8469,   after     2.3612
 Keep J ints in memory in canonical form, NReq=864109.
 LinEq1:  Iter=  0 NonCon=     1 RMS=3.29D-06 Max=3.99D-05 NDo=     1
 AX will form     1 AO Fock derivatives at one time.
 LinEq1:  Iter=  1 NonCon=     1 RMS=5.41D-07 Max=9.14D-06 NDo=     1
 LinEq1:  Iter=  2 NonCon=     1 RMS=6.52D-08 Max=8.11D-07 NDo=     1
 LinEq1:  Iter=  3 NonCon=     1 RMS=1.61D-08 Max=2.50D-07 NDo=     1
 LinEq1:  Iter=  4 NonCon=     1 RMS=5.41D-09 Max=4.89D-08 NDo=     1
 LinEq1:  Iter=  5 NonCon=     1 RMS=2.12D-09 Max=2.86D-08 NDo=     1
 LinEq1:  Iter=  6 NonCon=     1 RMS=7.08D-10 Max=9.99D-09 NDo=     1
 LinEq1:  Iter=  7 NonCon=     0 RMS=1.61D-10 Max=1.46D-09 NDo=     1
 Linear equations converged to 3.944D-10 3.944D-09 after     7 iterations.
 LinEq1:  Iter=  0 NonCon=     1 RMS=8.82D-07 Max=8.02D-06 NDo=     1
 LinEq1:  Iter=  1 NonCon=     1 RMS=2.27D-07 Max=3.28D-06 NDo=     1
 LinEq1:  Iter=  2 NonCon=     1 RMS=7.05D-08 Max=1.03D-06 NDo=     1
 LinEq1:  Iter=  3 NonCon=     1 RMS=2.11D-08 Max=1.93D-07 NDo=     1
 LinEq1:  Iter=  4 NonCon=     1 RMS=6.93D-09 Max=1.12D-07 NDo=     1
 LinEq1:  Iter=  5 NonCon=     1 RMS=2.27D-09 Max=2.84D-08 NDo=     1
 LinEq1:  Iter=  6 NonCon=     1 RMS=4.19D-10 Max=3.42D-09 NDo=     1
 LinEq1:  Iter=  7 NonCon=     0 RMS=5.70D-11 Max=4.79D-10 NDo=     1
 Linear equations converged to 1.426D-10 1.426D-09 after     7 iterations.
 LinEq1:  Iter=  0 NonCon=     1 RMS=3.62D-08 Max=2.97D-07 NDo=     1
 LinEq1:  Iter=  1 NonCon=     1 RMS=8.39D-09 Max=7.14D-08 NDo=     1
 LinEq1:  Iter=  2 NonCon=     1 RMS=1.65D-09 Max=1.59D-08 NDo=     1
 LinEq1:  Iter=  3 NonCon=     1 RMS=4.74D-10 Max=4.82D-09 NDo=     1
 LinEq1:  Iter=  4 NonCon=     1 RMS=1.28D-10 Max=1.78D-09 NDo=     1
 LinEq1:  Iter=  5 NonCon=     1 RMS=3.56D-11 Max=3.13D-10 NDo=     1
 LinEq1:  Iter=  6 NonCon=     1 RMS=1.55D-11 Max=2.05D-10 NDo=     1
 LinEq1:  Iter=  7 NonCon=     0 RMS=4.68D-12 Max=5.93D-11 NDo=     1
 Linear equations converged to 6.628D-12 6.628D-11 after     7 iterations.
 SCF Done:  E(UAM1) =  0.330948395058     a.u. after    4 cycles
            Convg  =    0.2663D-06                    25 Fock formations.
              S**2 =  1.8488                  -V/T =  1.0029
 <Sx>= 0.0000 <Sy>= 0.0000 <Sz>= 0.5000 <S**2>= 1.8488 S= 0.9487
 <L.S>=  0.00000000000    
 Annihilation of the first spin contaminant:
 S**2 before annihilation     1.8488,   after     2.3683

 **********************************************************************

            Population analysis using the SCF Density.

 **********************************************************************

 Orbital symmetries:
 Alpha Orbitals:
       Occupied  (A') (A') (A') (A') (A') (A') (A') (A') (A') (A')
                 (A') (A') (A") (A") (A") (A') (A') (A') (A') (A")
                 (A') (A') (A") (A") (A')
       Virtual   (A') (A') (A') (A") (A") (A') (A') (A") (A') (A')
                 (A') (A') (A') (A')
 Beta  Orbitals:
       Occupied  (A') (A') (A') (A') (A') (A') (A') (A') (A') (A')
                 (A') (A') (A") (A") (A") (A') (A') (A') (A') (A")
                 (A') (A') (A") (A")
       Virtual   (A") (A") (A') (A') (A') (A') (A') (A') (A") (A')
                 (A') (A') (A') (A') (A')
 The electronic state is 2-A'.
 Alpha  occ. eigenvalues --   -1.26696  -1.22669  -1.22668  -1.19403  -0.94904
 Alpha  occ. eigenvalues --   -0.94904  -0.65974  -0.65973  -0.51503  -0.44407
 Alpha  occ. eigenvalues --   -0.38840  -0.38840  -0.38763  -0.34210  -0.34209
 Alpha  occ. eigenvalues --   -0.31287  -0.30269  -0.30268  -0.28465  -0.27712
 Alpha  occ. eigenvalues --   -0.25002  -0.25001  -0.20244  -0.20244  -0.05242
 Alpha virt. eigenvalues --    0.13431   0.13431   0.16630   0.17993   0.17993
 Alpha virt. eigenvalues --    0.20069   0.20069   0.25383   0.31238   0.31238
 Alpha virt. eigenvalues --    0.34060   0.34060   0.34223   0.36016
  Beta  occ. eigenvalues --   -1.27105  -1.22634  -1.22634  -1.19790  -0.95620
  Beta  occ. eigenvalues --   -0.95620  -0.67346  -0.67346  -0.51117  -0.44875
  Beta  occ. eigenvalues --   -0.38866  -0.38866  -0.38495  -0.33516  -0.33516
  Beta  occ. eigenvalues --   -0.32523  -0.30468  -0.30467  -0.28642  -0.27963
  Beta  occ. eigenvalues --   -0.22096  -0.22095  -0.20033  -0.20033
  Beta virt. eigenvalues --    0.16291   0.16291   0.17536   0.20195   0.20195
  Beta virt. eigenvalues --    0.21587   0.22879   0.22880   0.24708   0.30838
  Beta virt. eigenvalues --    0.30839   0.33268   0.33268   0.34023   0.35218
          Condensed to atoms (all electrons):
               1          2          3          4          5          6
     1  C    4.124961   0.000000   0.000000   0.000000   0.000000   0.000000
     2  C    0.000000   4.078647   0.000000   0.000000   0.000000   0.000000
     3  C    0.000000   0.000000   4.124974   0.000000   0.000000   0.000000
     4  C    0.000000   0.000000   0.000000   4.078641   0.000000   0.000000
     5  C    0.000000   0.000000   0.000000   0.000000   4.124978   0.000000
     6  C    0.000000   0.000000   0.000000   0.000000   0.000000   4.078645
     7  Cl   0.000000   0.000000   0.000000   0.000000   0.000000   0.000000
     8  H    0.000000   0.000000   0.000000   0.000000   0.000000   0.000000
     9  Cl   0.000000   0.000000   0.000000   0.000000   0.000000   0.000000
    10  H    0.000000   0.000000   0.000000   0.000000   0.000000   0.000000
    11  Cl   0.000000   0.000000   0.000000   0.000000   0.000000   0.000000
    12  H    0.000000   0.000000   0.000000   0.000000   0.000000   0.000000
               7          8          9         10         11         12
     1  C    0.000000   0.000000   0.000000   0.000000   0.000000   0.000000
     2  C    0.000000   0.000000   0.000000   0.000000   0.000000   0.000000
     3  C    0.000000   0.000000   0.000000   0.000000   0.000000   0.000000
     4  C    0.000000   0.000000   0.000000   0.000000   0.000000   0.000000
     5  C    0.000000   0.000000   0.000000   0.000000   0.000000   0.000000
     6  C    0.000000   0.000000   0.000000   0.000000   0.000000   0.000000
     7  Cl   7.102898   0.000000   0.000000   0.000000   0.000000   0.000000
     8  H    0.000000   1.026795   0.000000   0.000000   0.000000   0.000000
     9  Cl   0.000000   0.000000   7.102898   0.000000   0.000000   0.000000
    10  H    0.000000   0.000000   0.000000   1.026827   0.000000   0.000000
    11  Cl   0.000000   0.000000   0.000000   0.000000   7.102897   0.000000
    12  H    0.000000   0.000000   0.000000   0.000000   0.000000   1.026839
          Atomic-Atomic Spin Densities.
               1          2          3          4          5          6
     1  C   -0.746007   0.000000   0.000000   0.000000   0.000000   0.000000
     2  C    0.000000   0.416193   0.000000   0.000000   0.000000   0.000000
     3  C    0.000000   0.000000  -0.745907   0.000000   0.000000   0.000000
     4  C    0.000000   0.000000   0.000000   0.416200   0.000000   0.000000
     5  C    0.000000   0.000000   0.000000   0.000000  -0.745870   0.000000
     6  C    0.000000   0.000000   0.000000   0.000000   0.000000   0.416190
     7  Cl   0.000000   0.000000   0.000000   0.000000   0.000000   0.000000
     8  H    0.000000   0.000000   0.000000   0.000000   0.000000   0.000000
     9  Cl   0.000000   0.000000   0.000000   0.000000   0.000000   0.000000
    10  H    0.000000   0.000000   0.000000   0.000000   0.000000   0.000000
    11  Cl   0.000000   0.000000   0.000000   0.000000   0.000000   0.000000
    12  H    0.000000   0.000000   0.000000   0.000000   0.000000   0.000000
               7          8          9         10         11         12
     1  C    0.000000   0.000000   0.000000   0.000000   0.000000   0.000000
     2  C    0.000000   0.000000   0.000000   0.000000   0.000000   0.000000
     3  C    0.000000   0.000000   0.000000   0.000000   0.000000   0.000000
     4  C    0.000000   0.000000   0.000000   0.000000   0.000000   0.000000
     5  C    0.000000   0.000000   0.000000   0.000000   0.000000   0.000000
     6  C    0.000000   0.000000   0.000000   0.000000   0.000000   0.000000
     7  Cl  -0.005732   0.000000   0.000000   0.000000   0.000000   0.000000
     8  H    0.000000   0.668776   0.000000   0.000000   0.000000   0.000000
     9  Cl   0.000000   0.000000  -0.005734   0.000000   0.000000   0.000000
    10  H    0.000000   0.000000   0.000000   0.668805   0.000000   0.000000
    11  Cl   0.000000   0.000000   0.000000   0.000000  -0.005726   0.000000
    12  H    0.000000   0.000000   0.000000   0.000000   0.000000   0.668813
 Mulliken charges and spin densities:
               1          2
     1  C   -0.124961  -0.746007
     2  C   -0.078647   0.416193
     3  C   -0.124974  -0.745907
     4  C   -0.078641   0.416200
     5  C   -0.124978  -0.745870
     6  C   -0.078645   0.416190
     7  Cl  -0.102898  -0.005732
     8  H   -0.026795   0.668776
     9  Cl  -0.102898  -0.005734
    10  H   -0.026827   0.668805
    11  Cl  -0.102897  -0.005726
    12  H   -0.026839   0.668813
 Sum of Mulliken charges =  -1.00000   1.00000
 Mulliken charges and spin densities with hydrogens summed into heavy atoms:
               1          2
     1  C   -0.151756  -0.077231
     2  C   -0.078647   0.416193
     3  C   -0.151802  -0.077102
     4  C   -0.078641   0.416200
     5  C   -0.151816  -0.077057
     6  C   -0.078645   0.416190
     7  Cl  -0.102898  -0.005732
     9  Cl  -0.102898  -0.005734
    11  Cl  -0.102897  -0.005726
 Charge=             -1.0000 electrons
 Dipole moment (field-independent basis, Debye):
    X=              0.0009    Y=              0.0002    Z=              0.0000  Tot=              0.0009
 N-N= 2.444218496389D+02 E-N=-3.477940641349D+02  KE=-1.136941329377D+02
 Symmetry A'   KE=-8.765436011131D+01
 Symmetry A"   KE=-2.603977282637D+01
 Symmetry A'   SP= 1.000000000000D+00
 Symmetry A"   SP= 1.110223024625D-16
 Calling FoFJK, ICntrl=      2127 FMM=F ISym2X=1 I1Cent= 0 IOpClX= 1 NMat=1 NMatS=1 NMatT=0.
 ***** Axes restored to original set *****
 -------------------------------------------------------------------
 Center     Atomic                   Forces (Hartrees/Bohr)
 Number     Number              X              Y              Z
 -------------------------------------------------------------------
      1        6          -0.026856764    0.014538118    0.000000000
      2        6          -0.000135720    0.004951120    0.000000000
      3        6           0.026014449    0.015983507    0.000000000
      4        6           0.004346243   -0.002355504    0.000000000
      5        6           0.000850526   -0.030519606    0.000000000
      6        6          -0.004223293   -0.002590288    0.000000000
      7       17           0.025846802    0.015885477    0.000000000
      8        1           0.053103888   -0.028744769   -0.000000000
      9       17           0.000832765   -0.030329570    0.000000000
     10        1          -0.051438983   -0.031612436   -0.000000000
     11       17          -0.026681413    0.014442766    0.000000000
     12        1          -0.001658500    0.060351186   -0.000000000
 -------------------------------------------------------------------
 Cartesian Forces:  Max     0.060351186 RMS     0.021453206

 GradGradGradGradGradGradGradGradGradGradGradGradGradGradGradGradGradGrad
 Berny optimization.
 FormGI is forming the generalized inverse of G from B-inverse, IUseBI=4.
 Internal  Forces:  Max     0.060384474 RMS     0.018401808
 Search for a local minimum.
 Step number   1 out of a maximum of   64
 All quantities printed in internal units (Hartrees-Bohrs-Radians)
 Mixed Optimization -- RFO/linear search
 Second derivative matrix not updated -- first step.
 ITU=  0
     Eigenvalues ---    0.02011   0.02011   0.02011   0.02011   0.02011
     Eigenvalues ---    0.02011   0.02011   0.02011   0.02011   0.06524
     Eigenvalues ---    0.06524   0.06524   0.16000   0.16000   0.16000
     Eigenvalues ---    0.23477   0.23477   0.23500   0.25000   0.25000
     Eigenvalues ---    0.25000   0.29033   0.29033   0.29033   0.40971
     Eigenvalues ---    0.40971   0.44656   0.44657   0.44657   0.44657
 RFO step:  Lambda=-8.75110652D-02 EMin= 2.01065826D-02
 Linear search not attempted -- first point.
 Maximum step size (   0.300) exceeded in Quadratic search.
    -- Step size scaled by   0.422
 Iteration  1 RMS(Cart)=  0.04716179 RMS(Int)=  0.00000505
 Iteration  2 RMS(Cart)=  0.00000444 RMS(Int)=  0.00000000
 Iteration  3 RMS(Cart)=  0.00000000 RMS(Int)=  0.00000000
 ClnCor:  largest displacement from symmetrization is 1.62D-12 for atom    11.
 Variable       Old X    -DE/DX   Delta X   Delta X   Delta X     New X
                                 (Linear)    (Quad)   (Total)
    R1        2.65676  -0.02762   0.00000  -0.02185  -0.02185   2.63492
    R2        2.65677  -0.02762   0.00000  -0.02185  -0.02185   2.63492
    R3        3.33635  -0.06038   0.00000  -0.16702  -0.16702   3.16933
    R4        2.65677  -0.02762   0.00000  -0.02185  -0.02185   2.63492
    R5        3.33634  -0.03034   0.00000  -0.03393  -0.03393   3.30242
    R6        2.65677  -0.02762   0.00000  -0.02185  -0.02185   2.63492
    R7        3.33633  -0.06038   0.00000  -0.16699  -0.16699   3.16934
    R8        2.65678  -0.02762   0.00000  -0.02185  -0.02185   2.63493
    R9        3.33633  -0.03034   0.00000  -0.03392  -0.03392   3.30241
   R10        2.65675  -0.02761   0.00000  -0.02184  -0.02184   2.63491
   R11        3.33632  -0.06037   0.00000  -0.16698  -0.16698   3.16934
   R12        3.33633  -0.03034   0.00000  -0.03392  -0.03392   3.30241
    A1        2.09439   0.00114   0.00000   0.00149   0.00149   2.09589
    A2        2.09439  -0.00057   0.00000  -0.00075  -0.00075   2.09365
    A3        2.09440  -0.00057   0.00000  -0.00075  -0.00075   2.09365
    A4        2.09439  -0.00114   0.00000  -0.00149  -0.00149   2.09290
    A5        2.09440   0.00057   0.00000   0.00075   0.00075   2.09514
    A6        2.09439   0.00057   0.00000   0.00075   0.00075   2.09514
    A7        2.09440   0.00114   0.00000   0.00149   0.00149   2.09589
    A8        2.09440  -0.00057   0.00000  -0.00075  -0.00075   2.09365
    A9        2.09439  -0.00057   0.00000  -0.00074  -0.00074   2.09365
   A10        2.09439  -0.00114   0.00000  -0.00149  -0.00149   2.09290
   A11        2.09440   0.00057   0.00000   0.00074   0.00074   2.09514
   A12        2.09440   0.00057   0.00000   0.00074   0.00074   2.09514
   A13        2.09439   0.00114   0.00000   0.00149   0.00149   2.09589
   A14        2.09439  -0.00057   0.00000  -0.00074  -0.00074   2.09364
   A15        2.09440  -0.00057   0.00000  -0.00075  -0.00075   2.09366
   A16        2.09440  -0.00114   0.00000  -0.00149  -0.00149   2.09291
   A17        2.09439   0.00057   0.00000   0.00075   0.00075   2.09514
   A18        2.09439   0.00057   0.00000   0.00075   0.00075   2.09514
    D1        0.00000   0.00000   0.00000   0.00000   0.00000   0.00000
    D2        3.14159   0.00000   0.00000   0.00000   0.00000   3.14159
    D3        3.14159   0.00000   0.00000   0.00000   0.00000   3.14159
    D4        0.00000   0.00000   0.00000   0.00000   0.00000   0.00000
    D5        0.00000  -0.00000   0.00000  -0.00000   0.00000   0.00000
    D6        3.14159  -0.00000   0.00000  -0.00000   0.00000   3.14159
    D7        3.14159  -0.00000   0.00000  -0.00000   0.00000   3.14159
    D8        0.00000  -0.00000   0.00000  -0.00000   0.00000   0.00000
    D9        0.00000  -0.00000   0.00000  -0.00000   0.00000   0.00000
   D10        3.14159  -0.00000   0.00000  -0.00000   0.00000   3.14159
   D11        3.14159  -0.00000   0.00000  -0.00000   0.00000   3.14159
   D12        0.00000  -0.00000   0.00000  -0.00000   0.00000   0.00000
   D13        0.00000   0.00000   0.00000   0.00000   0.00000   0.00000
   D14        3.14159   0.00000   0.00000   0.00000   0.00000   3.14159
   D15        3.14159   0.00000   0.00000   0.00000   0.00000   3.14159
   D16        0.00000   0.00000   0.00000   0.00000   0.00000   0.00000
   D17        0.00000  -0.00000   0.00000  -0.00000   0.00000   0.00000
   D18        3.14159  -0.00000   0.00000  -0.00000   0.00000   3.14159
   D19        3.14159   0.00000   0.00000  -0.00000   0.00000   3.14159
   D20        0.00000  -0.00000   0.00000  -0.00000   0.00000   0.00000
   D21        0.00000   0.00000   0.00000   0.00000   0.00000   0.00000
   D22        3.14159   0.00000   0.00000   0.00000   0.00000   3.14159
   D23        3.14159   0.00000   0.00000   0.00000   0.00000   3.14159
   D24        0.00000   0.00000   0.00000   0.00000   0.00000   0.00000
         Item               Value     Threshold  Converged?
 Maximum Force            0.060384     0.000450     NO 
 RMS     Force            0.018402     0.000300     NO 
 Maximum Displacement     0.189894     0.001800     NO 
 RMS     Displacement     0.047161     0.001200     NO 
 Predicted change in Energy=-3.309990D-02
 GradGradGradGradGradGradGradGradGradGradGradGradGradGradGradGradGradGrad

                          Input orientation:                          
 ---------------------------------------------------------------------
 Center     Atomic      Atomic             Coordinates (Angstroms)
 Number     Number       Type             X           Y           Z
 ---------------------------------------------------------------------
      1          6           0       -3.198585    0.193641    0.000000
      2          6           0       -2.011199    0.924595    0.000000
      3          6           0       -0.785472    0.259933    0.000000
      4          6           0       -0.746141   -1.133851    0.000000
      5          6           0       -1.934623   -1.863033    0.000000
      6          6           0       -3.161334   -1.200201    0.000000
      7         17           0       -4.650202   -2.115209    0.000000
      8          1           0       -4.673510    0.992011    0.000000
      9         17           0       -2.059188    2.671499    0.000000
     10          1           0        0.643401    1.138074    0.000000
     11         17           0        0.790712   -1.965745    0.000000
     12          1           0       -1.888559   -3.539542    0.000000
 ---------------------------------------------------------------------
                    Distance matrix (angstroms):
                    1          2          3          4          5
     1  C    0.000000
     2  C    1.394338   0.000000
     3  C    2.414024   1.394340   0.000000
     4  C    2.788677   2.416107   1.394339   0.000000
     5  C    2.414024   2.788680   2.414028   1.394344   0.000000
     6  C    1.394340   2.416105   2.788675   2.416104   1.394334
     7  Cl   2.727267   4.025512   4.536236   4.025513   2.727263
     8  H    1.677140   2.663164   3.956360   4.465817   3.956360
     9  Cl   2.727270   1.747563   2.727270   4.025516   4.536243
    10  H    3.956363   2.663171   1.677143   2.663169   3.956368
    11  Cl   4.536237   4.025515   2.727269   1.747560   2.727270
    12  H    3.956366   4.465821   3.956363   2.663169   1.677142
                    6          7          8          9         10
     6  C    0.000000
     7  Cl   1.747561   0.000000
     8  H    2.663169   3.107307   0.000000
     9  Cl   4.025517   5.442971   3.107308   0.000000
    10  H    4.465819   6.213379   5.318917   3.107310   0.000000
    11  Cl   4.025510   5.442967   6.213376   5.442973   3.107312
    12  H    2.663170   3.107314   5.318922   6.213384   5.318920
                   11         12
    11  Cl   0.000000
    12  H    3.107303   0.000000
 Stoichiometry    C6H3Cl3(1-,2)
 Framework group  CS[SG(C6H3Cl3)]
 Deg. of freedom    21
 Full point group                 CS      NOp   2
 Largest Abelian subgroup         CS      NOp   2
 Largest concise Abelian subgroup C1      NOp   1
                         Standard orientation:                         
 ---------------------------------------------------------------------
 Center     Atomic      Atomic             Coordinates (Angstroms)
 Number     Number       Type             X           Y           Z
 ---------------------------------------------------------------------
      1          6           0        1.207012   -0.696868    0.000000
      2          6           0        0.000002   -1.394940    0.000000
      3          6           0       -1.207011   -0.696870    0.000000
      4          6           0       -1.208054    0.697469    0.000000
      5          6           0        0.000002    1.393740    0.000000
      6          6           0        1.208050    0.697472    0.000000
      7         17           0        2.721482    1.571251    0.000000
      8          1           0        2.659458   -1.535437    0.000000
      9         17           0        0.000003   -3.142503    0.000000
     10          1           0       -2.659459   -1.535443    0.000000
     11         17           0       -2.721485    1.571250    0.000000
     12          1           0       -0.000007    3.070882    0.000000
 ---------------------------------------------------------------------
 Rotational constants (GHZ):           0.8391680           0.8391659           0.4195835
 Standard basis: VSTO-6G (5D, 7F)
 There are    30 symmetry adapted cartesian basis functions of A'  symmetry.
 There are     9 symmetry adapted cartesian basis functions of A"  symmetry.
 There are    30 symmetry adapted basis functions of A'  symmetry.
 There are     9 symmetry adapted basis functions of A"  symmetry.
    39 basis functions,   234 primitive gaussians,    39 cartesian basis functions
    25 alpha electrons       24 beta electrons
       nuclear repulsion energy       246.1248296637 Hartrees.
 Integral buffers will be    131072 words long.
 Regular integral format.
 Two-electron integral symmetry is turned off.
 Do NDO integrals.
 One-electron integrals computed using PRISM.
 NBasis=    39 RedAO= T EigKep=  1.00D+00  NBF=    30     9
 NBsUse=    39 1.00D-06 EigRej= -1.00D+00 NBFU=    30     9
 Initial guess from the checkpoint file:  "geometry_chks/135ClBzAnionRadical.chk"
 B after Tr=    -0.000000   -0.000000    0.000000
         Rot=    0.866026    0.000000    0.000000    0.499999 Ang=  60.00 deg.
 Initial guess orbital symmetries:
 Alpha Orbitals:
       Occupied  (A') (A') (A') (A') (A') (A') (A') (A') (A') (A')
                 (A') (A') (A") (A") (A") (A') (A') (A') (A') (A")
                 (A') (A') (A") (A") (A')
       Virtual   (A') (A') (A') (A") (A") (A') (A') (A") (A') (A')
                 (A') (A') (A') (A')
 Beta  Orbitals:
       Occupied  (A') (A') (A') (A') (A') (A') (A') (A') (A') (A')
                 (A') (A') (A") (A") (A") (A') (A') (A') (A') (A")
                 (A') (A') (A") (A")
       Virtual   (A") (A") (A') (A') (A') (A') (A') (A') (A") (A')
                 (A') (A') (A') (A') (A')
 Initial guess <Sx>= 0.0000 <Sy>= 0.0000 <Sz>= 0.5000 <S**2>= 1.8488 S= 0.9487
 Keep J ints in memory in canonical form, NReq=863709.
 Overlap will be assumed to be unity.
 Requested convergence on RMS density matrix=1.00D-08 within  32 cycles.
 Requested convergence on MAX density matrix=1.00D-06.
 Requested convergence on             energy=1.00D-06.
 No special actions if energy rises.
 Fock symm off for IB=2 I1=    1 I=   31 J=   22 Cut=1.00D-07 Err=3.57D-03
 Fock matrix is not symmetric: symmetry in diagonalization turned off.
 SCF Done:  E(UAM1) =  0.292028669901     A.U. after   18 cycles
            NFock= 17  Conv=0.85D-08     -V/T= 1.0026
 <Sx>= 0.0000 <Sy>= 0.0000 <Sz>= 0.5000 <S**2>= 1.3765 S= 0.7754
 <L.S>=  0.00000000000    
 Annihilation of the first spin contaminant:
 S**2 before annihilation     1.3765,   after     1.2126
 QCSCF skips out because SCF is already converged.
 Calling FoFJK, ICntrl=      2127 FMM=F ISym2X=1 I1Cent= 0 IOpClX= 1 NMat=1 NMatS=1 NMatT=0.
 ***** Axes restored to original set *****
 -------------------------------------------------------------------
 Center     Atomic                   Forces (Hartrees/Bohr)
 Number     Number              X              Y              Z
 -------------------------------------------------------------------
      1        6          -0.051561284    0.027910372    0.000000000
      2        6          -0.000224339    0.008163956   -0.000000000
      3        6           0.049938849    0.030685275   -0.000000000
      4        6           0.007172017   -0.003883714    0.000000000
      5        6           0.001618513   -0.058587225    0.000000000
      6        6          -0.006959165   -0.004274526   -0.000000000
      7       17           0.016209524    0.009962659    0.000000000
      8        1           0.064942725   -0.035153103   -0.000000000
      9       17           0.000522007   -0.019021218   -0.000000000
     10        1          -0.062898875   -0.038655083   -0.000000000
     11       17          -0.016731815    0.009057059    0.000000000
     12        1          -0.002028157    0.073795549   -0.000000000
 -------------------------------------------------------------------
 Cartesian Forces:  Max     0.073795549 RMS     0.027862649

 GradGradGradGradGradGradGradGradGradGradGradGradGradGradGradGradGradGrad
 Berny optimization.
 Using GEDIIS/GDIIS optimizer.
 FormGI is forming the generalized inverse of G from B-inverse, IUseBI=4.
 Internal  Forces:  Max     0.073846451 RMS     0.018494659
 Search for a local minimum.
 Step number   2 out of a maximum of   64
 All quantities printed in internal units (Hartrees-Bohrs-Radians)
 Mixed Optimization -- RFO/linear search
 Update second derivatives using D2CorX and points    1    2
 DE= -3.89D-02 DEPred=-3.31D-02 R= 1.18D+00
 TightC=F SS=  1.41D+00  RLast= 3.00D-01 DXNew= 5.0454D-01 9.0000D-01
 Trust test= 1.18D+00 RLast= 3.00D-01 DXMaxT set to 5.05D-01
 ITU=  1  0
 Use linear search instead of GDIIS.
     Eigenvalues ---   -0.33094   0.02011   0.02011   0.02011   0.02011
     Eigenvalues ---    0.02011   0.02011   0.02011   0.02011   0.02011
     Eigenvalues ---    0.03557   0.06524   0.06524   0.16000   0.16000
     Eigenvalues ---    0.16000   0.23476   0.23476   0.23497   0.25000
     Eigenvalues ---    0.25000   0.25000   0.29033   0.29033   0.34132
     Eigenvalues ---    0.40921   0.40921   0.44656   0.44657   0.44657
 RFO step:  Lambda=-3.40332694D-01 EMin=-3.30938924D-01
 I=     1 Eig=   -3.31D-01 Dot1=  3.18D-02
 I=     1 Stepn=  6.00D-01 RXN=   6.00D-01 EDone=F
 Mixed    1 eigenvectors in step.  Raw Step.Grad=  3.18D-02.
 RFO eigenvector is Hessian eigenvector with negative curvature.
 Taking step of  6.00D-01 in eigenvector direction(s).  Step.Grad= -3.71D-02.
 Skip linear search -- no minimum in search direction.
 Maximum step size (   0.505) exceeded in Quadratic search.
    -- Step size not scaled.
 Iteration  1 RMS(Cart)=  0.08600074 RMS(Int)=  0.00792890
 Iteration  2 RMS(Cart)=  0.00792101 RMS(Int)=  0.00000005
 Iteration  3 RMS(Cart)=  0.00000001 RMS(Int)=  0.00000005
 ClnCor:  largest displacement from symmetrization is 1.45D-10 for atom    10.
 Variable       Old X    -DE/DX   Delta X   Delta X   Delta X     New X
                                 (Linear)    (Quad)   (Total)
    R1        2.63492  -0.01304   0.00000   0.14824   0.14824   2.78316
    R2        2.63492  -0.01304   0.00000   0.14824   0.14824   2.78316
    R3        3.16933  -0.07385   0.00000  -0.23379  -0.23379   2.93555
    R4        2.63492  -0.01304   0.00000   0.14824   0.14824   2.78317
    R5        3.30242  -0.01903   0.00000   0.14650   0.14650   3.44892
    R6        2.63492  -0.01304   0.00000   0.14824   0.14824   2.78316
    R7        3.16934  -0.07383   0.00000  -0.23358  -0.23358   2.93576
    R8        2.63493  -0.01304   0.00000   0.14825   0.14825   2.78318
    R9        3.30241  -0.01903   0.00000   0.14651   0.14651   3.44892
   R10        2.63491  -0.01303   0.00000   0.14821   0.14821   2.78312
   R11        3.16934  -0.07382   0.00000  -0.23355  -0.23355   2.93579
   R12        3.30241  -0.01903   0.00000   0.14649   0.14649   3.44890
    A1        2.09589   0.00111   0.00000  -0.00078  -0.00078   2.09510
    A2        2.09365  -0.00056   0.00000   0.00039   0.00039   2.09404
    A3        2.09365  -0.00056   0.00000   0.00039   0.00039   2.09404
    A4        2.09290  -0.00111   0.00000   0.00078   0.00078   2.09368
    A5        2.09514   0.00056   0.00000  -0.00039  -0.00039   2.09475
    A6        2.09514   0.00056   0.00000  -0.00039  -0.00039   2.09475
    A7        2.09589   0.00111   0.00000  -0.00079  -0.00079   2.09510
    A8        2.09365  -0.00056   0.00000   0.00039   0.00039   2.09404
    A9        2.09365  -0.00055   0.00000   0.00040   0.00040   2.09405
   A10        2.09290  -0.00111   0.00000   0.00078   0.00078   2.09369
   A11        2.09514   0.00055   0.00000  -0.00039  -0.00039   2.09475
   A12        2.09514   0.00055   0.00000  -0.00039  -0.00039   2.09475
   A13        2.09589   0.00111   0.00000  -0.00078  -0.00078   2.09510
   A14        2.09364  -0.00055   0.00000   0.00040   0.00040   2.09404
   A15        2.09366  -0.00056   0.00000   0.00039   0.00039   2.09404
   A16        2.09291  -0.00111   0.00000   0.00079   0.00079   2.09370
   A17        2.09514   0.00056   0.00000  -0.00039  -0.00039   2.09474
   A18        2.09514   0.00056   0.00000  -0.00040  -0.00040   2.09474
    D1        0.00000  -0.00000   0.00000  -0.00000   0.00000   0.00000
    D2        3.14159  -0.00000   0.00000  -0.00000   0.00000   3.14159
    D3        3.14159   0.00000   0.00000  -0.00000   0.00000   3.14159
    D4        0.00000   0.00000   0.00000  -0.00000   0.00000   0.00000
    D5        0.00000   0.00000   0.00000   0.00000   0.00000   0.00000
    D6        3.14159   0.00000   0.00000   0.00000   0.00000   3.14159
    D7        3.14159  -0.00000   0.00000   0.00000   0.00000   3.14159
    D8        0.00000  -0.00000   0.00000  -0.00000   0.00000   0.00000
    D9        0.00000  -0.00000   0.00000   0.00000   0.00000   0.00000
   D10        3.14159  -0.00000   0.00000   0.00000   0.00000   3.14159
   D11        3.14159   0.00000   0.00000   0.00000   0.00000   3.14159
   D12        0.00000  -0.00000   0.00000   0.00000   0.00000   0.00000
   D13        0.00000   0.00000   0.00000   0.00000   0.00000   0.00000
   D14        3.14159  -0.00000   0.00000  -0.00000   0.00000   3.14159
   D15        3.14159   0.00000   0.00000   0.00000   0.00000   3.14159
   D16        0.00000   0.00000   0.00000  -0.00000   0.00000   0.00000
   D17        0.00000  -0.00000   0.00000  -0.00000   0.00000   0.00000
   D18        3.14159  -0.00000   0.00000  -0.00000   0.00000   3.14159
   D19        3.14159   0.00000   0.00000   0.00000   0.00000   3.14159
   D20        0.00000  -0.00000   0.00000   0.00000   0.00000   0.00000
   D21        0.00000   0.00000   0.00000  -0.00000   0.00000   0.00000
   D22        3.14159   0.00000   0.00000   0.00000   0.00000   3.14159
   D23        3.14159   0.00000   0.00000   0.00000   0.00000   3.14159
   D24        0.00000   0.00000   0.00000   0.00000   0.00000   0.00000
         Item               Value     Threshold  Converged?
 Maximum Force            0.073846     0.000450     NO 
 RMS     Force            0.018495     0.000300     NO 
 Maximum Displacement     0.294076     0.001800     NO 
 RMS     Displacement     0.087459     0.001200     NO 
 Predicted change in Energy=-9.135282D-02
 GradGradGradGradGradGradGradGradGradGradGradGradGradGradGradGradGradGrad

                          Input orientation:                          
 ---------------------------------------------------------------------
 Center     Atomic      Atomic             Coordinates (Angstroms)
 Number     Number       Type             X           Y           Z
 ---------------------------------------------------------------------
      1          6           0       -3.267840    0.231129    0.000000
      2          6           0       -2.013352    1.002717    0.000000
      3          6           0       -0.718387    0.301170    0.000000
      4          6           0       -0.677426   -1.171043    0.000000
      5          6           0       -1.932477   -1.941740    0.000000
      6          6           0       -3.227912   -1.241114    0.000000
      7         17           0       -4.782822   -2.196712    0.000000
      8          1           0       -4.633970    0.970603    0.000000
      9         17           0       -2.063478    2.827117    0.000000
     10          1           0        0.605175    1.114597    0.000000
     11         17           0        0.927609   -2.039848    0.000000
     12          1           0       -1.889819   -3.494706    0.000000
 ---------------------------------------------------------------------
                    Distance matrix (angstroms):
                    1          2          3          4          5
     1  C    0.000000
     2  C    1.472782   0.000000
     3  C    2.550415   1.472788   0.000000
     4  C    2.945562   2.551457   1.472782   0.000000
     5  C    2.550403   2.945568   2.550423   1.472796   0.000000
     6  C    1.472785   2.551457   2.945564   2.551448   1.472762
     7  Cl   2.861745   4.231585   4.770644   4.231581   2.861727
     8  H    1.553426   2.620814   3.972395   4.498988   3.972380
     9  Cl   2.861755   1.825088   2.861761   4.231598   4.770656
    10  H    3.972500   2.620916   1.553538   2.620918   3.972515
    11  Cl   4.770653   4.231602   2.861760   1.825091   2.861768
    12  H    3.972504   4.499120   3.972521   2.620937   1.553551
                    6          7          8          9         10
     6  C    0.000000
     7  Cl   1.825080   0.000000
     8  H    2.620819   3.170811   0.000000
     9  Cl   4.231597   5.712591   3.170816   0.000000
    10  H    4.499103   6.324182   5.241123   3.170872   0.000000
    11  Cl   4.231586   5.712585   6.324079   5.712613   3.170881
    12  H    2.620910   3.170844   5.241120   6.324208   5.241247
                   11         12
    11  Cl   0.000000
    12  H    3.170885   0.000000
 Stoichiometry    C6H3Cl3(1-,2)
 Framework group  CS[SG(C6H3Cl3)]
 Deg. of freedom    21
 Full point group                 CS      NOp   2
 Largest Abelian subgroup         CS      NOp   2
 Largest concise Abelian subgroup C1      NOp   1
                         Standard orientation:                         
 ---------------------------------------------------------------------
 Center     Atomic      Atomic             Coordinates (Angstroms)
 Number     Number       Type             X           Y           Z
 ---------------------------------------------------------------------
      1          6           0        1.275214   -0.736227    0.000000
      2          6           0        0.000019   -1.473088    0.000000
      3          6           0       -1.275201   -0.736257   -0.000000
      4          6           0       -1.275734    0.736525   -0.000000
      5          6           0       -0.000000    1.472480   -0.000000
      6          6           0        1.275714    0.736558    0.000000
      7         17           0        2.856270    1.649113    0.000000
      8          1           0        2.620530   -1.512922    0.000000
      9         17           0        0.000044   -3.298176    0.000000
     10          1           0       -2.620593   -1.513045   -0.000000
     11         17           0       -2.856314    1.649062   -0.000000
     12          1           0       -0.000012    3.026032   -0.000000
 ---------------------------------------------------------------------
 Rotational constants (GHZ):           0.7628260           0.7628186           0.3814112
 Standard basis: VSTO-6G (5D, 7F)
 There are    30 symmetry adapted cartesian basis functions of A'  symmetry.
 There are     9 symmetry adapted cartesian basis functions of A"  symmetry.
 There are    30 symmetry adapted basis functions of A'  symmetry.
 There are     9 symmetry adapted basis functions of A"  symmetry.
    39 basis functions,   234 primitive gaussians,    39 cartesian basis functions
    25 alpha electrons       24 beta electrons
       nuclear repulsion energy       239.6957231646 Hartrees.
 Integral buffers will be    131072 words long.
 Regular integral format.
 Two-electron integral symmetry is turned off.
 Do NDO integrals.
 One-electron integrals computed using PRISM.
 NBasis=    39 RedAO= T EigKep=  1.00D+00  NBF=    30     9
 NBsUse=    39 1.00D-06 EigRej= -1.00D+00 NBFU=    30     9
 Initial guess from the checkpoint file:  "geometry_chks/135ClBzAnionRadical.chk"
 B after Tr=     0.000000   -0.000000    0.000000
         Rot=    1.000000   -0.000000    0.000000   -0.000005 Ang=  -0.00 deg.
 Initial guess orbital symmetries:
 Alpha Orbitals:
       Occupied  (A') (A') (A') (A') (A') (A') (A') (A') (A') (A')
                 (A") (A') (A') (A") (A") (A') (A') (A') (A') (A")
                 (A') (A') (A") (A") (A')
       Virtual   (A') (A') (A') (A") (A") (A') (A') (A") (A') (A')
                 (A') (A') (A') (A')
 Beta  Orbitals:
       Occupied  (A') (A') (A') (A') (A') (A') (A') (A') (A') (A')
                 (A') (A') (A") (A") (A") (A') (A') (A') (A') (A")
                 (A') (A') (A") (A")
       Virtual   (A") (A") (A') (A') (A') (A') (A') (A') (A") (A')
                 (A') (A') (A') (A') (A')
 Initial guess <Sx>= 0.0000 <Sy>= 0.0000 <Sz>= 0.5000 <S**2>= 1.3765 S= 0.7754
 Keep J ints in memory in canonical form, NReq=863709.
 Overlap will be assumed to be unity.
 Requested convergence on RMS density matrix=1.00D-08 within  32 cycles.
 Requested convergence on MAX density matrix=1.00D-06.
 Requested convergence on             energy=1.00D-06.
 No special actions if energy rises.
 Fock symm off for IB=2 I1=    1 I=   31 J=   22 Cut=1.00D-07 Err=7.12D-03
 Fock matrix is not symmetric: symmetry in diagonalization turned off.
 Rare condition: small coef for last iteration:  0.000D+00
 Rare condition: small coef for last iteration:  0.000D+00
 >>>>>>>>>> Convergence criterion not met.
 SCF Done:  E(UAM1) =  0.307318863638     A.U. after   33 cycles
            NFock= 32  Conv=0.83D-07     -V/T= 1.0027
 <Sx>= 0.0000 <Sy>= 0.0000 <Sz>= 0.5000 <S**2>= 1.6292 S= 0.8708
 <L.S>=  0.00000000000    
 Annihilation of the first spin contaminant:
 S**2 before annihilation     1.6292,   after     1.7134
 Keep J ints in memory in canonical form, NReq=864109.
 LinEq1:  Iter=  0 NonCon=     1 RMS=5.67D-07 Max=1.08D-05 NDo=     1
 AX will form     1 AO Fock derivatives at one time.
 LinEq1:  Iter=  1 NonCon=     1 RMS=5.85D-08 Max=9.95D-07 NDo=     1
 LinEq1:  Iter=  2 NonCon=     1 RMS=8.28D-09 Max=6.12D-08 NDo=     1
 LinEq1:  Iter=  3 NonCon=     1 RMS=2.99D-09 Max=3.69D-08 NDo=     1
 LinEq1:  Iter=  4 NonCon=     1 RMS=6.58D-10 Max=8.89D-09 NDo=     1
 LinEq1:  Iter=  5 NonCon=     1 RMS=8.76D-11 Max=6.45D-10 NDo=     1
 LinEq1:  Iter=  6 NonCon=     0 RMS=1.82D-11 Max=2.72D-10 NDo=     1
 Linear equations converged to 3.071D-11 3.071D-10 after     6 iterations.
 SCF Done:  E(UAM1) =  0.307318863485     a.u. after    2 cycles
            Convg  =    0.2053D-06                     8 Fock formations.
              S**2 =  1.6292                  -V/T =  1.0027
 <Sx>= 0.0000 <Sy>= 0.0000 <Sz>= 0.5000 <S**2>= 1.6292 S= 0.8708
 <L.S>=  0.00000000000    
 Annihilation of the first spin contaminant:
 S**2 before annihilation     1.6292,   after     1.7133
 Calling FoFJK, ICntrl=      2127 FMM=F ISym2X=1 I1Cent= 0 IOpClX= 1 NMat=1 NMatS=1 NMatT=0.
 ***** Axes restored to original set *****
 -------------------------------------------------------------------
 Center     Atomic                   Forces (Hartrees/Bohr)
 Number     Number              X              Y              Z
 -------------------------------------------------------------------
      1        6          -0.002961075    0.001607320    0.000000000
      2        6           0.001510538   -0.055159444    0.000000000
      3        6           0.002898492    0.001788183    0.000000000
      4        6          -0.048504536    0.026252040    0.000000000
      5        6           0.000102907   -0.003412091   -0.000000000
      6        6           0.046998594    0.028897192    0.000000000
      7       17           0.050688706    0.031150411    0.000000000
      8        1           0.071839317   -0.038886270   -0.000000000
      9       17           0.001635788   -0.059476890    0.000000000
     10        1          -0.069633387   -0.042796397   -0.000000000
     11       17          -0.052332062    0.028327094    0.000000000
     12        1          -0.002243283    0.081708850   -0.000000000
 -------------------------------------------------------------------
 Cartesian Forces:  Max     0.081708850 RMS     0.033258625

 GradGradGradGradGradGradGradGradGradGradGradGradGradGradGradGradGradGrad
 Berny optimization.
 Using GEDIIS/GDIIS optimizer.
 FormGI is forming the generalized inverse of G from B-inverse, IUseBI=4.
 Internal  Forces:  Max     0.096505317 RMS     0.040225436
 Search for a local minimum.
 Step number   3 out of a maximum of   64
 All quantities printed in internal units (Hartrees-Bohrs-Radians)
 Mixed Optimization -- RFO/linear search
 Update second derivatives using D2CorX and points    1    3    2
 ITU=  0  1  0
 Use linear search instead of GDIIS.
     Eigenvalues ---    0.01735   0.02011   0.02011   0.02011   0.02011
     Eigenvalues ---    0.02011   0.02011   0.02011   0.02011   0.02011
     Eigenvalues ---    0.06524   0.06524   0.16000   0.16000   0.16000
     Eigenvalues ---    0.21639   0.23479   0.23479   0.25000   0.25000
     Eigenvalues ---    0.25000   0.27875   0.29033   0.29033   0.41245
     Eigenvalues ---    0.41245   0.44656   0.44657   0.44657   0.65422
 RFO step:  Lambda=-1.21410862D-01 EMin= 1.73514067D-02
 Quartic linear search produced a step of -0.69054.
 Maximum step size (   0.505) exceeded in Quadratic search.
    -- Step size scaled by   0.588
 Iteration  1 RMS(Cart)=  0.09385201 RMS(Int)=  0.00009924
 Iteration  2 RMS(Cart)=  0.00008846 RMS(Int)=  0.00000001
 Iteration  3 RMS(Cart)=  0.00000001 RMS(Int)=  0.00000001
 ClnCor:  largest displacement from symmetrization is 6.03D-11 for atom    10.
 Variable       Old X    -DE/DX   Delta X   Delta X   Delta X     New X
                                 (Linear)    (Quad)   (Total)
    R1        2.78316  -0.09651  -0.10237  -0.01471  -0.11708   2.66607
    R2        2.78316  -0.09650  -0.10237  -0.01471  -0.11708   2.66608
    R3        2.93555  -0.08169   0.16144  -0.28578  -0.12434   2.81121
    R4        2.78317  -0.09650  -0.10237  -0.01471  -0.11708   2.66608
    R5        3.44892  -0.05950  -0.10117  -0.05194  -0.15310   3.29581
    R6        2.78316  -0.09650  -0.10236  -0.01472  -0.11709   2.66607
    R7        2.93576  -0.08173   0.16130  -0.28573  -0.12443   2.81133
    R8        2.78318  -0.09650  -0.10238  -0.01472  -0.11710   2.66608
    R9        3.44892  -0.05951  -0.10117  -0.05193  -0.15310   3.29582
   R10        2.78312  -0.09649  -0.10234  -0.01471  -0.11705   2.66606
   R11        2.93579  -0.08174   0.16128  -0.28571  -0.12444   2.81135
   R12        3.44890  -0.05950  -0.10116  -0.05193  -0.15309   3.29581
    A1        2.09510  -0.00971   0.00054   0.00499   0.00554   2.10064
    A2        2.09404   0.00485  -0.00027  -0.00250  -0.00277   2.09127
    A3        2.09404   0.00485  -0.00027  -0.00250  -0.00277   2.09127
    A4        2.09368   0.00971  -0.00054  -0.00499  -0.00553   2.08815
    A5        2.09475  -0.00485   0.00027   0.00249   0.00277   2.09752
    A6        2.09475  -0.00486   0.00027   0.00250   0.00277   2.09752
    A7        2.09510  -0.00970   0.00054   0.00499   0.00553   2.10063
    A8        2.09404   0.00485  -0.00027  -0.00250  -0.00277   2.09127
    A9        2.09405   0.00485  -0.00028  -0.00249  -0.00277   2.09128
   A10        2.09369   0.00969  -0.00054  -0.00498  -0.00552   2.08816
   A11        2.09475  -0.00485   0.00027   0.00249   0.00276   2.09751
   A12        2.09475  -0.00485   0.00027   0.00249   0.00276   2.09751
   A13        2.09510  -0.00970   0.00054   0.00499   0.00553   2.10063
   A14        2.09404   0.00485  -0.00027  -0.00249  -0.00276   2.09128
   A15        2.09404   0.00485  -0.00027  -0.00250  -0.00276   2.09128
   A16        2.09370   0.00970  -0.00055  -0.00499  -0.00554   2.08816
   A17        2.09474  -0.00485   0.00027   0.00249   0.00277   2.09751
   A18        2.09474  -0.00485   0.00027   0.00250   0.00277   2.09752
    D1       -0.00000   0.00000   0.00000   0.00000   0.00000   0.00000
    D2        3.14159   0.00000   0.00000   0.00000   0.00000   3.14159
    D3        3.14159   0.00000   0.00000   0.00000   0.00000   3.14159
    D4       -0.00000   0.00000   0.00000   0.00000   0.00000   0.00000
    D5        0.00000  -0.00000   0.00000  -0.00000  -0.00000   0.00000
    D6        3.14159  -0.00000   0.00000  -0.00000   0.00000   3.14159
    D7        3.14159  -0.00000   0.00000  -0.00000   0.00000   3.14159
    D8        0.00000  -0.00000   0.00000  -0.00000   0.00000   0.00000
    D9        0.00000  -0.00000   0.00000  -0.00000  -0.00000   0.00000
   D10        3.14159  -0.00000   0.00000  -0.00000   0.00000   3.14159
   D11        3.14159  -0.00000   0.00000  -0.00000   0.00000   3.14159
   D12       -0.00000  -0.00000   0.00000  -0.00000   0.00000   0.00000
   D13       -0.00000   0.00000   0.00000  -0.00000   0.00000   0.00000
   D14        3.14159   0.00000   0.00000   0.00000   0.00000   3.14159
   D15        3.14159   0.00000   0.00000   0.00000   0.00000   3.14159
   D16        0.00000   0.00000   0.00000   0.00000  -0.00000   0.00000
   D17        0.00000  -0.00000   0.00000   0.00000  -0.00000   0.00000
   D18        3.14159  -0.00000   0.00000  -0.00000   0.00000   3.14159
   D19        3.14159  -0.00000   0.00000  -0.00000   0.00000   3.14159
   D20       -0.00000  -0.00000   0.00000  -0.00000   0.00000   0.00000
   D21       -0.00000   0.00000   0.00000   0.00000   0.00000   0.00000
   D22        3.14159  -0.00000   0.00000   0.00000   0.00000   3.14159
   D23        3.14159   0.00000   0.00000   0.00000   0.00000   3.14159
   D24       -0.00000   0.00000   0.00000   0.00000   0.00000   0.00000
         Item               Value     Threshold  Converged?
 Maximum Force            0.096505     0.000450     NO 
 RMS     Force            0.040225     0.000300     NO 
 Maximum Displacement     0.265869     0.001800     NO 
 RMS     Displacement     0.093860     0.001200     NO 
 Predicted change in Energy=-6.996258D-02
 GradGradGradGradGradGradGradGradGradGradGradGradGradGradGradGradGradGrad

                          Input orientation:                          
 ---------------------------------------------------------------------
 Center     Atomic      Atomic             Coordinates (Angstroms)
 Number     Number       Type             X           Y           Z
 ---------------------------------------------------------------------
      1          6           0       -3.211374    0.200565    0.000000
      2          6           0       -2.011708    0.943015    0.000000
      3          6           0       -0.773085    0.267549   -0.000000
      4          6           0       -0.729948   -1.142615   -0.000000
      5          6           0       -1.934227   -1.877566   -0.000000
      6          6           0       -3.177032   -1.209846    0.000000
      7         17           0       -4.662928   -2.123019    0.000000
      8          1           0       -4.519637    0.908720    0.000000
      9         17           0       -2.059608    2.686426    0.000000
     10          1           0        0.494380    1.046496   -0.000000
     11         17           0        0.803838   -1.972847   -0.000000
     12          1           0       -1.893370   -3.364707   -0.000000
 ---------------------------------------------------------------------
                    Distance matrix (angstroms):
                    1          2          3          4          5
     1  C    0.000000
     2  C    1.410826   0.000000
     3  C    2.439208   1.410830   0.000000
     4  C    2.821631   2.448011   1.410823   0.000000
     5  C    2.439207   2.821645   2.439215   1.410830   0.000000
     6  C    1.410829   2.448018   2.821641   2.448007   1.410821
     7  Cl   2.739718   4.053336   4.565708   4.053335   2.739718
     8  H    1.487628   2.508163   3.801019   4.309259   3.801018
     9  Cl   2.739720   1.744068   2.739727   4.053338   4.565714
    10  H    3.801080   2.508223   1.487692   2.508224   3.801088
    11  Cl   4.565703   4.053338   2.739719   1.744072   2.739722
    12  H    3.801092   4.309348   3.801095   2.508235   1.487702
                    6          7          8          9         10
     6  C    0.000000
     7  Cl   1.744068   0.000000
     8  H    2.508168   3.035124   0.000000
     9  Cl   4.053340   5.468824   3.035124   0.000000
    10  H    4.309332   6.053400   5.015909   3.035164   0.000000
    11  Cl   4.053332   5.468828   6.053331   5.468834   3.035160
    12  H    2.508230   3.035168   5.015921   6.053416   5.015981
                   11         12
    11  Cl   0.000000
    12  H    3.035161   0.000000
 Stoichiometry    C6H3Cl3(1-,2)
 Framework group  CS[SG(C6H3Cl3)]
 Deg. of freedom    21
 Full point group                 CS      NOp   2
 Largest Abelian subgroup         CS      NOp   2
 Largest concise Abelian subgroup C1      NOp   1
                         Standard orientation:                         
 ---------------------------------------------------------------------
 Center     Atomic      Atomic             Coordinates (Angstroms)
 Number     Number       Type             X           Y           Z
 ---------------------------------------------------------------------
      1          6           0        0.000000   -1.408273    0.000000
      2          6           0       -1.224009   -0.706681    0.000000
      3          6           0       -1.219606    0.704142    0.000000
      4          6           0       -0.000001    1.413358    0.000000
      5          6           0        1.219609    0.704139    0.000000
      6          6           0        1.224009   -0.706675    0.000000
      7         17           0        2.734411   -1.578717    0.000000
      8          1           0       -0.000000   -2.895901    0.000000
      9         17           0       -2.734413   -1.578721    0.000000
     10          1           0       -2.507986    1.447986    0.000000
     11         17           0        0.000001    3.157430    0.000000
     12          1           0        2.507995    1.447994    0.000000
 ---------------------------------------------------------------------
 Rotational constants (GHZ):           0.8322308           0.8322286           0.4161149
 Standard basis: VSTO-6G (5D, 7F)
 There are    30 symmetry adapted cartesian basis functions of A'  symmetry.
 There are     9 symmetry adapted cartesian basis functions of A"  symmetry.
 There are    30 symmetry adapted basis functions of A'  symmetry.
 There are     9 symmetry adapted basis functions of A"  symmetry.
    39 basis functions,   234 primitive gaussians,    39 cartesian basis functions
    25 alpha electrons       24 beta electrons
       nuclear repulsion energy       246.1692264221 Hartrees.
 Integral buffers will be    131072 words long.
 Regular integral format.
 Two-electron integral symmetry is turned off.
 Do NDO integrals.
 One-electron integrals computed using PRISM.
 NBasis=    39 RedAO= T EigKep=  1.00D+00  NBF=    30     9
 NBsUse=    39 1.00D-06 EigRej= -1.00D+00 NBFU=    30     9
 Lowest energy guess from the checkpoint file:  "geometry_chks/135ClBzAnionRadical.chk"
 B after Tr=    -0.000000    0.000000   -0.000000
         Rot=    0.866025    0.000000   -0.000000    0.500000 Ang=  60.00 deg.
 B after Tr=    -0.000000    0.000000   -0.000000
         Rot=    0.866023    0.000000    0.000000    0.500005 Ang=  60.00 deg.
 Initial guess orbital symmetries:
 Alpha Orbitals:
       Occupied  (A') (A") (A") (A') (A') (A") (A') (A') (A') (A')
                 (A') (A') (A') (A') (A") (A") (A") (A") (A") (A")
                 (A") (A") (A") (A") (A")
       Virtual   (A') (A") (A") (A') (A') (A") (A') (A') (A') (A')
                 (A') (A') (A') (A')
 Beta  Orbitals:
       Occupied  (A") (A") (A') (A') (A') (A") (A') (A') (A') (A')
                 (A') (A') (A') (A') (A') (A") (A") (A") (A') (A")
                 (A") (A") (A") (A")
       Virtual   (A") (A") (A') (A') (A') (A") (A') (A') (A') (A')
                 (A') (A') (A') (A') (A')
 Initial guess <Sx>= 0.0000 <Sy>= 0.0000 <Sz>= 0.5000 <S**2>= 1.4251 S= 0.7943
 Keep J ints in memory in canonical form, NReq=863709.
 Overlap will be assumed to be unity.
 Requested convergence on RMS density matrix=1.00D-08 within  32 cycles.
 Requested convergence on MAX density matrix=1.00D-06.
 Requested convergence on             energy=1.00D-06.
 No special actions if energy rises.
 An orbital has undefined symmetry, so N**3 symmetry is turned off.
 Rare condition: small coef for last iteration:  0.000D+00
 Rare condition: small coef for last iteration:  0.000D+00
 Rare condition: small coef for last iteration:  0.000D+00
 Rare condition: small coef for last iteration:  0.000D+00
 Rare condition: small coef for last iteration:  0.000D+00
 Rare condition: small coef for last iteration:  0.000D+00
 Rare condition: small coef for last iteration:  0.000D+00
 Rare condition: small coef for last iteration:  0.000D+00
 Rare condition: small coef for last iteration:  0.000D+00
 Rare condition: small coef for last iteration:  0.000D+00
 Rare condition: small coef for last iteration:  0.000D+00
 Rare condition: small coef for last iteration:  0.000D+00
 Rare condition: small coef for last iteration:  0.000D+00
 >>>>>>>>>> Convergence criterion not met.
 SCF Done:  E(UAM1) =  0.210549556707     A.U. after   33 cycles
            NFock= 32  Conv=0.47D-05     -V/T= 1.0018
 <Sx>= 0.0000 <Sy>= 0.0000 <Sz>= 0.5000 <S**2>= 1.2917 S= 0.7417
 <L.S>=  0.00000000000    
 Annihilation of the first spin contaminant:
 S**2 before annihilation     1.2917,   after     1.0381
 Keep J ints in memory in canonical form, NReq=864109.
 Gradient too large for Newton-Raphson -- use scaled steepest descent instead.
     Accept linear search using points  5 and  6.
 LinEq1:  Iter=  0 NonCon=     1 RMS=1.04D-03 Max=2.43D-02 NDo=     1
 AX will form     1 AO Fock derivatives at one time.
 LinEq1:  Iter=  1 NonCon=     1 RMS=2.85D-04 Max=3.26D-03 NDo=     1
 LinEq1:  Iter=  2 NonCon=     1 RMS=4.14D-05 Max=4.36D-04 NDo=     1
 LinEq1:  Iter=  3 NonCon=     1 RMS=8.33D-06 Max=1.01D-04 NDo=     1
 LinEq1:  Iter=  4 NonCon=     1 RMS=2.34D-06 Max=3.55D-05 NDo=     1
 LinEq1:  Iter=  5 NonCon=     1 RMS=6.59D-07 Max=8.64D-06 NDo=     1
 LinEq1:  Iter=  6 NonCon=     1 RMS=1.79D-07 Max=1.80D-06 NDo=     1
 LinEq1:  Iter=  7 NonCon=     1 RMS=4.21D-08 Max=3.57D-07 NDo=     1
 LinEq1:  Iter=  8 NonCon=     1 RMS=1.53D-08 Max=2.03D-07 NDo=     1
 LinEq1:  Iter=  9 NonCon=     1 RMS=5.58D-09 Max=6.52D-08 NDo=     1
 LinEq1:  Iter= 10 NonCon=     0 RMS=1.25D-09 Max=7.39D-09 NDo=     1
 Linear equations converged to 2.665D-09 2.665D-08 after    10 iterations.
 Incorrect curvature in search direction -- initial direction reversed.
     Accept linear search using points  4 and  5.
 Gradient too large for Newton-Raphson -- use scaled steepest descent instead.
     Minimum is close to point  3 DX=  5.30D-02 DF= -2.47D-06 DXR=  2.46D-02 DFR=  6.04D-04 which will be used.
 Gradient too large for Newton-Raphson -- use scaled steepest descent instead.
     Accept linear search using points  1 and  2.
 Gradient too large for Newton-Raphson -- use scaled steepest descent instead.
     Accept linear search using points  1 and  2.
 Gradient too large for Newton-Raphson -- use scaled steepest descent instead.
 LinEq1:  Iter=  0 NonCon=     1 RMS=6.84D-04 Max=6.24D-03 NDo=     1
 LinEq1:  Iter=  1 NonCon=     1 RMS=2.96D-04 Max=2.76D-03 NDo=     1
 LinEq1:  Iter=  2 NonCon=     1 RMS=3.00D-05 Max=2.99D-04 NDo=     1
 LinEq1:  Iter=  3 NonCon=     1 RMS=1.32D-05 Max=1.36D-04 NDo=     1
 LinEq1:  Iter=  4 NonCon=     1 RMS=3.47D-06 Max=4.57D-05 NDo=     1
 LinEq1:  Iter=  5 NonCon=     1 RMS=1.26D-06 Max=1.42D-05 NDo=     1
 LinEq1:  Iter=  6 NonCon=     1 RMS=3.27D-07 Max=4.86D-06 NDo=     1
 LinEq1:  Iter=  7 NonCon=     1 RMS=8.54D-08 Max=1.07D-06 NDo=     1
 LinEq1:  Iter=  8 NonCon=     1 RMS=1.29D-08 Max=1.08D-07 NDo=     1
 LinEq1:  Iter=  9 NonCon=     0 RMS=2.63D-09 Max=2.26D-08 NDo=     1
 Linear equations converged to 2.665D-09 2.665D-08 after     9 iterations.
     Accept linear search using points  4 and  5.
 Gradient too large for Newton-Raphson -- use scaled steepest descent instead.
 Gradient too large for Newton-Raphson -- use scaled steepest descent instead.
     Accept linear search using points  1 and  2.
     Minimum is close to point  2 DX= -9.66D-02 DF= -2.02D-06 DXR=  6.02D-02 DFR=  7.40D-03 which will be used.
 LinEq1:  Iter=  0 NonCon=     1 RMS=5.40D-04 Max=7.56D-03 NDo=     1
 LinEq1:  Iter=  1 NonCon=     1 RMS=2.35D-04 Max=3.31D-03 NDo=     1
 LinEq1:  Iter=  2 NonCon=     1 RMS=4.39D-05 Max=7.51D-04 NDo=     1
 LinEq1:  Iter=  3 NonCon=     1 RMS=2.18D-05 Max=3.11D-04 NDo=     1
 LinEq1:  Iter=  4 NonCon=     1 RMS=5.26D-06 Max=6.73D-05 NDo=     1
 LinEq1:  Iter=  5 NonCon=     1 RMS=1.04D-06 Max=1.15D-05 NDo=     1
 LinEq1:  Iter=  6 NonCon=     1 RMS=2.68D-07 Max=2.82D-06 NDo=     1
 LinEq1:  Iter=  7 NonCon=     1 RMS=2.87D-08 Max=2.60D-07 NDo=     1
 LinEq1:  Iter=  8 NonCon=     1 RMS=1.35D-08 Max=1.91D-07 NDo=     1
 LinEq1:  Iter=  9 NonCon=     1 RMS=5.01D-09 Max=4.28D-08 NDo=     1
 LinEq1:  Iter= 10 NonCon=     0 RMS=2.06D-09 Max=1.60D-08 NDo=     1
 Linear equations converged to 2.665D-09 2.665D-08 after    10 iterations.
     Accept linear search using points  1 and  2.
     Minimum is close to point  2 DX= -4.98D-02 DF= -8.00D-07 DXR=  5.24D-02 DFR=  2.81D-03 which will be used.
 LinEq1:  Iter=  0 NonCon=     1 RMS=4.81D-05 Max=4.48D-04 NDo=     1
 LinEq1:  Iter=  1 NonCon=     1 RMS=1.95D-05 Max=2.97D-04 NDo=     1
 LinEq1:  Iter=  2 NonCon=     1 RMS=7.03D-06 Max=1.22D-04 NDo=     1
 LinEq1:  Iter=  3 NonCon=     1 RMS=3.27D-06 Max=4.55D-05 NDo=     1
 LinEq1:  Iter=  4 NonCon=     1 RMS=7.25D-07 Max=8.14D-06 NDo=     1
 LinEq1:  Iter=  5 NonCon=     1 RMS=1.98D-07 Max=1.76D-06 NDo=     1
 LinEq1:  Iter=  6 NonCon=     1 RMS=4.56D-08 Max=6.35D-07 NDo=     1
 LinEq1:  Iter=  7 NonCon=     1 RMS=7.45D-09 Max=5.12D-08 NDo=     1
 LinEq1:  Iter=  8 NonCon=     0 RMS=1.85D-09 Max=2.00D-08 NDo=     1
 Linear equations converged to 2.665D-09 2.665D-08 after     8 iterations.
     Accept linear search using points  1 and  2.
     Minimum is close to point  2 DX= -2.72D-03 DF= -1.73D-11 DXR=  2.72D-03 DFR=  7.41D-06 which will be used.
 LinEq1:  Iter=  0 NonCon=     1 RMS=2.11D-06 Max=2.85D-05 NDo=     1
 LinEq1:  Iter=  1 NonCon=     1 RMS=1.28D-06 Max=2.12D-05 NDo=     1
 LinEq1:  Iter=  2 NonCon=     1 RMS=3.63D-07 Max=3.23D-06 NDo=     1
 LinEq1:  Iter=  3 NonCon=     1 RMS=1.39D-07 Max=1.13D-06 NDo=     1
 LinEq1:  Iter=  4 NonCon=     1 RMS=3.23D-08 Max=3.08D-07 NDo=     1
 LinEq1:  Iter=  5 NonCon=     1 RMS=7.05D-09 Max=5.77D-08 NDo=     1
 LinEq1:  Iter=  6 NonCon=     1 RMS=1.55D-09 Max=1.42D-08 NDo=     1
 LinEq1:  Iter=  7 NonCon=     1 RMS=3.43D-10 Max=3.13D-09 NDo=     1
 LinEq1:  Iter=  8 NonCon=     0 RMS=8.03D-11 Max=6.21D-10 NDo=     1
 Linear equations converged to 3.133D-10 3.133D-09 after     8 iterations.
 LinEq1:  Iter=  0 NonCon=     1 RMS=4.81D-08 Max=4.23D-07 NDo=     1
 LinEq1:  Iter=  1 NonCon=     1 RMS=1.58D-08 Max=1.03D-07 NDo=     1
 LinEq1:  Iter=  2 NonCon=     1 RMS=3.24D-09 Max=2.96D-08 NDo=     1
 LinEq1:  Iter=  3 NonCon=     1 RMS=1.13D-09 Max=1.71D-08 NDo=     1
 LinEq1:  Iter=  4 NonCon=     1 RMS=3.67D-10 Max=3.45D-09 NDo=     1
 LinEq1:  Iter=  5 NonCon=     1 RMS=1.71D-10 Max=1.83D-09 NDo=     1
 LinEq1:  Iter=  6 NonCon=     1 RMS=4.64D-11 Max=4.25D-10 NDo=     1
 LinEq1:  Iter=  7 NonCon=     1 RMS=1.05D-11 Max=8.77D-11 NDo=     1
 LinEq1:  Iter=  8 NonCon=     0 RMS=2.88D-12 Max=2.32D-11 NDo=     1
 Linear equations converged to 9.172D-12 9.172D-11 after     8 iterations.
 SCF Done:  E(UAM1) =  0.181010622114     a.u. after   14 cycles
            Convg  =    0.5253D-07                    88 Fock formations.
              S**2 =  1.3676                  -V/T =  1.0016
 <Sx>= 0.0000 <Sy>= 0.0000 <Sz>= 0.5000 <S**2>= 1.3676 S= 0.7718
 <L.S>=  0.00000000000    
 Annihilation of the first spin contaminant:
 S**2 before annihilation     1.3676,   after     1.1118
 Calling FoFJK, ICntrl=      2127 FMM=F ISym2X=1 I1Cent= 0 IOpClX= 1 NMat=1 NMatS=1 NMatT=0.
 ***** Axes restored to original set *****
 -------------------------------------------------------------------
 Center     Atomic                   Forces (Hartrees/Bohr)
 Number     Number              X              Y              Z
 -------------------------------------------------------------------
      1        6          -0.073309838    0.039682293    0.000000000
      2        6           0.000611194   -0.022155936    0.000000000
      3        6           0.071018873    0.043649864    0.000000000
      4        6          -0.019489009    0.010546017   -0.000000000
      5        6           0.002294890   -0.083329485    0.000000000
      6        6           0.018879529    0.011606013   -0.000000000
      7       17          -0.008595916   -0.005282975    0.000000000
      8        1           0.105055053   -0.056865924   -0.000000000
      9       17          -0.000276687    0.010083797    0.000000000
     10        1          -0.101778210   -0.062550198   -0.000000000
     11       17           0.008870886   -0.004801772    0.000000000
     12        1          -0.003280765    0.119418306   -0.000000000
 -------------------------------------------------------------------
 Cartesian Forces:  Max     0.119418306 RMS     0.042635062

 GradGradGradGradGradGradGradGradGradGradGradGradGradGradGradGradGradGrad
 Berny optimization.
 Using GEDIIS/GDIIS optimizer.
 FormGI is forming the generalized inverse of G from B-inverse, IUseBI=4.
 Internal  Forces:  Max     0.119463363 RMS     0.029484049
 Search for a local minimum.
 Step number   4 out of a maximum of   64
 All quantities printed in internal units (Hartrees-Bohrs-Radians)
 Mixed Optimization -- RFO/linear search
[...]
   A18        2.08337  -0.00001   0.00000  -0.00003  -0.00002   2.08335
    D1        0.00000   0.00000   0.00000   0.00000  -0.00000   0.00000
    D2        3.14159  -0.00000   0.00000  -0.00000   0.00000   3.14159
    D3        3.14159   0.00000   0.00000   0.00000   0.00000   3.14159
    D4       -0.00000   0.00000   0.00000   0.00000   0.00000   0.00000
    D5       -0.00000  -0.00000   0.00000  -0.00000   0.00000   0.00000
    D6        3.14159   0.00000   0.00000   0.00000   0.00000   3.14159
    D7        3.14159  -0.00000   0.00000  -0.00000   0.00000   3.14159
    D8        0.00000  -0.00000   0.00000  -0.00000  -0.00000   0.00000
    D9        0.00000  -0.00000   0.00000  -0.00000  -0.00000   0.00000
   D10        3.14159  -0.00000   0.00000  -0.00000   0.00000   3.14159
   D11        3.14159   0.00000   0.00000   0.00000   0.00000   3.14159
   D12       -0.00000  -0.00000   0.00000  -0.00000   0.00000   0.00000
   D13       -0.00000   0.00000   0.00000   0.00000   0.00000   0.00000
   D14        3.14159  -0.00000   0.00000  -0.00000   0.00000   3.14159
   D15        3.14159   0.00000   0.00000   0.00000   0.00000   3.14159
   D16        0.00000   0.00000   0.00000   0.00000  -0.00000   0.00000
   D17       -0.00000  -0.00000   0.00000  -0.00000   0.00000   0.00000
   D18        3.14159  -0.00000   0.00000  -0.00000   0.00000   3.14159
   D19        3.14159   0.00000   0.00000   0.00000   0.00000   3.14159
   D20        0.00000  -0.00000   0.00000  -0.00000   0.00000   0.00000
   D21        0.00000   0.00000   0.00000   0.00000  -0.00000   0.00000
   D22        3.14159   0.00000   0.00000   0.00000   0.00000   3.14159
   D23        3.14159   0.00000   0.00000   0.00000   0.00000   3.14159
   D24       -0.00000   0.00000   0.00000   0.00000   0.00000   0.00000
         Item               Value     Threshold  Converged?
 Maximum Force            0.000020     0.000450     YES
 RMS     Force            0.000006     0.000300     YES
 Maximum Displacement     0.000226     0.001800     YES
 RMS     Displacement     0.000049     0.001200     YES
 Predicted change in Energy=-6.699922D-09
 Optimization completed.
    -- Stationary point found.
                           ----------------------------
                           !   Optimized Parameters   !
                           ! (Angstroms and Degrees)  !
 --------------------------                            --------------------------
 ! Name  Definition              Value          Derivative Info.                !
 --------------------------------------------------------------------------------
 ! R1    R(1,2)                  1.4005         -DE/DX =    0.0                 !
 ! R2    R(1,6)                  1.4005         -DE/DX =    0.0                 !
 ! R3    R(1,8)                  1.0971         -DE/DX =    0.0                 !
 ! R4    R(2,3)                  1.4005         -DE/DX =    0.0                 !
 ! R5    R(2,9)                  1.7763         -DE/DX =    0.0                 !
 ! R6    R(3,4)                  1.4005         -DE/DX =    0.0                 !
 ! R7    R(3,10)                 1.0971         -DE/DX =    0.0                 !
 ! R8    R(4,5)                  1.4005         -DE/DX =    0.0                 !
 ! R9    R(4,11)                 1.7763         -DE/DX =    0.0                 !
 ! R10   R(5,6)                  1.4005         -DE/DX =    0.0                 !
 ! R11   R(5,12)                 1.0971         -DE/DX =    0.0                 !
 ! R12   R(6,7)                  1.7763         -DE/DX =    0.0                 !
 ! A1    A(2,1,6)              118.7371         -DE/DX =    0.0                 !
 ! A2    A(2,1,8)              120.6314         -DE/DX =    0.0                 !
 ! A3    A(6,1,8)              120.6314         -DE/DX =    0.0                 !
 ! A4    A(1,2,3)              121.2629         -DE/DX =    0.0                 !
 ! A5    A(1,2,9)              119.3685         -DE/DX =    0.0                 !
 ! A6    A(3,2,9)              119.3685         -DE/DX =    0.0                 !
 ! A7    A(2,3,4)              118.737          -DE/DX =    0.0                 !
 ! A8    A(2,3,10)             120.6315         -DE/DX =    0.0                 !
 ! A9    A(4,3,10)             120.6315         -DE/DX =    0.0                 !
 ! A10   A(3,4,5)              121.263          -DE/DX =    0.0                 !
 ! A11   A(3,4,11)             119.3685         -DE/DX =    0.0                 !
 ! A12   A(5,4,11)             119.3685         -DE/DX =    0.0                 !
 ! A13   A(4,5,6)              118.7371         -DE/DX =    0.0                 !
 ! A14   A(4,5,12)             120.6314         -DE/DX =    0.0                 !
 ! A15   A(6,5,12)             120.6315         -DE/DX =    0.0                 !
 ! A16   A(1,6,5)              121.2629         -DE/DX =    0.0                 !
 ! A17   A(1,6,7)              119.3686         -DE/DX =    0.0                 !
 ! A18   A(5,6,7)              119.3686         -DE/DX =    0.0                 !
 ! D1    D(6,1,2,3)              0.0            -DE/DX =    0.0                 !
 ! D2    D(6,1,2,9)            180.0            -DE/DX =    0.0                 !
 ! D3    D(8,1,2,3)            180.0            -DE/DX =    0.0                 !
 ! D4    D(8,1,2,9)              0.0            -DE/DX =    0.0                 !
 ! D5    D(2,1,6,5)              0.0            -DE/DX =    0.0                 !
 ! D6    D(2,1,6,7)            180.0            -DE/DX =    0.0                 !
 ! D7    D(8,1,6,5)            180.0            -DE/DX =    0.0                 !
 ! D8    D(8,1,6,7)              0.0            -DE/DX =    0.0                 !
 ! D9    D(1,2,3,4)              0.0            -DE/DX =    0.0                 !
 ! D10   D(1,2,3,10)           180.0            -DE/DX =    0.0                 !
 ! D11   D(9,2,3,4)            180.0            -DE/DX =    0.0                 !
 ! D12   D(9,2,3,10)             0.0            -DE/DX =    0.0                 !
 ! D13   D(2,3,4,5)              0.0            -DE/DX =    0.0                 !
 ! D14   D(2,3,4,11)           180.0            -DE/DX =    0.0                 !
 ! D15   D(10,3,4,5)           180.0            -DE/DX =    0.0                 !
 ! D16   D(10,3,4,11)            0.0            -DE/DX =    0.0                 !
 ! D17   D(3,4,5,6)              0.0            -DE/DX =    0.0                 !
 ! D18   D(3,4,5,12)           180.0            -DE/DX =    0.0                 !
 ! D19   D(11,4,5,6)           180.0            -DE/DX =    0.0                 !
 ! D20   D(11,4,5,12)            0.0            -DE/DX =    0.0                 !
 ! D21   D(4,5,6,1)              0.0            -DE/DX =    0.0                 !
 ! D22   D(4,5,6,7)            180.0            -DE/DX =    0.0                 !
 ! D23   D(12,5,6,1)           180.0            -DE/DX =    0.0                 !
 ! D24   D(12,5,6,7)             0.0            -DE/DX =    0.0                 !
 --------------------------------------------------------------------------------
 GradGradGradGradGradGradGradGradGradGradGradGradGradGradGradGradGradGrad

                          Input orientation:                          
 ---------------------------------------------------------------------
 Center     Atomic      Atomic             Coordinates (Angstroms)
 Number     Number       Type             X           Y           Z
 ---------------------------------------------------------------------
      1          6           0       -3.212292    0.201057   -0.000000
      2          6           0       -2.011105    0.921154    0.000000
      3          6           0       -0.772194    0.268090    0.000000
      4          6           0       -0.749167   -1.132218    0.000000
      5          6           0       -1.934192   -1.878614   -0.000000
      6          6           0       -3.158408   -1.198403   -0.000000
      7         17           0       -4.671793   -2.128482   -0.000000
      8          1           0       -4.177137    0.723321   -0.000000
      9         17           0       -2.059885    2.696823    0.000000
     10          1           0        0.162540    0.842548    0.000000
     11         17           0        0.812997   -1.977809    0.000000
     12          1           0       -1.904065   -2.975298   -0.000000
 ---------------------------------------------------------------------
                    Distance matrix (angstroms):
                    1          2          3          4          5
     1  C    0.000000
     2  C    1.400497   0.000000
     3  C    2.441019   1.400498   0.000000
     4  C    2.800823   2.410150   1.400497   0.000000
     5  C    2.441018   2.800824   2.441020   1.400497   0.000000
     6  C    1.400497   2.410150   2.800825   2.410150   1.400497
     7  Cl   2.748980   4.047164   4.577164   4.047164   2.748980
     8  H    1.097126   2.175048   3.435240   3.897949   3.435239
     9  Cl   2.748980   1.776339   2.748980   4.047164   4.577163
    10  H    3.435259   2.175066   1.097146   2.175066   3.435260
    11  Cl   4.577162   4.047164   2.748980   1.776340   2.748980
    12  H    3.435213   3.897922   3.435215   2.175025   1.097098
                    6          7          8          9         10
     6  C    0.000000
     7  Cl   1.776339   0.000000
     8  H    2.175048   2.894385   0.000000
     9  Cl   4.047164   5.486859   2.894385   0.000000
    10  H    3.897971   5.674310   4.341315   2.894393   0.000000
    11  Cl   4.047164   5.486859   5.674288   5.486861   2.894393
    12  H    2.175025   2.894377   4.341272   5.674261   4.341291
                   11         12
    11  Cl   0.000000
    12  H    2.894375   0.000000
 Stoichiometry    C6H3Cl3(1-,2)
 Framework group  CS[SG(C6H3Cl3)]
 Deg. of freedom    21
 Full point group                 CS      NOp   2
 Largest Abelian subgroup         CS      NOp   2
 Largest concise Abelian subgroup C1      NOp   1
                         Standard orientation:                         
 ---------------------------------------------------------------------
 Center     Atomic      Atomic             Coordinates (Angstroms)
 Number     Number       Type             X           Y           Z
 ---------------------------------------------------------------------
      1          6           0        1.220509    0.704661    0.000000
      2          6           0        1.205075   -0.695750    0.000000
      3          6           0       -0.000000   -1.409324   -0.000000
      4          6           0       -1.205075   -0.695750   -0.000000
      5          6           0       -1.220510    0.704662   -0.000000
      6          6           0       -0.000000    1.391501    0.000000
      7         17           0       -0.000000    3.167840    0.000000
      8          1           0        2.170648    1.253224    0.000000
      9         17           0        2.743430   -1.583919    0.000000
     10          1           0       -0.000001   -2.506470   -0.000000
     11         17           0       -2.743431   -1.583919   -0.000000
     12          1           0       -2.170625    1.253210   -0.000000
 ---------------------------------------------------------------------
 Rotational constants (GHZ):           0.8332971           0.8332970           0.4166485

 **********************************************************************

            Population analysis using the SCF Density.

 **********************************************************************

 Orbital symmetries:
 Alpha Orbitals:
       Occupied  (A') (A') (A') (A') (A') (A') (A') (A') (A') (A')
                 (A') (A') (A') (A") (A") (A") (A') (A') (A') (A')
                 (A') (A") (A") (A") (A')
       Virtual   (A') (A') (A") (A") (A") (A') (A') (A') (A') (A')
                 (A') (A') (A') (A')
 Beta  Orbitals:
       Occupied  (A') (A') (A') (A') (A') (A') (A') (A') (A') (A')
                 (A') (A') (A') (A") (A') (A') (A") (A") (A') (A')
                 (A') (A") (A") (A")
       Virtual   (A") (A") (A') (A') (A') (A") (A') (A') (A') (A')
                 (A') (A') (A') (A') (A')
 The electronic state is 2-A'.
 Alpha  occ. eigenvalues --   -1.28900  -1.19372  -1.19372  -1.17234  -0.98770
 Alpha  occ. eigenvalues --   -0.98769  -0.70347  -0.70347  -0.51759  -0.45803
 Alpha  occ. eigenvalues --   -0.44698  -0.39514  -0.39514  -0.38299  -0.32036
 Alpha  occ. eigenvalues --   -0.32036  -0.31868  -0.31868  -0.27865  -0.27865
 Alpha  occ. eigenvalues --   -0.26849  -0.26437  -0.19870  -0.19870  -0.01931
 Alpha virt. eigenvalues --    0.14647   0.14647   0.16501   0.16501   0.24582
 Alpha virt. eigenvalues --    0.29319   0.29897   0.29898   0.31677   0.31677
 Alpha virt. eigenvalues --    0.34208   0.34208   0.34907   0.35301
  Beta  occ. eigenvalues --   -1.28465  -1.17790  -1.17790  -1.15850  -0.98599
  Beta  occ. eigenvalues --   -0.98599  -0.69269  -0.69269  -0.51110  -0.44450
  Beta  occ. eigenvalues --   -0.44436  -0.38855  -0.38855  -0.37583  -0.31402
  Beta  occ. eigenvalues --   -0.31401  -0.30815  -0.30815  -0.27362  -0.27361
  Beta  occ. eigenvalues --   -0.26389  -0.26039  -0.20649  -0.20649
  Beta virt. eigenvalues --    0.17498   0.17498   0.21343   0.23824   0.23824
  Beta virt. eigenvalues --    0.25097   0.28419   0.29732   0.29733   0.32058
  Beta virt. eigenvalues --    0.32058   0.34369   0.34369   0.35436   0.35709
          Condensed to atoms (all electrons):
               1          2          3          4          5          6
     1  C    4.167089   0.000000   0.000000   0.000000   0.000000   0.000000
     2  C    0.000000   4.036302   0.000000   0.000000   0.000000   0.000000
     3  C    0.000000   0.000000   4.167090   0.000000   0.000000   0.000000
     4  C    0.000000   0.000000   0.000000   4.036302   0.000000   0.000000
     5  C    0.000000   0.000000   0.000000   0.000000   4.167087   0.000000
     6  C    0.000000   0.000000   0.000000   0.000000   0.000000   4.036302
     7  Cl   0.000000   0.000000   0.000000   0.000000   0.000000   0.000000
     8  H    0.000000   0.000000   0.000000   0.000000   0.000000   0.000000
     9  Cl   0.000000   0.000000   0.000000   0.000000   0.000000   0.000000
    10  H    0.000000   0.000000   0.000000   0.000000   0.000000   0.000000
    11  Cl   0.000000   0.000000   0.000000   0.000000   0.000000   0.000000
    12  H    0.000000   0.000000   0.000000   0.000000   0.000000   0.000000
               7          8          9         10         11         12
     1  C    0.000000   0.000000   0.000000   0.000000   0.000000   0.000000
     2  C    0.000000   0.000000   0.000000   0.000000   0.000000   0.000000
     3  C    0.000000   0.000000   0.000000   0.000000   0.000000   0.000000
     4  C    0.000000   0.000000   0.000000   0.000000   0.000000   0.000000
     5  C    0.000000   0.000000   0.000000   0.000000   0.000000   0.000000
     6  C    0.000000   0.000000   0.000000   0.000000   0.000000   0.000000
     7  Cl   7.262361   0.000000   0.000000   0.000000   0.000000   0.000000
     8  H    0.000000   0.867581   0.000000   0.000000   0.000000   0.000000
     9  Cl   0.000000   0.000000   7.262362   0.000000   0.000000   0.000000
    10  H    0.000000   0.000000   0.000000   0.867579   0.000000   0.000000
    11  Cl   0.000000   0.000000   0.000000   0.000000   7.262362   0.000000
    12  H    0.000000   0.000000   0.000000   0.000000   0.000000   0.867582
          Atomic-Atomic Spin Densities.
               1          2          3          4          5          6
     1  C   -0.459479   0.000000   0.000000   0.000000   0.000000   0.000000
     2  C    0.000000   0.577064   0.000000   0.000000   0.000000   0.000000
     3  C    0.000000   0.000000  -0.459480   0.000000   0.000000   0.000000
     4  C    0.000000   0.000000   0.000000   0.577063   0.000000   0.000000
     5  C    0.000000   0.000000   0.000000   0.000000  -0.459478   0.000000
     6  C    0.000000   0.000000   0.000000   0.000000   0.000000   0.577063
     7  Cl   0.000000   0.000000   0.000000   0.000000   0.000000   0.000000
     8  H    0.000000   0.000000   0.000000   0.000000   0.000000   0.000000
     9  Cl   0.000000   0.000000   0.000000   0.000000   0.000000   0.000000
    10  H    0.000000   0.000000   0.000000   0.000000   0.000000   0.000000
    11  Cl   0.000000   0.000000   0.000000   0.000000   0.000000   0.000000
    12  H    0.000000   0.000000   0.000000   0.000000   0.000000   0.000000
               7          8          9         10         11         12
     1  C    0.000000   0.000000   0.000000   0.000000   0.000000   0.000000
     2  C    0.000000   0.000000   0.000000   0.000000   0.000000   0.000000
     3  C    0.000000   0.000000   0.000000   0.000000   0.000000   0.000000
     4  C    0.000000   0.000000   0.000000   0.000000   0.000000   0.000000
     5  C    0.000000   0.000000   0.000000   0.000000   0.000000   0.000000
     6  C    0.000000   0.000000   0.000000   0.000000   0.000000   0.000000
     7  Cl   0.189753   0.000000   0.000000   0.000000   0.000000   0.000000
     8  H    0.000000   0.025995   0.000000   0.000000   0.000000   0.000000
     9  Cl   0.000000   0.000000   0.189755   0.000000   0.000000   0.000000
    10  H    0.000000   0.000000   0.000000   0.025996   0.000000   0.000000
    11  Cl   0.000000   0.000000   0.000000   0.000000   0.189754   0.000000
    12  H    0.000000   0.000000   0.000000   0.000000   0.000000   0.025994
 Mulliken charges and spin densities:
               1          2
     1  C   -0.167089  -0.459479
     2  C   -0.036302   0.577064
     3  C   -0.167090  -0.459480
     4  C   -0.036302   0.577063
     5  C   -0.167087  -0.459478
     6  C   -0.036302   0.577063
     7  Cl  -0.262361   0.189753
     8  H    0.132419   0.025995
     9  Cl  -0.262362   0.189755
    10  H    0.132421   0.025996
    11  Cl  -0.262362   0.189754
    12  H    0.132418   0.025994
 Sum of Mulliken charges =  -1.00000   1.00000
 Mulliken charges and spin densities with hydrogens summed into heavy atoms:
               1          2
     1  C   -0.034670  -0.433484
     2  C   -0.036302   0.577064
     3  C   -0.034670  -0.433485
     4  C   -0.036302   0.577063
     5  C   -0.034670  -0.433484
     6  C   -0.036302   0.577063
     7  Cl  -0.262361   0.189753
     9  Cl  -0.262362   0.189755
    11  Cl  -0.262362   0.189754
 Charge=             -1.0000 electrons
 Dipole moment (field-independent basis, Debye):
    X=              0.0000    Y=             -0.0000    Z=              0.0000  Tot=              0.0000
 N-N= 2.484393116345D+02 E-N=-3.544260976555D+02  KE=-1.153958076487D+02
 Symmetry A'   KE=-8.938528843867D+01
 Symmetry A"   KE=-2.601051920998D+01
 Symmetry A'   SP= 1.000000000000D+00
 Symmetry A"   SP=-5.107025913276D-15
 1\1\GINC-SH02-01N17\FOpt\UAM1\ZDO\C6H3Cl3(1-,2)\JLAPIER\09-Dec-2025\0\
 \# opt am1 SCF=XQC\\3-Chloro-Benzene Anion Radical (135)\\-1,2\C,-3.21
 22923977,0.2010569011,0.\C,-2.0111048343,0.9211538743,0.\C,-0.77219351
 59,0.268090158,0.\C,-0.7491671043,-1.1322178311,0.\C,-1.934192118,-1.8
 786136744,0.\C,-3.1584078879,-1.1984028016,0.\Cl,-4.6717928389,-2.1284
 817418,0.\H,-4.1771370771,0.7233213054,0.\Cl,-2.0598853632,2.696822916
 5,0.\H,0.1625403747,0.8425480596,0.\Cl,0.8129972787,-1.9778090455,0.\H
 ,-1.9040645161,-2.9752981205,0.\\Version=ES64L-G16RevB.01\State=2-A'\H
 F=0.0033831\S2=1.218219\S2-1=0.\S2A=0.939014\RMSD=6.583e-09\RMSF=9.228
 e-06\Dipole=0.0000018,0.000006,0.\PG=CS [SG(C6H3Cl3)]\\@


 I CLAIM NOT TO HAVE CONTROLLED EVENTS,
 BUT CONFESS PLAINLY THAT EVENTS HAVE CONTROLLED ME.

                                         A. LINCOLN
 Job cpu time:       0 days  0 hours  0 minutes  9.0 seconds.
 Elapsed time:       0 days  0 hours  0 minutes 20.5 seconds.
 File lengths (MBytes):  RWF=     15 Int=      0 D2E=      0 Chk=      2 Scr=      1
 Normal termination of Gaussian 16 at Tue Dec  9 09:59:00 2025.
