 Entering Gaussian System, Link 0=g16
 Initial command:
 /share/software/user/restricted/gaussian/g16.B01/l1.exe "/home/users/jlapier/Chloroaromatics/Gau-10857.inp" -scrdir="/home/users/jlapier/Chloroaromatics/"
 Entering Link 1 = /share/software/user/restricted/gaussian/g16.B01/l1.exe PID=     10858.
  
 Copyright (c) 1988-2017, Gaussian, Inc.  All Rights Reserved.
  
 This is part of the Gaussian(R) 16 program.  It is based on
 the Gaussian(R) 09 system (copyright 2009, Gaussian, Inc.),
 the Gaussian(R) 03 system (copyright 2003, Gaussian, Inc.),
 the Gaussian(R) 98 system (copyright 1998, Gaussian, Inc.),
 the Gaussian(R) 94 system (copyright 1995, Gaussian, Inc.),
 the Gaussian 92(TM) system (copyright 1992, Gaussian, Inc.),
 the Gaussian 90(TM) system (copyright 1990, Gaussian, Inc.),
 the Gaussian 88(TM) system (copyright 1988, Gaussian, Inc.),
 the Gaussian 86(TM) system (copyright 1986, Carnegie Mellon
 University), and the Gaussian 82(TM) system (copyright 1983,
 Carnegie Mellon University). Gaussian is a federally registered
 trademark of Gaussian, Inc.
  
 This software contains proprietary and confidential information,
 including trade secrets, belonging to Gaussian, Inc.
  
 This software is provided under written license and may be
 used, copied, transmitted, or stored only in accord with that
 written license.
  
 The following legend is applicable only to US Government
 contracts under FAR:
  
                    RESTRICTED RIGHTS LEGEND
  
 Use, reproduction and disclosure by the US Government is
 subject to restrictions as set forth in subparagraphs (a)
 and (c) of the Commercial Computer Software - Restricted
 Rights clause in FAR 52.227-19.
  
 Gaussian, Inc.
 340 Quinnipiac St., Bldg. 40, Wallingford CT 06492
  
  
 ---------------------------------------------------------------
 Warning -- This program may not be used in any manner that
 competes with the business of Gaussian, Inc. or will provide
 assistance to any competitor of Gaussian, Inc.  The licensee
 of this program is prohibited from giving any competitor of
 Gaussian, Inc. access to this program.  By using this program,
 the user acknowledges that Gaussian, Inc. is engaged in the
 business of creating and licensing software in the field of
 computational chemistry and represents and warrants to the
 licensee that it is not a competitor of Gaussian, Inc. and that
 it will not use this program in any manner prohibited above.
 ---------------------------------------------------------------
  

 Cite this work as:
 Gaussian 16, Revision B.01,
 M. J. Frisch, G. W. Trucks, H. B. Schlegel, G. E. Scuseria, 
 M. A. Robb, J. R. Cheeseman, G. Scalmani, V. Barone, 
 G. A. Petersson, H. Nakatsuji, X. Li, M. Caricato, A. V. Marenich, 
 J. Bloino, B. G. Janesko, R. Gomperts, B. Mennucci, H. P. Hratchian, 
 J. V. Ortiz, A. F. Izmaylov, J. L. Sonnenberg, D. Williams-Young, 
 F. Ding, F. Lipparini, F. Egidi, J. Goings, B. Peng, A. Petrone, 
 T. Henderson, D. Ranasinghe, V. G. Zakrzewski, J. Gao, N. Rega, 
 G. Zheng, W. Liang, M. Hada, M. Ehara, K. Toyota, R. Fukuda, 
 J. Hasegawa, M. Ishida, T. Nakajima, Y. Honda, O. Kitao, H. Nakai, 
 T. Vreven, K. Throssell, J. A. Montgomery, Jr., J. E. Peralta, 
 F. Ogliaro, M. J. Bearpark, J. J. Heyd, E. N. Brothers, K. N. Kudin, 
 V. N. Staroverov, T. A. Keith, R. Kobayashi, J. Normand, 
 K. Raghavachari, A. P. Rendell, J. C. Burant, S. S. Iyengar, 
 J. Tomasi, M. Cossi, J. M. Millam, M. Klene, C. Adamo, R. Cammi, 
 J. W. Ochterski, R. L. Martin, K. Morokuma, O. Farkas, 
 J. B. Foresman, and D. J. Fox, Gaussian, Inc., Wallingford CT, 2016.
 
 ******************************************
 Gaussian 16:  ES64L-G16RevB.01 20-Dec-2017
                 8-Dec-2025 
 ******************************************
 %mem=8GB
 %nprocshare=4
 Will use up to    4 processors via shared memory.
 %chk=geometry_chks/135tribromobenzene.chk
 ---------
 # opt am1
 ---------
 1/18=20,19=15,26=1,38=1/1,3;
 2/9=110,12=2,17=6,18=5,40=1/2;
 3/5=2,25=1,41=700000,71=1/1,2,3;
 4/35=1/1;
 5/5=2,35=1,38=5/2;
 6/7=2,8=2,9=2,10=2,28=1/1;
 7//1,2,3,16;
 1/18=20,19=15,26=1/3(2);
 2/9=110/2;
 99//99;
 2/9=110/2;
 3/5=2,25=1,41=700000,71=1,135=20/1,2,3;
 4/5=5,16=3,35=1/1;
 5/5=2,35=1,38=5/2;
 7//1,2,3,16;
 1/18=20,19=15,26=1/3(-5);
 2/9=110/2;
 6/7=2,8=2,9=2,10=2,19=2,28=1/1;
 99/9=1/99;
 ------------------
 135Tribromobenzene
 ------------------
 Symbolic Z-matrix:
 Charge =  0 Multiplicity = 1
 C                    -1.85673   1.43275   0. 
 C                    -0.46157   1.43275   0. 
 C                     0.23597   2.6405    0. 
 C                    -0.46168   3.84901  -0.0012 
 C                    -1.85651   3.84893  -0.00168 
 C                    -2.55411   2.64072  -0.00068 
 Br                    2.14597   2.64064   0.0011 
 H                     0.07367   4.77545  -0.00126 
 H                    -3.62411   2.6409   -0.00086 
 H                     0.07312   0.50592   0.00128 
 Br                   -2.81164  -0.22141   0.00078 
 Br                   -2.81193   5.5028   -0.00333 
 

 GradGradGradGradGradGradGradGradGradGradGradGradGradGradGradGradGradGrad
 Berny optimization.
 Initialization pass.
                           ----------------------------
                           !    Initial Parameters    !
                           ! (Angstroms and Degrees)  !
 --------------------------                            --------------------------
 ! Name  Definition              Value          Derivative Info.                !
 --------------------------------------------------------------------------------
 ! R1    R(1,2)                  1.3952         estimate D2E/DX2                !
 ! R2    R(1,6)                  1.3948         estimate D2E/DX2                !
 ! R3    R(1,11)                 1.91           estimate D2E/DX2                !
 ! R4    R(2,3)                  1.3947         estimate D2E/DX2                !
 ! R5    R(2,10)                 1.07           estimate D2E/DX2                !
 ! R6    R(3,4)                  1.3954         estimate D2E/DX2                !
 ! R7    R(3,7)                  1.91           estimate D2E/DX2                !
 ! R8    R(4,5)                  1.3948         estimate D2E/DX2                !
 ! R9    R(4,8)                  1.07           estimate D2E/DX2                !
 ! R10   R(5,6)                  1.3951         estimate D2E/DX2                !
 ! R11   R(5,12)                 1.91           estimate D2E/DX2                !
 ! R12   R(6,9)                  1.07           estimate D2E/DX2                !
 ! A1    A(2,1,6)              119.9985         estimate D2E/DX2                !
 ! A2    A(2,1,11)             119.9972         estimate D2E/DX2                !
 ! A3    A(6,1,11)             120.0043         estimate D2E/DX2                !
 ! A4    A(1,2,3)              120.0086         estimate D2E/DX2                !
 ! A5    A(1,2,10)             119.9808         estimate D2E/DX2                !
 ! A6    A(3,2,10)             120.0105         estimate D2E/DX2                !
 ! A7    A(2,3,4)              119.9942         estimate D2E/DX2                !
 ! A8    A(2,3,7)              120.0128         estimate D2E/DX2                !
 ! A9    A(4,3,7)              119.993          estimate D2E/DX2                !
 ! A10   A(3,4,5)              119.994          estimate D2E/DX2                !
 ! A11   A(3,4,8)              119.9811         estimate D2E/DX2                !
 ! A12   A(5,4,8)              120.0249         estimate D2E/DX2                !
 ! A13   A(4,5,6)              120.0047         estimate D2E/DX2                !
 ! A14   A(4,5,12)             120.0113         estimate D2E/DX2                !
 ! A15   A(6,5,12)             119.984          estimate D2E/DX2                !
 ! A16   A(1,6,5)              120.0            estimate D2E/DX2                !
 ! A17   A(1,6,9)              120.008          estimate D2E/DX2                !
 ! A18   A(5,6,9)              119.992          estimate D2E/DX2                !
 ! D1    D(6,1,2,3)              0.0323         estimate D2E/DX2                !
 ! D2    D(6,1,2,10)           179.9532         estimate D2E/DX2                !
 ! D3    D(11,1,2,3)          -179.9729         estimate D2E/DX2                !
 ! D4    D(11,1,2,10)           -0.052          estimate D2E/DX2                !
 ! D5    D(2,1,6,5)              0.0149         estimate D2E/DX2                !
 ! D6    D(2,1,6,9)            179.9892         estimate D2E/DX2                !
 ! D7    D(11,1,6,5)          -179.9798         estimate D2E/DX2                !
 ! D8    D(11,1,6,9)            -0.0056         estimate D2E/DX2                !
 ! D9    D(1,2,3,4)             -0.0568         estimate D2E/DX2                !
 ! D10   D(1,2,3,7)            179.9619         estimate D2E/DX2                !
 ! D11   D(10,2,3,4)          -179.9777         estimate D2E/DX2                !
 ! D12   D(10,2,3,7)             0.041          estimate D2E/DX2                !
 ! D13   D(2,3,4,5)              0.0341         estimate D2E/DX2                !
 ! D14   D(2,3,4,8)           -179.9964         estimate D2E/DX2                !
 ! D15   D(7,3,4,5)           -179.9846         estimate D2E/DX2                !
 ! D16   D(7,3,4,8)             -0.0151         estimate D2E/DX2                !
 ! D17   D(3,4,5,6)              0.0131         estimate D2E/DX2                !
 ! D18   D(3,4,5,12)          -179.9995         estimate D2E/DX2                !
 ! D19   D(8,4,5,6)           -179.9563         estimate D2E/DX2                !
 ! D20   D(8,4,5,12)             0.031          estimate D2E/DX2                !
 ! D21   D(4,5,6,1)             -0.0376         estimate D2E/DX2                !
 ! D22   D(4,5,6,9)            179.9881         estimate D2E/DX2                !
 ! D23   D(12,5,6,1)           179.975          estimate D2E/DX2                !
 ! D24   D(12,5,6,9)             0.0007         estimate D2E/DX2                !
 --------------------------------------------------------------------------------
 Trust Radius=3.00D-01 FncErr=1.00D-07 GrdErr=1.00D-07 EigMax=2.50D+02 EigMin=1.00D-04
 Number of steps in this run=     64 maximum allowed number of steps=    100.
 GradGradGradGradGradGradGradGradGradGradGradGradGradGradGradGradGradGrad

                          Input orientation:                          
 ---------------------------------------------------------------------
 Center     Atomic      Atomic             Coordinates (Angstroms)
 Number     Number       Type             X           Y           Z
 ---------------------------------------------------------------------
      1          6           0       -1.856725    1.432749    0.000000
      2          6           0       -0.461565    1.432749    0.000000
      3          6           0        0.235973    2.640500    0.000000
      4          6           0       -0.461681    3.849009   -0.001199
      5          6           0       -1.856506    3.848931   -0.001678
      6          6           0       -2.554107    2.640725   -0.000682
      7         35           0        2.145973    2.640638    0.001101
      8          1           0        0.073669    4.775453   -0.001256
      9          1           0       -3.624107    2.640903   -0.000857
     10          1           0        0.073124    0.505923    0.001280
     11         35           0       -2.811645   -0.221406    0.000782
     12         35           0       -2.811925    5.502796   -0.003333
 ---------------------------------------------------------------------
                    Distance matrix (angstroms):
                    1          2          3          4          5
     1  C    0.000000
     2  C    1.395160   0.000000
     3  C    2.416205   1.394712   0.000000
     4  C    2.790065   2.416260   1.395427   0.000000
     5  C    2.416183   2.789946   2.416356   1.394825   0.000000
     6  C    1.394829   2.416183   2.790080   2.416236   1.395138
     7  Br   4.180979   2.873717   1.910000   2.874025   4.180887
     8  H    3.860065   3.385285   2.141115   1.070000   2.141033
     9  H    2.140859   3.385455   3.860080   3.385330   2.140968
    10  H    2.140870   1.070000   2.140780   3.385594   3.859946
    11  Br   1.910000   2.873866   4.180727   4.700065   4.180901
    12  Br   4.180635   4.699946   4.181200   2.873790   1.910000
                    6          7          8          9         10
     6  C    0.000000
     7  Br   4.700080   0.000000
     8  H    3.385598   2.975211   0.000000
     9  H    1.070000   5.770080   4.269644   0.000000
    10  H    3.385222   2.975519   4.269531   4.269386   0.000000
    11  Br   2.873694   5.724445   5.770065   2.975384   2.975046
    12  Br   2.873661   5.724746   2.975851   2.974908   5.769946
                   11         12
    11  Br   0.000000
    12  Br   5.724204   0.000000
 Stoichiometry    C6H3Br3
 Framework group  C1[X(C6H3Br3)]
 Deg. of freedom    30
 Full point group                 C1      NOp   1
 Largest Abelian subgroup         C1      NOp   1
 Largest concise Abelian subgroup C1      NOp   1
                         Standard orientation:                         
 ---------------------------------------------------------------------
 Center     Atomic      Atomic             Coordinates (Angstroms)
 Number     Number       Type             X           Y           Z
 ---------------------------------------------------------------------
      1          6           0        0.319027    1.357923   -0.000029
      2          6           0       -1.016701    0.955055   -0.000673
      3          6           0       -1.335773   -0.402669   -0.000137
      4          6           0       -0.318868   -1.358242   -0.000156
      5          6           0        1.016517   -0.955396    0.000008
      6          6           0        1.335518    0.402782    0.000468
      7         35           0       -3.164369   -0.954336    0.000084
      8          1           0       -0.563891   -2.399810    0.000197
      9          1           0        2.359988    0.711586    0.000786
     10          1           0       -1.796245    1.688002   -0.000298
     11         35           0        0.755612    3.217357    0.000018
     12         35           0        2.408810   -2.262921   -0.000032
 ---------------------------------------------------------------------
 Rotational constants (GHZ):           0.3683096           0.3682328           0.1841356
 Standard basis: VSTO-6G (5D, 7F)
 There are    39 symmetry adapted cartesian basis functions of A   symmetry.
 There are    39 symmetry adapted basis functions of A   symmetry.
    39 basis functions,   234 primitive gaussians,    39 cartesian basis functions
    24 alpha electrons       24 beta electrons
       nuclear repulsion energy       242.6430836326 Hartrees.
 Integral buffers will be    131072 words long.
 Regular integral format.
 Two-electron integral symmetry is turned off.
 Do NDO integrals.
 One-electron integrals computed using PRISM.
 NBasis=    39 RedAO= F EigKep=  0.00D+00  NBF=    39
 NBsUse=    39 1.00D-04 EigRej=  0.00D+00 NBFU=    39
 Nonelectrostatic core Hamiltonian diagonalized for initial guess.
 Keep J ints in memory in canonical form, NReq=863709.
 Overlap will be assumed to be unity.
 Requested convergence on RMS density matrix=1.00D-08 within 128 cycles.
 Requested convergence on MAX density matrix=1.00D-06.
 Requested convergence on             energy=1.00D-06.
 No special actions if energy rises.
 SCF Done:  E(RAM1) =  0.648058805757E-01 A.U. after   14 cycles
            NFock= 13  Conv=0.54D-08     -V/T= 1.0006

 **********************************************************************

            Population analysis using the SCF Density.

 **********************************************************************

 Orbital symmetries:
       Occupied  (A) (A) (A) (A) (A) (A) (A) (A) (A) (A) (A) (A)
                 (A) (A) (A) (A) (A) (A) (A) (A) (A) (A) (A) (A)
       Virtual   (A) (A) (A) (A) (A) (A) (A) (A) (A) (A) (A) (A)
                 (A) (A) (A)
 The electronic state is 1-A.
 Alpha  occ. eigenvalues --   -1.48052  -1.24928  -1.24924  -1.16465  -1.11517
 Alpha  occ. eigenvalues --   -1.11514  -0.86944  -0.86939  -0.67985  -0.62849
 Alpha  occ. eigenvalues --   -0.60433  -0.55462  -0.55172  -0.55170  -0.47573
 Alpha  occ. eigenvalues --   -0.47569  -0.46576  -0.46575  -0.42726  -0.42726
 Alpha  occ. eigenvalues --   -0.42024  -0.41644  -0.37038  -0.37034
 Alpha virt. eigenvalues --   -0.02120  -0.02116  -0.00611   0.01247   0.01248
 Alpha virt. eigenvalues --    0.06645   0.12670   0.12911   0.12913   0.13624
 Alpha virt. eigenvalues --    0.13625   0.16400   0.16714   0.16715   0.17941
          Condensed to atoms (all electrons):
               1          2          3          4          5          6
     1  C    4.156600   0.000000   0.000000   0.000000   0.000000   0.000000
     2  C    0.000000   4.066514   0.000000   0.000000   0.000000   0.000000
     3  C    0.000000   0.000000   4.156614   0.000000   0.000000   0.000000
     4  C    0.000000   0.000000   0.000000   4.066480   0.000000   0.000000
     5  C    0.000000   0.000000   0.000000   0.000000   4.156590   0.000000
     6  C    0.000000   0.000000   0.000000   0.000000   0.000000   4.066511
     7  Br   0.000000   0.000000   0.000000   0.000000   0.000000   0.000000
     8  H    0.000000   0.000000   0.000000   0.000000   0.000000   0.000000
     9  H    0.000000   0.000000   0.000000   0.000000   0.000000   0.000000
    10  H    0.000000   0.000000   0.000000   0.000000   0.000000   0.000000
    11  Br   0.000000   0.000000   0.000000   0.000000   0.000000   0.000000
    12  Br   0.000000   0.000000   0.000000   0.000000   0.000000   0.000000
               7          8          9         10         11         12
     1  C    0.000000   0.000000   0.000000   0.000000   0.000000   0.000000
     2  C    0.000000   0.000000   0.000000   0.000000   0.000000   0.000000
     3  C    0.000000   0.000000   0.000000   0.000000   0.000000   0.000000
     4  C    0.000000   0.000000   0.000000   0.000000   0.000000   0.000000
     5  C    0.000000   0.000000   0.000000   0.000000   0.000000   0.000000
     6  C    0.000000   0.000000   0.000000   0.000000   0.000000   0.000000
     7  Br   6.936333   0.000000   0.000000   0.000000   0.000000   0.000000
     8  H    0.000000   0.840531   0.000000   0.000000   0.000000   0.000000
     9  H    0.000000   0.000000   0.840540   0.000000   0.000000   0.000000
    10  H    0.000000   0.000000   0.000000   0.840563   0.000000   0.000000
    11  Br   0.000000   0.000000   0.000000   0.000000   6.936351   0.000000
    12  Br   0.000000   0.000000   0.000000   0.000000   0.000000   6.936373
 Mulliken charges:
               1
     1  C   -0.156600
     2  C   -0.066514
     3  C   -0.156614
     4  C   -0.066480
     5  C   -0.156590
     6  C   -0.066511
     7  Br   0.063667
     8  H    0.159469
     9  H    0.159460
    10  H    0.159437
    11  Br   0.063649
    12  Br   0.063627
 Sum of Mulliken charges =   0.00000
 Mulliken charges with hydrogens summed into heavy atoms:
               1
     1  C   -0.156600
     2  C    0.092923
     3  C   -0.156614
     4  C    0.092989
     5  C   -0.156590
     6  C    0.092950
     7  Br   0.063667
    11  Br   0.063649
    12  Br   0.063627
 Charge=              0.0000 electrons
 Dipole moment (field-independent basis, Debye):
    X=             -0.0003    Y=             -0.0002    Z=              0.0007  Tot=              0.0008
 N-N= 2.426430836326D+02 E-N=-3.408736431164D+02  KE=-1.102860781235D+02
 Calling FoFJK, ICntrl=      2127 FMM=F ISym2X=0 I1Cent= 0 IOpClX= 0 NMat=1 NMatS=1 NMatT=0.
 ***** Axes restored to original set *****
 -------------------------------------------------------------------
 Center     Atomic                   Forces (Hartrees/Bohr)
 Number     Number              X              Y              Z
 -------------------------------------------------------------------
      1        6          -0.005830139   -0.010260919   -0.000019828
      2        6          -0.007097200    0.011924652    0.000113375
      3        6           0.011704665    0.000430635   -0.000062488
      4        6          -0.006759324   -0.012370173    0.000042149
      5        6          -0.005956864    0.010202292    0.000013227
      6        6           0.013949361    0.000070256   -0.000057044
      7       35          -0.016340675    0.000002026   -0.000009000
      8        1           0.012175765    0.021112680   -0.000021144
      9        1          -0.024389569    0.000000820    0.000008376
     10        1           0.012202889   -0.021128065   -0.000017568
     11       35           0.008166198    0.014138476   -0.000004800
     12       35           0.008174893   -0.014122680    0.000014745
 -------------------------------------------------------------------
 Cartesian Forces:  Max     0.024389569 RMS     0.009980473

 GradGradGradGradGradGradGradGradGradGradGradGradGradGradGradGradGradGrad
 Berny optimization.
 FormGI is forming the generalized inverse of G from B-inverse, IUseBI=4.
 Internal  Forces:  Max     0.024398844 RMS     0.007156254
 Search for a local minimum.
 Step number   1 out of a maximum of   64
 All quantities printed in internal units (Hartrees-Bohrs-Radians)
 Mixed Optimization -- RFO/linear search
 Second derivative matrix not updated -- first step.
 ITU=  0
     Eigenvalues ---    0.02152   0.02153   0.02154   0.02155   0.02155
     Eigenvalues ---    0.02155   0.02155   0.02156   0.02157   0.16000
     Eigenvalues ---    0.16000   0.16000   0.17771   0.17771   0.17771
     Eigenvalues ---    0.23479   0.23479   0.23500   0.25000   0.25000
     Eigenvalues ---    0.25000   0.37230   0.37230   0.37230   0.42394
     Eigenvalues ---    0.42410   0.46412   0.46453   0.46466   0.46497
 RFO step:  Lambda=-9.58243584D-03 EMin= 2.15189826D-02
 Linear search not attempted -- first point.
 Iteration  1 RMS(Cart)=  0.02950738 RMS(Int)=  0.00003105
 Iteration  2 RMS(Cart)=  0.00004010 RMS(Int)=  0.00000241
 Iteration  3 RMS(Cart)=  0.00000000 RMS(Int)=  0.00000241
 Variable       Old X    -DE/DX   Delta X   Delta X   Delta X     New X
                                 (Linear)    (Quad)   (Total)
    R1        2.63647   0.00290   0.00000   0.00613   0.00613   2.64260
    R2        2.63584   0.00301   0.00000   0.00636   0.00636   2.64220
    R3        3.60938  -0.01633   0.00000  -0.08718  -0.08718   3.52220
    R4        2.63562   0.00312   0.00000   0.00657   0.00657   2.64219
    R5        2.02201   0.02440   0.00000   0.06389   0.06389   2.08590
    R6        2.63697   0.00263   0.00000   0.00554   0.00554   2.64252
    R7        3.60938  -0.01634   0.00000  -0.08725  -0.08725   3.52213
    R8        2.63584   0.00299   0.00000   0.00628   0.00628   2.64212
    R9        2.02201   0.02437   0.00000   0.06382   0.06382   2.08583
   R10        2.63643   0.00293   0.00000   0.00619   0.00619   2.64261
   R11        3.60938  -0.01632   0.00000  -0.08713  -0.08713   3.52225
   R12        2.02201   0.02439   0.00000   0.06387   0.06387   2.08587
    A1        2.09437   0.00377   0.00000   0.01548   0.01548   2.10985
    A2        2.09435  -0.00189   0.00000  -0.00777  -0.00777   2.08658
    A3        2.09447  -0.00188   0.00000  -0.00771  -0.00771   2.08676
    A4        2.09455  -0.00382   0.00000  -0.01562  -0.01562   2.07893
    A5        2.09406   0.00192   0.00000   0.00788   0.00788   2.10194
    A6        2.09458   0.00190   0.00000   0.00774   0.00774   2.10232
    A7        2.09429   0.00383   0.00000   0.01561   0.01561   2.10990
    A8        2.09462  -0.00191   0.00000  -0.00778  -0.00778   2.08684
    A9        2.09427  -0.00192   0.00000  -0.00783  -0.00783   2.08645
   A10        2.09429  -0.00376   0.00000  -0.01542  -0.01542   2.07887
   A11        2.09407   0.00190   0.00000   0.00784   0.00784   2.10190
   A12        2.09483   0.00186   0.00000   0.00759   0.00759   2.10242
   A13        2.09448   0.00379   0.00000   0.01549   0.01549   2.10997
   A14        2.09459  -0.00192   0.00000  -0.00784  -0.00784   2.08675
   A15        2.09411  -0.00187   0.00000  -0.00765  -0.00765   2.08647
   A16        2.09440  -0.00381   0.00000  -0.01554  -0.01554   2.07886
   A17        2.09453   0.00190   0.00000   0.00775   0.00775   2.10228
   A18        2.09426   0.00191   0.00000   0.00779   0.00779   2.10204
    D1        0.00056  -0.00002   0.00000  -0.00060  -0.00059  -0.00003
    D2        3.14078   0.00002   0.00000   0.00075   0.00075   3.14153
    D3       -3.14112  -0.00002   0.00000  -0.00057  -0.00057   3.14150
    D4       -0.00091   0.00002   0.00000   0.00078   0.00078  -0.00013
    D5        0.00026  -0.00001   0.00000  -0.00021  -0.00020   0.00006
    D6        3.14140   0.00001   0.00000   0.00027   0.00028  -3.14151
    D7       -3.14124  -0.00001   0.00000  -0.00024  -0.00023  -3.14147
    D8       -0.00010   0.00001   0.00000   0.00025   0.00025   0.00015
    D9       -0.00099   0.00003   0.00000   0.00100   0.00100   0.00001
   D10        3.14093   0.00002   0.00000   0.00064   0.00064   3.14156
   D11       -3.14120  -0.00001   0.00000  -0.00035  -0.00034  -3.14155
   D12        0.00072  -0.00002   0.00000  -0.00071  -0.00071   0.00001
   D13        0.00060  -0.00002   0.00000  -0.00061  -0.00062  -0.00002
   D14       -3.14153  -0.00000   0.00000  -0.00012  -0.00012   3.14153
   D15       -3.14132  -0.00001   0.00000  -0.00025  -0.00025  -3.14157
   D16       -0.00026   0.00001   0.00000   0.00024   0.00024  -0.00002
   D17        0.00023  -0.00000   0.00000  -0.00017  -0.00018   0.00005
   D18       -3.14158   0.00001   0.00000   0.00020   0.00020  -3.14139
   D19       -3.14083  -0.00002   0.00000  -0.00067  -0.00067  -3.14150
   D20        0.00054  -0.00001   0.00000  -0.00030  -0.00030   0.00024
   D21       -0.00066   0.00002   0.00000   0.00059   0.00059  -0.00007
   D22        3.14138   0.00000   0.00000   0.00011   0.00011   3.14150
   D23        3.14116   0.00001   0.00000   0.00022   0.00021   3.14137
   D24        0.00001  -0.00001   0.00000  -0.00027  -0.00027  -0.00025
         Item               Value     Threshold  Converged?
 Maximum Force            0.024399     0.000450     NO 
 RMS     Force            0.007156     0.000300     NO 
 Maximum Displacement     0.093139     0.001800     NO 
 RMS     Displacement     0.029517     0.001200     NO 
 Predicted change in Energy=-4.970608D-03
 GradGradGradGradGradGradGradGradGradGradGradGradGradGradGradGradGradGrad

                          Input orientation:                          
 ---------------------------------------------------------------------
 Center     Atomic      Atomic             Coordinates (Angstroms)
 Number     Number       Type             X           Y           Z
 ---------------------------------------------------------------------
      1          6           0       -1.855243    1.435275    0.000072
      2          6           0       -0.456878    1.424435    0.000547
      3          6           0        0.232855    2.640658   -0.000007
      4          6           0       -0.456866    3.857085   -0.001012
      5          6           0       -1.854972    3.846270   -0.001486
      6          6           0       -2.563644    2.640725   -0.000910
      7         35           0        2.096685    2.640946    0.000662
      8          1           0        0.095293    4.812823   -0.001389
      9          1           0       -3.667441    2.640932   -0.001198
     10          1           0        0.094829    0.468394    0.001384
     11         35           0       -2.787076   -0.178940    0.000652
     12         35           0       -2.787066    5.460364   -0.003158
 ---------------------------------------------------------------------
                    Distance matrix (angstroms):
                    1          2          3          4          5
     1  C    0.000000
     2  C    1.398406   0.000000
     3  C    2.411037   1.398188   0.000000
     4  C    2.796538   2.432651   1.398360   0.000000
     5  C    2.410995   2.796418   2.410917   1.398148   0.000000
     6  C    1.398193   2.432658   2.796499   2.432703   1.398411
     7  Br   4.131752   2.828531   1.863831   2.828360   4.131392
     8  H    3.900310   3.433084   2.176517   1.103772   2.176639
     9  H    2.176619   3.433304   3.900295   3.433194   2.176668
    10  H    2.176612   1.103810   2.176644   3.433307   3.900227
    11  Br   1.863868   2.828539   4.131600   4.660406   4.131724
    12  Br   4.131543   4.660312   4.131667   2.828487   1.863895
                    6          7          8          9         10
     6  C    0.000000
     7  Br   4.660330   0.000000
     8  H    3.433359   2.953409   0.000000
     9  H    1.103797   5.764126   4.344568   0.000000
    10  H    3.433148   2.954219   4.344429   4.344490   0.000000
    11  Br   2.828505   5.639405   5.764179   2.954103   2.953713
    12  Br   2.828478   5.639163   2.954201   2.953687   5.764122
                   11         12
    11  Br   0.000000
    12  Br   5.639306   0.000000
 Stoichiometry    C6H3Br3
 Framework group  C1[X(C6H3Br3)]
 Deg. of freedom    30
 Full point group                 C1      NOp   1
 Largest Abelian subgroup         C1      NOp   1
 Largest concise Abelian subgroup C1      NOp   1
                         Standard orientation:                         
 ---------------------------------------------------------------------
 Center     Atomic      Atomic             Coordinates (Angstroms)
 Number     Number       Type             X           Y           Z
 ---------------------------------------------------------------------
      1          6           0        1.359030    0.301373    0.000104
      2          6           0        0.422174    1.339565    0.000030
      3          6           0       -0.940458    1.026255    0.000027
      4          6           0       -1.371173   -0.304119    0.000108
      5          6           0       -0.418528   -1.327488    0.000168
      6          6           0        0.949030   -1.035356    0.000207
      7         35           0       -2.200023    2.400068   -0.000026
      8          1           0       -2.448820   -0.542843    0.000161
      9          1           0        1.694691   -1.849209    0.000347
     10          1           0        0.754186    2.392258    0.000009
     11         35           0        3.178643    0.705122   -0.000043
     12         35           0       -0.978634   -3.105235   -0.000057
 ---------------------------------------------------------------------
 Rotational constants (GHZ):           0.3786476           0.3786104           0.1893145
 Standard basis: VSTO-6G (5D, 7F)
 There are    39 symmetry adapted cartesian basis functions of A   symmetry.
 There are    39 symmetry adapted basis functions of A   symmetry.
    39 basis functions,   234 primitive gaussians,    39 cartesian basis functions
    24 alpha electrons       24 beta electrons
       nuclear repulsion energy       243.7005018382 Hartrees.
 Integral buffers will be    131072 words long.
 Regular integral format.
 Two-electron integral symmetry is turned off.
 Do NDO integrals.
 One-electron integrals computed using PRISM.
 NBasis=    39 RedAO= F EigKep=  0.00D+00  NBF=    39
 NBsUse=    39 1.00D-04 EigRej=  0.00D+00 NBFU=    39
 Initial guess from the checkpoint file:  "geometry_chks/135tribromobenzene.chk"
 B after Tr=    -0.000000   -0.000000    0.000000
         Rot=    0.846766   -0.000000   -0.000000    0.531965 Ang= -64.28 deg.
 Keep J ints in memory in canonical form, NReq=863709.
 Overlap will be assumed to be unity.
 Requested convergence on RMS density matrix=1.00D-08 within 128 cycles.
 Requested convergence on MAX density matrix=1.00D-06.
 Requested convergence on             energy=1.00D-06.
 No special actions if energy rises.
 SCF Done:  E(RAM1) =  0.608163881601E-01 A.U. after   13 cycles
            NFock= 12  Conv=0.27D-08     -V/T= 1.0006
 Calling FoFJK, ICntrl=      2127 FMM=F ISym2X=0 I1Cent= 0 IOpClX= 0 NMat=1 NMatS=1 NMatT=0.
 ***** Axes restored to original set *****
 -------------------------------------------------------------------
 Center     Atomic                   Forces (Hartrees/Bohr)
 Number     Number              X              Y              Z
 -------------------------------------------------------------------
      1        6           0.000109793    0.000029978   -0.000001967
      2        6          -0.002349443    0.003875353   -0.000001789
      3        6          -0.000054310    0.000035585    0.000005519
      4        6          -0.002197339   -0.003969248    0.000004577
      5        6          -0.000100473   -0.000082811   -0.000008873
      6        6           0.004564929    0.000086043    0.000004559
      7       35           0.004095103   -0.000014654    0.000000683
      8        1          -0.000443799   -0.000721388   -0.000002575
      9        1           0.000867568   -0.000005302   -0.000002865
     10        1          -0.000424641    0.000763516   -0.000003052
     11       35          -0.002037560   -0.003524761    0.000003893
     12       35          -0.002029830    0.003527689    0.000001889
 -------------------------------------------------------------------
 Cartesian Forces:  Max     0.004564929 RMS     0.001780649

 GradGradGradGradGradGradGradGradGradGradGradGradGradGradGradGradGradGrad
 Berny optimization.
 Using GEDIIS/GDIIS optimizer.
 FormGI is forming the generalized inverse of G from B-inverse, IUseBI=4.
 Internal  Forces:  Max     0.004095101 RMS     0.001406108
 Search for a local minimum.
 Step number   2 out of a maximum of   64
 All quantities printed in internal units (Hartrees-Bohrs-Radians)
 Mixed Optimization -- RFO/linear search
 Update second derivatives using D2CorX and points    1    2
 DE= -3.99D-03 DEPred=-4.97D-03 R= 8.03D-01
 TightC=F SS=  1.41D+00  RLast= 1.93D-01 DXNew= 5.0454D-01 5.8050D-01
 Trust test= 8.03D-01 RLast= 1.93D-01 DXMaxT set to 5.05D-01
 ITU=  1  0
 Use linear search instead of GDIIS.
     Eigenvalues ---    0.02152   0.02153   0.02154   0.02155   0.02155
     Eigenvalues ---    0.02155   0.02155   0.02156   0.02157   0.16000
     Eigenvalues ---    0.16000   0.16000   0.17771   0.17771   0.19789
     Eigenvalues ---    0.23492   0.23492   0.25000   0.25000   0.25000
     Eigenvalues ---    0.25732   0.36798   0.37230   0.37230   0.42407
     Eigenvalues ---    0.42423   0.46438   0.46461   0.46467   0.46710
 RFO step:  Lambda=-1.71453592D-04 EMin= 2.15189816D-02
 Quartic linear search produced a step of -0.14288.
 Iteration  1 RMS(Cart)=  0.00606152 RMS(Int)=  0.00000782
 Iteration  2 RMS(Cart)=  0.00001079 RMS(Int)=  0.00000041
 Iteration  3 RMS(Cart)=  0.00000000 RMS(Int)=  0.00000041
 Variable       Old X    -DE/DX   Delta X   Delta X   Delta X     New X
                                 (Linear)    (Quad)   (Total)
    R1        2.64260  -0.00077  -0.00088  -0.00042  -0.00130   2.64131
    R2        2.64220  -0.00068  -0.00091  -0.00020  -0.00111   2.64109
    R3        3.52220   0.00407   0.01246   0.00489   0.01734   3.53955
    R4        2.64219  -0.00069  -0.00094  -0.00018  -0.00112   2.64107
    R5        2.08590  -0.00087  -0.00913   0.00855  -0.00058   2.08532
    R6        2.64252  -0.00071  -0.00079  -0.00039  -0.00118   2.64134
    R7        3.52213   0.00410   0.01247   0.00499   0.01746   3.53959
    R8        2.64212  -0.00064  -0.00090  -0.00015  -0.00105   2.64107
    R9        2.08583  -0.00085  -0.00912   0.00860  -0.00052   2.08531
   R10        2.64261  -0.00078  -0.00088  -0.00043  -0.00131   2.64130
   R11        3.52225   0.00407   0.01245   0.00489   0.01734   3.53959
   R12        2.08587  -0.00087  -0.00913   0.00856  -0.00056   2.08531
    A1        2.10985  -0.00237  -0.00221  -0.00608  -0.00829   2.10156
    A2        2.08658   0.00119   0.00111   0.00305   0.00416   2.09074
    A3        2.08676   0.00118   0.00110   0.00303   0.00413   2.09089
    A4        2.07893   0.00239   0.00223   0.00608   0.00831   2.08724
    A5        2.10194  -0.00118  -0.00113  -0.00295  -0.00408   2.09786
    A6        2.10232  -0.00121  -0.00111  -0.00313  -0.00424   2.09808
    A7        2.10990  -0.00240  -0.00223  -0.00612  -0.00835   2.10155
    A8        2.08684   0.00117   0.00111   0.00297   0.00409   2.09092
    A9        2.08645   0.00123   0.00112   0.00315   0.00427   2.09072
   A10        2.07887   0.00239   0.00220   0.00615   0.00836   2.08722
   A11        2.10190  -0.00117  -0.00112  -0.00293  -0.00405   2.09786
   A12        2.10242  -0.00122  -0.00108  -0.00323  -0.00431   2.09810
   A13        2.10997  -0.00241  -0.00221  -0.00618  -0.00839   2.10157
   A14        2.08675   0.00119   0.00112   0.00303   0.00416   2.09091
   A15        2.08647   0.00122   0.00109   0.00314   0.00424   2.09071
   A16        2.07886   0.00240   0.00222   0.00615   0.00837   2.08722
   A17        2.10228  -0.00121  -0.00111  -0.00310  -0.00421   2.09807
   A18        2.10204  -0.00120  -0.00111  -0.00304  -0.00415   2.09789
    D1       -0.00003   0.00000   0.00008  -0.00011  -0.00003  -0.00006
    D2        3.14153   0.00000  -0.00011   0.00020   0.00009  -3.14157
    D3        3.14150   0.00000   0.00008  -0.00004   0.00004   3.14154
    D4       -0.00013   0.00000  -0.00011   0.00027   0.00016   0.00003
    D5        0.00006   0.00000   0.00003  -0.00004  -0.00001   0.00004
    D6       -3.14151  -0.00000  -0.00004   0.00006   0.00002  -3.14149
    D7       -3.14147  -0.00000   0.00003  -0.00011  -0.00008  -3.14155
    D8        0.00015  -0.00000  -0.00004  -0.00001  -0.00005   0.00010
    D9        0.00001  -0.00000  -0.00014   0.00019   0.00005   0.00006
   D10        3.14156   0.00000  -0.00009   0.00017   0.00007  -3.14155
   D11       -3.14155  -0.00000   0.00005  -0.00012  -0.00007   3.14157
   D12        0.00001   0.00000   0.00010  -0.00015  -0.00004  -0.00004
   D13       -0.00002   0.00000   0.00009  -0.00012  -0.00003  -0.00005
   D14        3.14153   0.00000   0.00002   0.00000   0.00002   3.14155
   D15       -3.14157  -0.00000   0.00004  -0.00009  -0.00006   3.14155
   D16       -0.00002  -0.00000  -0.00003   0.00003  -0.00000  -0.00002
   D17        0.00005   0.00000   0.00003  -0.00003  -0.00001   0.00004
   D18       -3.14139  -0.00000  -0.00003  -0.00012  -0.00015  -3.14154
   D19       -3.14150  -0.00000   0.00010  -0.00016  -0.00006  -3.14157
   D20        0.00024  -0.00000   0.00004  -0.00025  -0.00020   0.00004
   D21       -0.00007  -0.00000  -0.00008   0.00011   0.00003  -0.00004
   D22        3.14150  -0.00000  -0.00002   0.00002  -0.00000   3.14149
   D23        3.14137   0.00000  -0.00003   0.00020   0.00017   3.14154
   D24       -0.00025   0.00000   0.00004   0.00010   0.00014  -0.00011
         Item               Value     Threshold  Converged?
 Maximum Force            0.004095     0.000450     NO 
 RMS     Force            0.001406     0.000300     NO 
 Maximum Displacement     0.022727     0.001800     NO 
 RMS     Displacement     0.006058     0.001200     NO 
 Predicted change in Energy=-1.992474D-04
 GradGradGradGradGradGradGradGradGradGradGradGradGradGradGradGradGradGrad

                          Input orientation:                          
 ---------------------------------------------------------------------
 Center     Atomic      Atomic             Coordinates (Angstroms)
 Number     Number       Type             X           Y           Z
 ---------------------------------------------------------------------
      1          6           0       -1.856580    1.432889    0.000056
      2          6           0       -0.458869    1.427837    0.000592
      3          6           0        0.235643    2.640655    0.000016
      4          6           0       -0.458844    3.853650   -0.001016
      5          6           0       -1.856430    3.848682   -0.001538
      6          6           0       -2.559671    2.640763   -0.000983
      7         35           0        2.108712    2.640775    0.000654
      8          1           0        0.093052    4.809224   -0.001432
      9          1           0       -3.663169    2.640906   -0.001303
     10          1           0        0.092743    0.472094    0.001386
     11         35           0       -2.793039   -0.189254    0.000737
     12         35           0       -2.793071    5.470747   -0.003012
 ---------------------------------------------------------------------
                    Distance matrix (angstroms):
                    1          2          3          4          5
     1  C    0.000000
     2  C    1.397720   0.000000
     3  C    2.415801   1.397596   0.000000
     4  C    2.795308   2.425813   1.397737   0.000000
     5  C    2.415793   2.795294   2.415802   1.397595   0.000000
     6  C    1.397604   2.425811   2.795314   2.425812   1.397718
     7  Br   4.145181   2.839664   1.873069   2.839615   4.145044
     8  H    3.898807   3.426134   2.173252   1.103499   2.173274
     9  H    2.173263   3.426234   3.898812   3.426142   2.173253
    10  H    2.173244   1.103504   2.173265   3.426248   3.898798
    11  Br   1.873047   2.839601   4.145033   4.668355   4.145137
    12  Br   4.145035   4.668364   4.145182   2.839651   1.873071
                    6          7          8          9         10
     6  C    0.000000
     7  Br   4.668383   0.000000
     8  H    3.426245   2.960585   0.000000
     9  H    1.103499   5.771881   4.337141   0.000000
    10  H    3.426139   2.960964   4.337131   4.337122   0.000000
    11  Br   2.839623   5.660055   5.771854   2.960901   2.960594
    12  Br   2.839592   5.660055   2.960965   2.960586   5.771869
                   11         12
    11  Br   0.000000
    12  Br   5.660002   0.000000
 Stoichiometry    C6H3Br3
 Framework group  C1[X(C6H3Br3)]
 Deg. of freedom    30
 Full point group                 C1      NOp   1
 Largest Abelian subgroup         C1      NOp   1
 Largest concise Abelian subgroup C1      NOp   1
                         Standard orientation:                         
 ---------------------------------------------------------------------
 Center     Atomic      Atomic             Coordinates (Angstroms)
 Number     Number       Type             X           Y           Z
 ---------------------------------------------------------------------
      1          6           0        0.700229    1.206255    0.000033
      2          6           0       -0.697467    1.214526    0.000056
      3          6           0       -1.394770    0.003310    0.000030
      4          6           0       -0.703078   -1.211281    0.000054
      5          6           0        0.694516   -1.209531    0.000040
      6          6           0        1.400536   -0.003236    0.000052
      7         35           0       -3.267834    0.007504   -0.000016
      8          1           0       -1.257172   -2.165582    0.000069
      9          1           0        2.504032   -0.005920    0.000134
     10          1           0       -1.246876    2.171537    0.000016
     11         35           0        1.640421    2.826237   -0.000017
     12         35           0        1.627419   -2.833749   -0.000019
 ---------------------------------------------------------------------
 Rotational constants (GHZ):           0.3760536           0.3760446           0.1880245
 Standard basis: VSTO-6G (5D, 7F)
 There are    39 symmetry adapted cartesian basis functions of A   symmetry.
 There are    39 symmetry adapted basis functions of A   symmetry.
    39 basis functions,   234 primitive gaussians,    39 cartesian basis functions
    24 alpha electrons       24 beta electrons
       nuclear repulsion energy       243.3991001307 Hartrees.
 Integral buffers will be    131072 words long.
 Regular integral format.
 Two-electron integral symmetry is turned off.
 Do NDO integrals.
 One-electron integrals computed using PRISM.
 NBasis=    39 RedAO= F EigKep=  0.00D+00  NBF=    39
 NBsUse=    39 1.00D-04 EigRej=  0.00D+00 NBFU=    39
 Initial guess from the checkpoint file:  "geometry_chks/135tribromobenzene.chk"
 B after Tr=    -0.000000   -0.000000    0.000000
         Rot=    0.915802    0.000000    0.000000   -0.401630 Ang= -47.36 deg.
 Keep J ints in memory in canonical form, NReq=863709.
 Overlap will be assumed to be unity.
 Requested convergence on RMS density matrix=1.00D-08 within 128 cycles.
 Requested convergence on MAX density matrix=1.00D-06.
 Requested convergence on             energy=1.00D-06.
 No special actions if energy rises.
 SCF Done:  E(RAM1) =  0.606227432778E-01 A.U. after   11 cycles
            NFock= 10  Conv=0.97D-08     -V/T= 1.0005
 Calling FoFJK, ICntrl=      2127 FMM=F ISym2X=0 I1Cent= 0 IOpClX= 0 NMat=1 NMatS=1 NMatT=0.
 ***** Axes restored to original set *****
 -------------------------------------------------------------------
 Center     Atomic                   Forces (Hartrees/Bohr)
 Number     Number              X              Y              Z
 -------------------------------------------------------------------
      1        6          -0.000314034   -0.000623203    0.000003237
      2        6          -0.000322189    0.000464876   -0.000009914
      3        6           0.000697074    0.000061766    0.000005173
      4        6          -0.000232745   -0.000532742   -0.000002913
      5        6          -0.000395474    0.000593465    0.000000038
      6        6           0.000574687    0.000040059    0.000004275
      7       35          -0.000628059   -0.000006240    0.000000163
      8        1          -0.000167878   -0.000272067   -0.000000348
      9        1           0.000318638   -0.000006643   -0.000003635
     10        1          -0.000153620    0.000282862    0.000002004
     11       35           0.000305205    0.000536472    0.000000411
     12       35           0.000318396   -0.000538604    0.000001510
 -------------------------------------------------------------------
 Cartesian Forces:  Max     0.000697074 RMS     0.000331226

 GradGradGradGradGradGradGradGradGradGradGradGradGradGradGradGradGradGrad
 Berny optimization.
 Using GEDIIS/GDIIS optimizer.
 FormGI is forming the generalized inverse of G from B-inverse, IUseBI=4.
 Internal  Forces:  Max     0.000628059 RMS     0.000236445
 Search for a local minimum.
 Step number   3 out of a maximum of   64
 All quantities printed in internal units (Hartrees-Bohrs-Radians)
 Mixed Optimization -- En-DIIS/RFO-DIIS
 Update second derivatives using D2CorX and points    1    2    3
 DE= -1.94D-04 DEPred=-1.99D-04 R= 9.72D-01
 TightC=F SS=  1.41D+00  RLast= 3.93D-02 DXNew= 8.4853D-01 1.1783D-01
 Trust test= 9.72D-01 RLast= 3.93D-02 DXMaxT set to 5.05D-01
 ITU=  1  1  0
 Use linear search instead of GDIIS.
     Eigenvalues ---    0.02152   0.02153   0.02154   0.02155   0.02155
     Eigenvalues ---    0.02155   0.02155   0.02156   0.02157   0.15999
     Eigenvalues ---    0.16000   0.16000   0.17771   0.17771   0.20231
     Eigenvalues ---    0.23485   0.23485   0.24998   0.25000   0.25000
     Eigenvalues ---    0.26345   0.36480   0.37230   0.37230   0.42406
     Eigenvalues ---    0.42422   0.46181   0.46446   0.46466   0.46472
 RFO step:  Lambda=-1.08847218D-05 EMin= 2.15189966D-02
 Quartic linear search produced a step of -0.02622.
 Iteration  1 RMS(Cart)=  0.00100804 RMS(Int)=  0.00000027
 Iteration  2 RMS(Cart)=  0.00000035 RMS(Int)=  0.00000001
 Variable       Old X    -DE/DX   Delta X   Delta X   Delta X     New X
                                 (Linear)    (Quad)   (Total)
    R1        2.64131  -0.00043   0.00003  -0.00098  -0.00094   2.64036
    R2        2.64109  -0.00039   0.00003  -0.00088  -0.00085   2.64024
    R3        3.53955  -0.00062  -0.00045  -0.00230  -0.00276   3.53679
    R4        2.64107  -0.00038   0.00003  -0.00087  -0.00084   2.64023
    R5        2.08532  -0.00032   0.00002  -0.00085  -0.00084   2.08448
    R6        2.64134  -0.00044   0.00003  -0.00101  -0.00098   2.64036
    R7        3.53959  -0.00063  -0.00046  -0.00236  -0.00281   3.53677
    R8        2.64107  -0.00038   0.00003  -0.00086  -0.00084   2.64023
    R9        2.08531  -0.00032   0.00001  -0.00084  -0.00083   2.08448
   R10        2.64130  -0.00043   0.00003  -0.00097  -0.00094   2.64036
   R11        3.53959  -0.00063  -0.00045  -0.00235  -0.00280   3.53679
   R12        2.08531  -0.00032   0.00001  -0.00084  -0.00083   2.08448
    A1        2.10156  -0.00025   0.00022  -0.00155  -0.00133   2.10023
    A2        2.09074   0.00013  -0.00011   0.00080   0.00069   2.09143
    A3        2.09089   0.00012  -0.00011   0.00075   0.00064   2.09152
    A4        2.08724   0.00024  -0.00022   0.00154   0.00132   2.08856
    A5        2.09786  -0.00011   0.00011  -0.00071  -0.00060   2.09726
    A6        2.09808  -0.00013   0.00011  -0.00083  -0.00072   2.09736
    A7        2.10155  -0.00024   0.00022  -0.00153  -0.00132   2.10023
    A8        2.09092   0.00011  -0.00011   0.00072   0.00061   2.09153
    A9        2.09072   0.00013  -0.00011   0.00082   0.00070   2.09142
   A10        2.08722   0.00025  -0.00022   0.00155   0.00133   2.08855
   A11        2.09786  -0.00011   0.00011  -0.00071  -0.00060   2.09726
   A12        2.09810  -0.00013   0.00011  -0.00084  -0.00073   2.09737
   A13        2.10157  -0.00025   0.00022  -0.00156  -0.00134   2.10024
   A14        2.09091   0.00011  -0.00011   0.00073   0.00062   2.09153
   A15        2.09071   0.00013  -0.00011   0.00082   0.00071   2.09142
   A16        2.08722   0.00025  -0.00022   0.00155   0.00133   2.08856
   A17        2.09807  -0.00013   0.00011  -0.00082  -0.00071   2.09736
   A18        2.09789  -0.00012   0.00011  -0.00073  -0.00062   2.09727
    D1       -0.00006   0.00000   0.00000   0.00007   0.00007   0.00001
    D2       -3.14157  -0.00000  -0.00000  -0.00004  -0.00004   3.14157
    D3        3.14154   0.00000  -0.00000   0.00006   0.00006  -3.14159
    D4        0.00003  -0.00000  -0.00000  -0.00005  -0.00005  -0.00002
    D5        0.00004  -0.00000   0.00000  -0.00002  -0.00002   0.00002
    D6       -3.14149  -0.00000  -0.00000  -0.00009  -0.00009  -3.14157
    D7       -3.14155  -0.00000   0.00000  -0.00002  -0.00002  -3.14157
    D8        0.00010  -0.00000   0.00000  -0.00008  -0.00008   0.00002
    D9        0.00006  -0.00000  -0.00000  -0.00009  -0.00009  -0.00003
   D10       -3.14155  -0.00000  -0.00000  -0.00006  -0.00006   3.14158
   D11        3.14157   0.00000   0.00000   0.00002   0.00002  -3.14159
   D12       -0.00004   0.00000   0.00000   0.00005   0.00005   0.00002
   D13       -0.00005   0.00000   0.00000   0.00007   0.00007   0.00001
   D14        3.14155   0.00000  -0.00000   0.00004   0.00004   3.14159
   D15        3.14155   0.00000   0.00000   0.00004   0.00004   3.14159
   D16       -0.00002   0.00000   0.00000   0.00001   0.00001  -0.00002
   D17        0.00004  -0.00000   0.00000  -0.00002  -0.00002   0.00002
   D18       -3.14154  -0.00000   0.00000  -0.00005  -0.00004  -3.14158
   D19       -3.14157   0.00000   0.00000   0.00001   0.00001  -3.14156
   D20        0.00004  -0.00000   0.00001  -0.00002  -0.00001   0.00003
   D21       -0.00004   0.00000  -0.00000   0.00000   0.00000  -0.00003
   D22        3.14149   0.00000   0.00000   0.00006   0.00006   3.14156
   D23        3.14154   0.00000  -0.00000   0.00003   0.00002   3.14156
   D24       -0.00011   0.00000  -0.00000   0.00009   0.00008  -0.00003
         Item               Value     Threshold  Converged?
 Maximum Force            0.000628     0.000450     NO 
 RMS     Force            0.000236     0.000300     YES
 Maximum Displacement     0.002734     0.001800     NO 
 RMS     Displacement     0.001008     0.001200     YES
 Predicted change in Energy=-5.581276D-06
 GradGradGradGradGradGradGradGradGradGradGradGradGradGradGradGradGradGrad

                          Input orientation:                          
 ---------------------------------------------------------------------
 Center     Atomic      Atomic             Coordinates (Angstroms)
 Number     Number       Type             X           Y           Z
 ---------------------------------------------------------------------
      1          6           0       -1.856596    1.432822    0.000057
      2          6           0       -0.459382    1.428704    0.000548
      3          6           0        0.235700    2.640683    0.000016
      4          6           0       -0.459335    3.852768   -0.001036
      5          6           0       -1.856481    3.848732   -0.001540
      6          6           0       -2.558662    2.640773   -0.000975
      7         35           0        2.107280    2.640728    0.000691
      8          1           0        0.092280    4.807997   -0.001452
      9          1           0       -3.661723    2.640863   -0.001342
     10          1           0        0.092070    0.473379    0.001381
     11         35           0       -2.792364   -0.188034    0.000777
     12         35           0       -2.792309    5.469552   -0.002968
 ---------------------------------------------------------------------
                    Distance matrix (angstroms):
                    1          2          3          4          5
     1  C    0.000000
     2  C    1.397220   0.000000
     3  C    2.415911   1.397151   0.000000
     4  C    2.794365   2.424064   1.397220   0.000000
     5  C    2.415910   2.794356   2.415907   1.397152   0.000000
     6  C    1.397156   2.424065   2.794362   2.424068   1.397220
     7  Br   4.143832   2.838442   1.871580   2.838408   4.143752
     8  H    3.897426   3.424026   2.172055   1.103060   2.172064
     9  H    2.172061   3.424080   3.897422   3.424032   2.172060
    10  H    2.172056   1.103061   2.172058   3.424080   3.897417
    11  Br   1.871587   2.838424   4.143768   4.665953   4.143835
    12  Br   4.143762   4.665942   4.143833   2.838444   1.871586
                    6          7          8          9         10
     6  C    0.000000
     7  Br   4.665942   0.000000
     8  H    3.424085   2.959271   0.000000
     9  H    1.103060   5.769003   4.334629   0.000000
    10  H    3.424030   2.959471   4.334619   4.334622   0.000000
    11  Br   2.838445   5.657597   5.769013   2.959468   2.959295
    12  Br   2.838413   5.657582   2.959479   2.959285   5.769004
                   11         12
    11  Br   0.000000
    12  Br   5.657588   0.000000
 Stoichiometry    C6H3Br3
 Framework group  C1[X(C6H3Br3)]
 Deg. of freedom    30
 Full point group                 C1      NOp   1
 Largest Abelian subgroup         C1      NOp   1
 Largest concise Abelian subgroup C1      NOp   1
                         Standard orientation:                         
 ---------------------------------------------------------------------
 Center     Atomic      Atomic             Coordinates (Angstroms)
 Number     Number       Type             X           Y           Z
 ---------------------------------------------------------------------
      1          6           0        1.319876    0.451078    0.000008
      2          6           0        0.270164    1.373212   -0.000011
      3          6           0       -1.050581    0.917512    0.000005
      4          6           0       -1.324323   -0.452630    0.000008
      5          6           0       -0.269299   -1.368577    0.000009
      6          6           0        1.054150   -0.920575    0.000030
      7         35           0       -2.460336    2.148530   -0.000001
      8          1           0       -2.368127   -0.809304    0.000023
      9          1           0        1.884946   -1.646192    0.000065
     10          1           0        0.483171    2.455512   -0.000011
     11         35           0        3.090857    1.056441   -0.000004
     12         35           0       -0.630519   -3.204974   -0.000006
 ---------------------------------------------------------------------
 Rotational constants (GHZ):           0.3763728           0.3763705           0.1881858
 Standard basis: VSTO-6G (5D, 7F)
 There are    39 symmetry adapted cartesian basis functions of A   symmetry.
 There are    39 symmetry adapted basis functions of A   symmetry.
    39 basis functions,   234 primitive gaussians,    39 cartesian basis functions
    24 alpha electrons       24 beta electrons
       nuclear repulsion energy       243.4660091746 Hartrees.
 Integral buffers will be    131072 words long.
 Regular integral format.
 Two-electron integral symmetry is turned off.
 Do NDO integrals.
 One-electron integrals computed using PRISM.
 NBasis=    39 RedAO= F EigKep=  0.00D+00  NBF=    39
 NBsUse=    39 1.00D-04 EigRej=  0.00D+00 NBFU=    39
 Initial guess from the checkpoint file:  "geometry_chks/135tribromobenzene.chk"
 B after Tr=     0.000000   -0.000000   -0.000000
         Rot=    0.936678    0.000000    0.000000    0.350191 Ang=  41.00 deg.
 Keep J ints in memory in canonical form, NReq=863709.
 Overlap will be assumed to be unity.
 Requested convergence on RMS density matrix=1.00D-08 within 128 cycles.
 Requested convergence on MAX density matrix=1.00D-06.
 Requested convergence on             energy=1.00D-06.
 No special actions if energy rises.
 SCF Done:  E(RAM1) =  0.606179938874E-01 A.U. after   11 cycles
            NFock= 10  Conv=0.16D-08     -V/T= 1.0005
 Calling FoFJK, ICntrl=      2127 FMM=F ISym2X=0 I1Cent= 0 IOpClX= 0 NMat=1 NMatS=1 NMatT=0.
 ***** Axes restored to original set *****
 -------------------------------------------------------------------
 Center     Atomic                   Forces (Hartrees/Bohr)
 Number     Number              X              Y              Z
 -------------------------------------------------------------------
      1        6          -0.000230844   -0.000448185   -0.000000213
      2        6           0.000097848   -0.000226602    0.000002950
      3        6           0.000504233    0.000028527   -0.000001835
      4        6           0.000144081    0.000196234    0.000000859
      5        6          -0.000277717    0.000425102    0.000000854
      6        6          -0.000240317    0.000023368   -0.000001092
      7       35          -0.000014332   -0.000003629    0.000000242
      8        1           0.000033157    0.000066398   -0.000000773
      9        1          -0.000074124   -0.000003372   -0.000000584
     10        1           0.000040018   -0.000061996   -0.000000869
     11       35           0.000006730    0.000016967    0.000000253
     12       35           0.000011268   -0.000012811    0.000000209
 -------------------------------------------------------------------
 Cartesian Forces:  Max     0.000504233 RMS     0.000163543

 GradGradGradGradGradGradGradGradGradGradGradGradGradGradGradGradGradGrad
 Berny optimization.
 Using GEDIIS/GDIIS optimizer.
 FormGI is forming the generalized inverse of G from B-inverse, IUseBI=4.
 Internal  Forces:  Max     0.000417377 RMS     0.000136626
 Search for a local minimum.
 Step number   4 out of a maximum of   64
 All quantities printed in internal units (Hartrees-Bohrs-Radians)
 Mixed Optimization -- En-DIIS/RFO-DIIS
 Swapping is turned off.
 Update second derivatives using D2CorX and points    1    2    3    4
 DE= -4.75D-06 DEPred=-5.58D-06 R= 8.51D-01
 TightC=F SS=  1.41D+00  RLast= 6.80D-03 DXNew= 8.4853D-01 2.0403D-02
 Trust test= 8.51D-01 RLast= 6.80D-03 DXMaxT set to 5.05D-01
 ITU=  1  1  1  0
     Eigenvalues ---    0.02152   0.02153   0.02154   0.02155   0.02155
     Eigenvalues ---    0.02155   0.02156   0.02156   0.02157   0.15332
     Eigenvalues ---    0.16000   0.16000   0.16036   0.17771   0.17771
     Eigenvalues ---    0.23484   0.23484   0.24998   0.25000   0.25000
     Eigenvalues ---    0.26284   0.36516   0.37230   0.37230   0.42404
     Eigenvalues ---    0.42420   0.46425   0.46453   0.46467   0.70484
 En-DIIS/RFO-DIIS/Sim-DIIS IScMMF=       -3 using points:     4    3
 RFO step:  Lambda=-1.70044563D-06.
 DidBck=F Rises=F RFO-DIIS coefs:    1.09705   -0.09705
 Iteration  1 RMS(Cart)=  0.00027461 RMS(Int)=  0.00000004
 Iteration  2 RMS(Cart)=  0.00000004 RMS(Int)=  0.00000000
 Variable       Old X    -DE/DX   Delta X   Delta X   Delta X     New X
                                 (Linear)    (Quad)   (Total)
    R1        2.64036   0.00039  -0.00009   0.00068   0.00059   2.64096
    R2        2.64024   0.00041  -0.00008   0.00073   0.00065   2.64089
    R3        3.53679  -0.00002  -0.00027  -0.00016  -0.00043   3.53636
    R4        2.64023   0.00042  -0.00008   0.00074   0.00066   2.64089
    R5        2.08448   0.00007  -0.00008   0.00015   0.00007   2.08455
    R6        2.64036   0.00039  -0.00009   0.00069   0.00059   2.64096
    R7        3.53677  -0.00001  -0.00027  -0.00015  -0.00042   3.53635
    R8        2.64023   0.00042  -0.00008   0.00074   0.00066   2.64089
    R9        2.08448   0.00007  -0.00008   0.00015   0.00007   2.08455
   R10        2.64036   0.00039  -0.00009   0.00069   0.00059   2.64096
   R11        3.53679  -0.00002  -0.00027  -0.00016  -0.00043   3.53635
   R12        2.08448   0.00007  -0.00008   0.00015   0.00007   2.08455
    A1        2.10023  -0.00004  -0.00013  -0.00024  -0.00037   2.09986
    A2        2.09143   0.00003   0.00007   0.00014   0.00020   2.09164
    A3        2.09152   0.00002   0.00006   0.00010   0.00016   2.09169
    A4        2.08856   0.00004   0.00013   0.00024   0.00037   2.08893
    A5        2.09726  -0.00002  -0.00006  -0.00010  -0.00015   2.09711
    A6        2.09736  -0.00003  -0.00007  -0.00014  -0.00021   2.09715
    A7        2.10023  -0.00005  -0.00013  -0.00024  -0.00037   2.09986
    A8        2.09153   0.00002   0.00006   0.00010   0.00016   2.09169
    A9        2.09142   0.00003   0.00007   0.00015   0.00021   2.09163
   A10        2.08855   0.00005   0.00013   0.00024   0.00037   2.08893
   A11        2.09726  -0.00002  -0.00006  -0.00009  -0.00015   2.09711
   A12        2.09737  -0.00003  -0.00007  -0.00015  -0.00022   2.09715
   A13        2.10024  -0.00005  -0.00013  -0.00024  -0.00037   2.09986
   A14        2.09153   0.00002   0.00006   0.00010   0.00016   2.09169
   A15        2.09142   0.00003   0.00007   0.00015   0.00021   2.09163
   A16        2.08856   0.00005   0.00013   0.00024   0.00037   2.08893
   A17        2.09736  -0.00003  -0.00007  -0.00014  -0.00021   2.09715
   A18        2.09727  -0.00002  -0.00006  -0.00010  -0.00016   2.09711
    D1        0.00001  -0.00000   0.00001  -0.00001  -0.00001   0.00000
    D2        3.14157   0.00000  -0.00000   0.00002   0.00001   3.14159
    D3       -3.14159  -0.00000   0.00001  -0.00001  -0.00001  -3.14159
    D4       -0.00002   0.00000  -0.00001   0.00002   0.00001  -0.00001
    D5        0.00002  -0.00000  -0.00000  -0.00001  -0.00002   0.00000
    D6       -3.14157  -0.00000  -0.00001  -0.00001  -0.00002  -3.14159
    D7       -3.14157  -0.00000  -0.00000  -0.00002  -0.00002  -3.14159
    D8        0.00002  -0.00000  -0.00001  -0.00001  -0.00002   0.00000
    D9       -0.00003   0.00000  -0.00001   0.00003   0.00002  -0.00001
   D10        3.14158   0.00000  -0.00001   0.00001   0.00000   3.14158
   D11       -3.14159  -0.00000   0.00000  -0.00000   0.00000  -3.14159
   D12        0.00002  -0.00000   0.00001  -0.00002  -0.00002   0.00000
   D13        0.00001  -0.00000   0.00001  -0.00001  -0.00001   0.00000
   D14        3.14159  -0.00000   0.00000  -0.00000   0.00000   3.14159
   D15        3.14159   0.00000   0.00000   0.00000   0.00001  -3.14159
   D16       -0.00002   0.00000   0.00000   0.00002   0.00002   0.00000
   D17        0.00002  -0.00000  -0.00000  -0.00001  -0.00002   0.00000
   D18       -3.14158   0.00000  -0.00000   0.00000  -0.00000  -3.14158
   D19       -3.14156  -0.00000   0.00000  -0.00003  -0.00003  -3.14159
   D20        0.00003  -0.00000  -0.00000  -0.00001  -0.00001   0.00001
   D21       -0.00003   0.00000   0.00000   0.00003   0.00003  -0.00001
   D22        3.14156   0.00000   0.00001   0.00002   0.00003   3.14159
   D23        3.14156   0.00000   0.00000   0.00001   0.00002   3.14158
   D24       -0.00003   0.00000   0.00001   0.00001   0.00002  -0.00001
         Item               Value     Threshold  Converged?
 Maximum Force            0.000417     0.000450     YES
 RMS     Force            0.000137     0.000300     YES
 Maximum Displacement     0.000907     0.001800     YES
 RMS     Displacement     0.000275     0.001200     YES
 Predicted change in Energy=-8.502261D-07
 Optimization completed.
    -- Stationary point found.
                           ----------------------------
                           !   Optimized Parameters   !
                           ! (Angstroms and Degrees)  !
 --------------------------                            --------------------------
 ! Name  Definition              Value          Derivative Info.                !
 --------------------------------------------------------------------------------
 ! R1    R(1,2)                  1.3972         -DE/DX =    0.0004              !
 ! R2    R(1,6)                  1.3972         -DE/DX =    0.0004              !
 ! R3    R(1,11)                 1.8716         -DE/DX =    0.0                 !
 ! R4    R(2,3)                  1.3972         -DE/DX =    0.0004              !
 ! R5    R(2,10)                 1.1031         -DE/DX =    0.0001              !
 ! R6    R(3,4)                  1.3972         -DE/DX =    0.0004              !
 ! R7    R(3,7)                  1.8716         -DE/DX =    0.0                 !
 ! R8    R(4,5)                  1.3972         -DE/DX =    0.0004              !
 ! R9    R(4,8)                  1.1031         -DE/DX =    0.0001              !
 ! R10   R(5,6)                  1.3972         -DE/DX =    0.0004              !
 ! R11   R(5,12)                 1.8716         -DE/DX =    0.0                 !
 ! R12   R(6,9)                  1.1031         -DE/DX =    0.0001              !
 ! A1    A(2,1,6)              120.3342         -DE/DX =    0.0                 !
 ! A2    A(2,1,11)             119.8303         -DE/DX =    0.0                 !
 ! A3    A(6,1,11)             119.8355         -DE/DX =    0.0                 !
 ! A4    A(1,2,3)              119.6658         -DE/DX =    0.0                 !
 ! A5    A(1,2,10)             120.1641         -DE/DX =    0.0                 !
 ! A6    A(3,2,10)             120.1701         -DE/DX =    0.0                 !
 ! A7    A(2,3,4)              120.3345         -DE/DX =    0.0                 !
 ! A8    A(2,3,7)              119.836          -DE/DX =    0.0                 !
 ! A9    A(4,3,7)              119.8295         -DE/DX =    0.0                 !
 ! A10   A(3,4,5)              119.6653         -DE/DX =    0.0                 !
 ! A11   A(3,4,8)              120.164          -DE/DX =    0.0                 !
 ! A12   A(5,4,8)              120.1706         -DE/DX =    0.0                 !
 ! A13   A(4,5,6)              120.3348         -DE/DX =    0.0                 !
 ! A14   A(4,5,12)             119.8357         -DE/DX =    0.0                 !
 ! A15   A(6,5,12)             119.8295         -DE/DX =    0.0                 !
 ! A16   A(1,6,5)              119.6654         -DE/DX =    0.0                 !
 ! A17   A(1,6,9)              120.1701         -DE/DX =    0.0                 !
 ! A18   A(5,6,9)              120.1645         -DE/DX =    0.0                 !
 ! D1    D(6,1,2,3)              0.0006         -DE/DX =    0.0                 !
 ! D2    D(6,1,2,10)           179.999          -DE/DX =    0.0                 !
 ! D3    D(11,1,2,3)          -179.9996         -DE/DX =    0.0                 !
 ! D4    D(11,1,2,10)           -0.0013         -DE/DX =    0.0                 !
 ! D5    D(2,1,6,5)              0.0011         -DE/DX =    0.0                 !
 ! D6    D(2,1,6,9)           -179.9989         -DE/DX =    0.0                 !
 ! D7    D(11,1,6,5)          -179.9986         -DE/DX =    0.0                 !
 ! D8    D(11,1,6,9)             0.0014         -DE/DX =    0.0                 !
 ! D9    D(1,2,3,4)             -0.0016         -DE/DX =    0.0                 !
 ! D10   D(1,2,3,7)            179.9993         -DE/DX =    0.0                 !
 ! D11   D(10,2,3,4)          -179.9999         -DE/DX =    0.0                 !
 ! D12   D(10,2,3,7)             0.001          -DE/DX =    0.0                 !
 ! D13   D(2,3,4,5)              0.0007         -DE/DX =    0.0                 !
 ! D14   D(2,3,4,8)            179.9999         -DE/DX =    0.0                 !
 ! D15   D(7,3,4,5)           -180.0001         -DE/DX =    0.0                 !
 ! D16   D(7,3,4,8)             -0.001          -DE/DX =    0.0                 !
 ! D17   D(3,4,5,6)              0.0011         -DE/DX =    0.0                 !
 ! D18   D(3,4,5,12)          -179.9993         -DE/DX =    0.0                 !
 ! D19   D(8,4,5,6)           -179.9981         -DE/DX =    0.0                 !
 ! D20   D(8,4,5,12)             0.0015         -DE/DX =    0.0                 !
 ! D21   D(4,5,6,1)             -0.002          -DE/DX =    0.0                 !
 ! D22   D(4,5,6,9)            179.998          -DE/DX =    0.0                 !
 ! D23   D(12,5,6,1)           179.9984         -DE/DX =    0.0                 !
 ! D24   D(12,5,6,9)            -0.0016         -DE/DX =    0.0                 !
 --------------------------------------------------------------------------------
 GradGradGradGradGradGradGradGradGradGradGradGradGradGradGradGradGradGrad

                          Input orientation:                          
 ---------------------------------------------------------------------
 Center     Atomic      Atomic             Coordinates (Angstroms)
 Number     Number       Type             X           Y           Z
 ---------------------------------------------------------------------
      1          6           0       -1.856596    1.432822    0.000057
      2          6           0       -0.459382    1.428704    0.000548
      3          6           0        0.235700    2.640683    0.000016
      4          6           0       -0.459335    3.852768   -0.001036
      5          6           0       -1.856481    3.848732   -0.001540
      6          6           0       -2.558662    2.640773   -0.000975
      7         35           0        2.107280    2.640728    0.000691
      8          1           0        0.092280    4.807997   -0.001452
      9          1           0       -3.661723    2.640863   -0.001342
     10          1           0        0.092070    0.473379    0.001381
     11         35           0       -2.792364   -0.188034    0.000777
     12         35           0       -2.792309    5.469552   -0.002968
 ---------------------------------------------------------------------
                    Distance matrix (angstroms):
                    1          2          3          4          5
     1  C    0.000000
     2  C    1.397220   0.000000
     3  C    2.415911   1.397151   0.000000
     4  C    2.794365   2.424064   1.397220   0.000000
     5  C    2.415910   2.794356   2.415907   1.397152   0.000000
     6  C    1.397156   2.424065   2.794362   2.424068   1.397220
     7  Br   4.143832   2.838442   1.871580   2.838408   4.143752
     8  H    3.897426   3.424026   2.172055   1.103060   2.172064
     9  H    2.172061   3.424080   3.897422   3.424032   2.172060
    10  H    2.172056   1.103061   2.172058   3.424080   3.897417
    11  Br   1.871587   2.838424   4.143768   4.665953   4.143835
    12  Br   4.143762   4.665942   4.143833   2.838444   1.871586
                    6          7          8          9         10
     6  C    0.000000
     7  Br   4.665942   0.000000
     8  H    3.424085   2.959271   0.000000
     9  H    1.103060   5.769003   4.334629   0.000000
    10  H    3.424030   2.959471   4.334619   4.334622   0.000000
    11  Br   2.838445   5.657597   5.769013   2.959468   2.959295
    12  Br   2.838413   5.657582   2.959479   2.959285   5.769004
                   11         12
    11  Br   0.000000
    12  Br   5.657588   0.000000
 Stoichiometry    C6H3Br3
 Framework group  C1[X(C6H3Br3)]
 Deg. of freedom    30
 Full point group                 C1      NOp   1
 Largest Abelian subgroup         C1      NOp   1
 Largest concise Abelian subgroup C1      NOp   1
                         Standard orientation:                         
 ---------------------------------------------------------------------
 Center     Atomic      Atomic             Coordinates (Angstroms)
 Number     Number       Type             X           Y           Z
 ---------------------------------------------------------------------
      1          6           0        1.319876    0.451078    0.000008
      2          6           0        0.270164    1.373212   -0.000011
      3          6           0       -1.050581    0.917512    0.000005
      4          6           0       -1.324323   -0.452630    0.000008
      5          6           0       -0.269299   -1.368577    0.000009
      6          6           0        1.054150   -0.920575    0.000030
      7         35           0       -2.460336    2.148530   -0.000001
      8          1           0       -2.368127   -0.809304    0.000023
      9          1           0        1.884946   -1.646192    0.000065
     10          1           0        0.483171    2.455512   -0.000011
     11         35           0        3.090857    1.056441   -0.000004
     12         35           0       -0.630519   -3.204974   -0.000006
 ---------------------------------------------------------------------
 Rotational constants (GHZ):           0.3763728           0.3763705           0.1881858

 **********************************************************************

            Population analysis using the SCF Density.

 **********************************************************************

 Orbital symmetries:
       Occupied  (A) (A) (A) (A) (A) (A) (A) (A) (A) (A) (A) (A)
                 (A) (A) (A) (A) (A) (A) (A) (A) (A) (A) (A) (A)
       Virtual   (A) (A) (A) (A) (A) (A) (A) (A) (A) (A) (A) (A)
                 (A) (A) (A)
 The electronic state is 1-A.
 Alpha  occ. eigenvalues --   -1.47714  -1.25715  -1.25715  -1.16860  -1.11035
 Alpha  occ. eigenvalues --   -1.11035  -0.86706  -0.86706  -0.67455  -0.62950
 Alpha  occ. eigenvalues --   -0.60667  -0.55555  -0.55047  -0.55047  -0.47552
 Alpha  occ. eigenvalues --   -0.47552  -0.46914  -0.46914  -0.42688  -0.42688
 Alpha  occ. eigenvalues --   -0.41886  -0.41454  -0.36683  -0.36683
 Alpha virt. eigenvalues --   -0.02009  -0.02009   0.00104   0.01803   0.01803
 Alpha virt. eigenvalues --    0.06717   0.12125   0.12702   0.12703   0.13794
 Alpha virt. eigenvalues --    0.13794   0.16409   0.16409   0.16464   0.17985
          Condensed to atoms (all electrons):
               1          2          3          4          5          6
     1  C    4.170822   0.000000   0.000000   0.000000   0.000000   0.000000
     2  C    0.000000   4.067731   0.000000   0.000000   0.000000   0.000000
     3  C    0.000000   0.000000   4.170825   0.000000   0.000000   0.000000
     4  C    0.000000   0.000000   0.000000   4.067731   0.000000   0.000000
     5  C    0.000000   0.000000   0.000000   0.000000   4.170822   0.000000
     6  C    0.000000   0.000000   0.000000   0.000000   0.000000   4.067731
     7  Br   0.000000   0.000000   0.000000   0.000000   0.000000   0.000000
     8  H    0.000000   0.000000   0.000000   0.000000   0.000000   0.000000
     9  H    0.000000   0.000000   0.000000   0.000000   0.000000   0.000000
    10  H    0.000000   0.000000   0.000000   0.000000   0.000000   0.000000
    11  Br   0.000000   0.000000   0.000000   0.000000   0.000000   0.000000
    12  Br   0.000000   0.000000   0.000000   0.000000   0.000000   0.000000
               7          8          9         10         11         12
     1  C    0.000000   0.000000   0.000000   0.000000   0.000000   0.000000
     2  C    0.000000   0.000000   0.000000   0.000000   0.000000   0.000000
     3  C    0.000000   0.000000   0.000000   0.000000   0.000000   0.000000
     4  C    0.000000   0.000000   0.000000   0.000000   0.000000   0.000000
     5  C    0.000000   0.000000   0.000000   0.000000   0.000000   0.000000
     6  C    0.000000   0.000000   0.000000   0.000000   0.000000   0.000000
     7  Br   6.926266   0.000000   0.000000   0.000000   0.000000   0.000000
     8  H    0.000000   0.835178   0.000000   0.000000   0.000000   0.000000
     9  H    0.000000   0.000000   0.835178   0.000000   0.000000   0.000000
    10  H    0.000000   0.000000   0.000000   0.835179   0.000000   0.000000
    11  Br   0.000000   0.000000   0.000000   0.000000   6.926268   0.000000
    12  Br   0.000000   0.000000   0.000000   0.000000   0.000000   6.926269
 Mulliken charges:
               1
     1  C   -0.170822
     2  C   -0.067731
     3  C   -0.170825
     4  C   -0.067731
     5  C   -0.170822
     6  C   -0.067731
     7  Br   0.073734
     8  H    0.164822
     9  H    0.164822
    10  H    0.164821
    11  Br   0.073732
    12  Br   0.073731
 Sum of Mulliken charges =   0.00000
 Mulliken charges with hydrogens summed into heavy atoms:
               1
     1  C   -0.170822
     2  C    0.097090
     3  C   -0.170825
     4  C    0.097091
     5  C   -0.170822
     6  C    0.097091
     7  Br   0.073734
    11  Br   0.073732
    12  Br   0.073731
 Charge=              0.0000 electrons
 Dipole moment (field-independent basis, Debye):
    X=             -0.0000    Y=              0.0000    Z=              0.0000  Tot=              0.0000
 N-N= 2.434660091746D+02 E-N=-3.425700072178D+02  KE=-1.102564186201D+02
 1\1\GINC-SH02-01N56\FOpt\RAM1\ZDO\C6H3Br3\JLAPIER\08-Dec-2025\0\\# opt
  am1\\135Tribromobenzene\\0,1\C,-1.8565955253,1.4328219617,0.000056896
 3\C,-0.4593815392,1.428704234,0.0005482933\C,0.235699675,2.6406831489,
 0.0000160413\C,-0.4593352913,3.8527681866,-0.0010358677\C,-1.856481168
 4,3.8487318221,-0.0015398234\C,-2.5586623828,2.6407726913,-0.000975133
 9\Br,2.107279763,2.6407275903,0.0006907449\H,0.0922804539,4.8079971171
 ,-0.0014517118\H,-3.6617225511,2.6408630814,-0.0013424045\H,0.09206974
 3,0.473379457,0.0013805982\Br,-2.7923643176,-0.188034481,0.0007765565\
 Br,-2.7923093292,5.4695523805,-0.0029675192\\Version=ES64L-G16RevB.01\
 State=1-A\HF=0.060618\RMSD=1.606e-09\RMSF=1.635e-04\Dipole=0.0000056,-
 0.000004,0.0000163\PG=C01 [X(C6H3Br3)]\\@


 SIGN SEEN IN A RESTAURANT-
 WE RESERVE THE RIGHT TO SERVE REFUSE TO ANYONE.
 Job cpu time:       0 days  0 hours  0 minutes 21.4 seconds.
 Elapsed time:       0 days  0 hours  0 minutes 10.8 seconds.
 File lengths (MBytes):  RWF=     10 Int=      0 D2E=      0 Chk=      2 Scr=      1
 Normal termination of Gaussian 16 at Mon Dec  8 11:12:19 2025.
