 Entering Gaussian System, Link 0=g16
 Initial command:
 /share/software/user/restricted/gaussian/g16.B01/l1.exe "/home/users/jlapier/Chloroaromatics/Gau-22319.inp" -scrdir="/home/users/jlapier/Chloroaromatics/"
 Entering Link 1 = /share/software/user/restricted/gaussian/g16.B01/l1.exe PID=     22322.
  
 Copyright (c) 1988-2017, Gaussian, Inc.  All Rights Reserved.
  
 This is part of the Gaussian(R) 16 program.  It is based on
 the Gaussian(R) 09 system (copyright 2009, Gaussian, Inc.),
 the Gaussian(R) 03 system (copyright 2003, Gaussian, Inc.),
 the Gaussian(R) 98 system (copyright 1998, Gaussian, Inc.),
 the Gaussian(R) 94 system (copyright 1995, Gaussian, Inc.),
 the Gaussian 92(TM) system (copyright 1992, Gaussian, Inc.),
 the Gaussian 90(TM) system (copyright 1990, Gaussian, Inc.),
 the Gaussian 88(TM) system (copyright 1988, Gaussian, Inc.),
 the Gaussian 86(TM) system (copyright 1986, Carnegie Mellon
 University), and the Gaussian 82(TM) system (copyright 1983,
 Carnegie Mellon University). Gaussian is a federally registered
 trademark of Gaussian, Inc.
  
 This software contains proprietary and confidential information,
 including trade secrets, belonging to Gaussian, Inc.
  
 This software is provided under written license and may be
 used, copied, transmitted, or stored only in accord with that
 written license.
  
 The following legend is applicable only to US Government
 contracts under FAR:
  
                    RESTRICTED RIGHTS LEGEND
  
 Use, reproduction and disclosure by the US Government is
 subject to restrictions as set forth in subparagraphs (a)
 and (c) of the Commercial Computer Software - Restricted
 Rights clause in FAR 52.227-19.
  
 Gaussian, Inc.
 340 Quinnipiac St., Bldg. 40, Wallingford CT 06492
  
  
 ---------------------------------------------------------------
 Warning -- This program may not be used in any manner that
 competes with the business of Gaussian, Inc. or will provide
 assistance to any competitor of Gaussian, Inc.  The licensee
 of this program is prohibited from giving any competitor of
 Gaussian, Inc. access to this program.  By using this program,
 the user acknowledges that Gaussian, Inc. is engaged in the
 business of creating and licensing software in the field of
 computational chemistry and represents and warrants to the
 licensee that it is not a competitor of Gaussian, Inc. and that
 it will not use this program in any manner prohibited above.
 ---------------------------------------------------------------
  

 Cite this work as:
 Gaussian 16, Revision B.01,
 M. J. Frisch, G. W. Trucks, H. B. Schlegel, G. E. Scuseria, 
 M. A. Robb, J. R. Cheeseman, G. Scalmani, V. Barone, 
 G. A. Petersson, H. Nakatsuji, X. Li, M. Caricato, A. V. Marenich, 
 J. Bloino, B. G. Janesko, R. Gomperts, B. Mennucci, H. P. Hratchian, 
 J. V. Ortiz, A. F. Izmaylov, J. L. Sonnenberg, D. Williams-Young, 
 F. Ding, F. Lipparini, F. Egidi, J. Goings, B. Peng, A. Petrone, 
 T. Henderson, D. Ranasinghe, V. G. Zakrzewski, J. Gao, N. Rega, 
 G. Zheng, W. Liang, M. Hada, M. Ehara, K. Toyota, R. Fukuda, 
 J. Hasegawa, M. Ishida, T. Nakajima, Y. Honda, O. Kitao, H. Nakai, 
 T. Vreven, K. Throssell, J. A. Montgomery, Jr., J. E. Peralta, 
 F. Ogliaro, M. J. Bearpark, J. J. Heyd, E. N. Brothers, K. N. Kudin, 
 V. N. Staroverov, T. A. Keith, R. Kobayashi, J. Normand, 
 K. Raghavachari, A. P. Rendell, J. C. Burant, S. S. Iyengar, 
 J. Tomasi, M. Cossi, J. M. Millam, M. Klene, C. Adamo, R. Cammi, 
 J. W. Ochterski, R. L. Martin, K. Morokuma, O. Farkas, 
 J. B. Foresman, and D. J. Fox, Gaussian, Inc., Wallingford CT, 2016.
 
 ******************************************
 Gaussian 16:  ES64L-G16RevB.01 20-Dec-2017
                 9-Dec-2025 
 ******************************************
 %mem=2GB
 %nprocshare=1
 Will use up to    1 processors via shared memory.
 %chk=geometry_chks/13_ClBzNeutralRadical.chk
 -----------------
 # opt am1 SCF=XQC
 -----------------
 1/18=20,19=15,26=1,38=1/1,3;
 2/9=110,12=2,17=6,18=5,40=1/2;
 3/5=2,25=1,41=700000,71=1/1,2,3;
 4/35=1/1;
 5/5=2,8=3,13=1,35=1,38=5/2,8;
 6/7=2,8=2,9=2,10=2,28=1/1;
 7//1,2,3,16;
 1/18=20,19=15,26=1/3(2);
 2/9=110/2;
 99//99;
 2/9=110/2;
 3/5=2,25=1,41=700000,71=1,135=20/1,2,3;
 4/5=5,16=3,35=1/1;
 5/5=2,8=3,13=1,35=1,38=5/2,8;
 7//1,2,3,16;
 1/18=20,19=15,26=1/3(-5);
 2/9=110/2;
 6/7=2,8=2,9=2,10=2,19=2,28=1/1;
 99/9=1/99;
 -------------------------------
 Neutral Radical (removed 5) 13_
 -------------------------------
 Symbolic Z-matrix:
 Charge =  0 Multiplicity = 2
 C                    -3.20928   0.19943   0. 
 C                    -2.0115    0.93555   0. 
 C                    -0.77511   0.2663    0. 
 C                    -0.7365   -1.13907   0. 
 C                    -1.93429  -1.87519   0. 
 C                    -3.17067  -1.20594   0. 
 Cl                   -4.67483  -2.13035   0. 
 H                    -4.76193   1.03987   0. 
 Cl                    0.81614  -1.97951   0. 
 H                    -1.8858   -3.64003   0. 
 H                     0.72905   1.19071   0. 
 
 Add virtual bond connecting atoms H10        and C5         Dist= 3.34D+00.
 Add virtual bond connecting atoms H11        and C3         Dist= 3.34D+00.
 Add virtual bond connecting atoms H8         and C1         Dist= 3.34D+00.

 GradGradGradGradGradGradGradGradGradGradGradGradGradGradGradGradGradGrad
 Berny optimization.
 Initialization pass.
                           ----------------------------
                           !    Initial Parameters    !
                           ! (Angstroms and Degrees)  !
 --------------------------                            --------------------------
 ! Name  Definition              Value          Derivative Info.                !
 --------------------------------------------------------------------------------
 ! R1    R(1,2)                  1.4059         estimate D2E/DX2                !
 ! R2    R(1,6)                  1.4059         estimate D2E/DX2                !
 ! R3    R(1,8)                  1.7655         estimate D2E/DX2                !
 ! R4    R(2,3)                  1.4059         estimate D2E/DX2                !
 ! R5    R(3,4)                  1.4059         estimate D2E/DX2                !
 ! R6    R(3,11)                 1.7655         estimate D2E/DX2                !
 ! R7    R(4,5)                  1.4059         estimate D2E/DX2                !
 ! R8    R(4,9)                  1.7655         estimate D2E/DX2                !
 ! R9    R(5,6)                  1.4059         estimate D2E/DX2                !
 ! R10   R(5,10)                 1.7655         estimate D2E/DX2                !
 ! R11   R(6,7)                  1.7655         estimate D2E/DX2                !
 ! A1    A(2,1,6)              119.9999         estimate D2E/DX2                !
 ! A2    A(2,1,8)              119.9999         estimate D2E/DX2                !
 ! A3    A(6,1,8)              120.0001         estimate D2E/DX2                !
 ! A4    A(1,2,3)              120.0            estimate D2E/DX2                !
 ! A5    A(2,3,4)              120.0001         estimate D2E/DX2                !
 ! A6    A(2,3,11)             120.0            estimate D2E/DX2                !
 ! A7    A(4,3,11)             119.9999         estimate D2E/DX2                !
 ! A8    A(3,4,5)              119.9997         estimate D2E/DX2                !
 ! A9    A(3,4,9)              120.0003         estimate D2E/DX2                !
 ! A10   A(5,4,9)              120.0            estimate D2E/DX2                !
 ! A11   A(4,5,6)              120.0            estimate D2E/DX2                !
 ! A12   A(4,5,10)             119.9996         estimate D2E/DX2                !
 ! A13   A(6,5,10)             120.0004         estimate D2E/DX2                !
 ! A14   A(1,6,5)              120.0003         estimate D2E/DX2                !
 ! A15   A(1,6,7)              119.9999         estimate D2E/DX2                !
 ! A16   A(5,6,7)              119.9998         estimate D2E/DX2                !
 ! D1    D(6,1,2,3)              0.0            estimate D2E/DX2                !
 ! D2    D(8,1,2,3)            180.0            estimate D2E/DX2                !
 ! D3    D(2,1,6,5)              0.0            estimate D2E/DX2                !
 ! D4    D(2,1,6,7)            180.0            estimate D2E/DX2                !
 ! D5    D(8,1,6,5)            180.0            estimate D2E/DX2                !
 ! D6    D(8,1,6,7)              0.0            estimate D2E/DX2                !
 ! D7    D(1,2,3,4)              0.0            estimate D2E/DX2                !
 ! D8    D(1,2,3,11)           180.0            estimate D2E/DX2                !
 ! D9    D(2,3,4,5)              0.0            estimate D2E/DX2                !
 ! D10   D(2,3,4,9)            180.0            estimate D2E/DX2                !
 ! D11   D(11,3,4,5)           180.0            estimate D2E/DX2                !
 ! D12   D(11,3,4,9)             0.0            estimate D2E/DX2                !
 ! D13   D(3,4,5,6)              0.0            estimate D2E/DX2                !
 ! D14   D(3,4,5,10)           180.0            estimate D2E/DX2                !
 ! D15   D(9,4,5,6)            180.0            estimate D2E/DX2                !
 ! D16   D(9,4,5,10)             0.0            estimate D2E/DX2                !
 ! D17   D(4,5,6,1)              0.0            estimate D2E/DX2                !
 ! D18   D(4,5,6,7)            180.0            estimate D2E/DX2                !
 ! D19   D(10,5,6,1)           180.0            estimate D2E/DX2                !
 ! D20   D(10,5,6,7)             0.0            estimate D2E/DX2                !
 --------------------------------------------------------------------------------
 Trust Radius=3.00D-01 FncErr=1.00D-07 GrdErr=1.00D-07 EigMax=2.50D+02 EigMin=1.00D-04
 Number of steps in this run=     57 maximum allowed number of steps=    100.
 GradGradGradGradGradGradGradGradGradGradGradGradGradGradGradGradGradGrad

                          Input orientation:                          
 ---------------------------------------------------------------------
 Center     Atomic      Atomic             Coordinates (Angstroms)
 Number     Number       Type             X           Y           Z
 ---------------------------------------------------------------------
      1          6           0       -3.209280    0.199430    0.000000
      2          6           0       -2.011500    0.935550    0.000000
      3          6           0       -0.775110    0.266300    0.000000
      4          6           0       -0.736500   -1.139070    0.000000
      5          6           0       -1.934290   -1.875190    0.000000
      6          6           0       -3.170670   -1.205940    0.000000
      7         17           0       -4.674830   -2.130350    0.000000
      8          1           0       -4.761930    1.039870    0.000000
      9         17           0        0.816140   -1.979510    0.000000
     10          1           0       -1.885800   -3.640030    0.000000
     11          1           0        0.729050    1.190710    0.000000
 ---------------------------------------------------------------------
                    Distance matrix (angstroms):
                    1          2          3          4          5
     1  C    0.000000
     2  C    1.405898   0.000000
     3  C    2.435088   1.405900   0.000000
     4  C    2.811801   2.435092   1.405900   0.000000
     5  C    2.435087   2.811800   2.435093   1.405907   0.000000
     6  C    1.405900   2.435088   2.811796   2.435088   1.405892
     7  Cl   2.752401   4.061166   4.577308   4.061167   2.752393
     8  H    1.765520   2.752408   4.061175   4.577321   4.061173
     9  Cl   4.577312   4.061173   2.752406   1.765511   2.752408
    10  H    4.061164   4.577306   4.061163   2.752397   1.765506
    11  H    4.061167   2.752403   1.765512   2.752401   4.061173
                    6          7          8          9         10
     6  C    0.000000
     7  Cl   1.765512   0.000000
     8  H    2.752412   3.171416   0.000000
     9  Cl   4.061165   5.493041   6.342832   0.000000
    10  H    2.752396   3.171407   5.493049   3.171404   0.000000
    11  H    4.577308   6.342819   5.493051   3.171416   5.493040
                   11
    11  H    0.000000
 Stoichiometry    C6H3Cl2(2)
 Framework group  CS[SG(C6H3Cl2)]
 Deg. of freedom    19
 Full point group                 CS      NOp   2
 Largest Abelian subgroup         CS      NOp   2
 Largest concise Abelian subgroup C1      NOp   1
                         Standard orientation:                         
 ---------------------------------------------------------------------
 Center     Atomic      Atomic             Coordinates (Angstroms)
 Number     Number       Type             X           Y           Z
 ---------------------------------------------------------------------
      1          6           0       -1.441499   -1.217544    0.000000
      2          6           0       -2.144449   -0.000002    0.000000
      3          6           0       -1.441499    1.217544    0.000000
      4          6           0       -0.035599    1.217546    0.000000
      5          6           0        0.667351   -0.000006    0.000000
      6          6           0       -0.035599   -1.217542    0.000000
      7         17           0        0.847157   -2.746520    0.000000
      8          1           0       -2.324259   -2.746530    0.000000
      9         17           0        0.847161    2.746522    0.000000
     10          1           0        2.432857    0.000001    0.000000
     11          1           0       -2.324255    2.746522    0.000000
 ---------------------------------------------------------------------
 Rotational constants (GHZ):           2.8492316           0.8231905           0.6386685
 Standard basis: VSTO-6G (5D, 7F)
 There are    27 symmetry adapted cartesian basis functions of A'  symmetry.
 There are     8 symmetry adapted cartesian basis functions of A"  symmetry.
 There are    27 symmetry adapted basis functions of A'  symmetry.
 There are     8 symmetry adapted basis functions of A"  symmetry.
    35 basis functions,   210 primitive gaussians,    35 cartesian basis functions
    21 alpha electrons       20 beta electrons
       nuclear repulsion energy       190.9941681200 Hartrees.
 Integral buffers will be    131072 words long.
 Regular integral format.
 Two-electron integral symmetry is turned off.
 Do NDO integrals.
 One-electron integrals computed using PRISM.
 NBasis=    35 RedAO= T EigKep=  1.00D+00  NBF=    27     8
 NBsUse=    35 1.00D-06 EigRej= -1.00D+00 NBFU=    27     8
 Simple Huckel Guess.
 Initial guess orbital symmetries:
 Alpha Orbitals:
       Occupied  (A') (A') (A') (A') (A') (A') (A') (A') (A') (A")
                 (A') (A') (A') (A") (A') (A") (A') (A') (A") (A")
                 (A')
       Virtual   (A") (A') (A") (A') (A') (A") (A') (A') (A') (A')
                 (A') (A') (A') (A')
 Beta  Orbitals:
       Occupied  (A') (A') (A') (A') (A') (A') (A') (A') (A') (A")
                 (A') (A') (A') (A") (A') (A") (A') (A') (A") (A")
       Virtual   (A') (A") (A') (A") (A') (A') (A") (A') (A') (A')
                 (A') (A') (A') (A') (A')
 The electronic state of the initial guess is 2-A'.
 Initial guess <Sx>= 0.0000 <Sy>= 0.0000 <Sz>= 0.5000 <S**2>= 0.7500 S= 0.5000
 Keep J ints in memory in canonical form, NReq=862793.
 Overlap will be assumed to be unity.
 Requested convergence on RMS density matrix=1.00D-08 within  32 cycles.
 Requested convergence on MAX density matrix=1.00D-06.
 Requested convergence on             energy=1.00D-06.
 No special actions if energy rises.
 Fock symm off for IB=2 I1=    1 I=   28 J=   23 Cut=1.00D-07 Err=3.51D-03
 Fock matrix is not symmetric: symmetry in diagonalization turned off.
 Rare condition: small coef for last iteration:  0.000D+00
 Rare condition: small coef for last iteration:  0.000D+00
 Rare condition: small coef for last iteration:  0.000D+00
 Rare condition: small coef for last iteration:  0.000D+00
 Rare condition: small coef for last iteration:  0.000D+00
 Rare condition: small coef for last iteration:  0.000D+00
 Rare condition: small coef for last iteration:  0.000D+00
 Rare condition: small coef for last iteration:  0.000D+00
 Rare condition: small coef for last iteration:  0.000D+00
 Rare condition: small coef for last iteration:  0.000D+00
 Rare condition: small coef for last iteration:  0.000D+00
 Rare condition: small coef for last iteration:  0.000D+00
 Rare condition: small coef for last iteration:  0.000D+00
 >>>>>>>>>> Convergence criterion not met.
 SCF Done:  E(UAM1) =  0.478097054414     A.U. after   33 cycles
            NFock= 32  Conv=0.24D-04     -V/T= 1.0053
 <Sx>= 0.0000 <Sy>= 0.0000 <Sz>= 0.5000 <S**2>= 1.1127 S= 0.6673
 <L.S>=  0.00000000000    
 Annihilation of the first spin contaminant:
 S**2 before annihilation     1.1127,   after     0.8967
 Keep J ints in memory in canonical form, NReq=863193.
 LinEq1:  Iter=  0 NonCon=     1 RMS=8.59D-05 Max=9.17D-04 NDo=     1
 AX will form     1 AO Fock derivatives at one time.
 LinEq1:  Iter=  1 NonCon=     1 RMS=2.18D-06 Max=1.84D-05 NDo=     1
 LinEq1:  Iter=  2 NonCon=     1 RMS=6.22D-07 Max=4.45D-06 NDo=     1
 LinEq1:  Iter=  3 NonCon=     1 RMS=2.04D-07 Max=1.63D-06 NDo=     1
 LinEq1:  Iter=  4 NonCon=     1 RMS=4.80D-08 Max=3.73D-07 NDo=     1
 LinEq1:  Iter=  5 NonCon=     1 RMS=9.45D-09 Max=6.35D-08 NDo=     1
 LinEq1:  Iter=  6 NonCon=     1 RMS=2.61D-09 Max=2.23D-08 NDo=     1
 LinEq1:  Iter=  7 NonCon=     0 RMS=7.64D-10 Max=5.79D-09 NDo=     1
 Linear equations converged to 2.437D-09 2.437D-08 after     7 iterations.
 Incorrect curvature in search direction -- initial direction reversed.
     Minimum is close to point  5 DX=  1.33D-01 DF= -6.92D-05 DXR=  3.46D-02 DFR=  5.73D-03 which will be used.
 Gradient too large for Newton-Raphson -- use scaled steepest descent instead.
     Accept linear search using points  4 and  5.
 Gradient too large for Newton-Raphson -- use scaled steepest descent instead.
 Gradient too large for Newton-Raphson -- use scaled steepest descent instead.
     Minimum is close to point  2 DX= -1.70D-01 DF= -2.33D-06 DXR=  7.98D-02 DFR=  6.40D-03 which will be used.
 Gradient too large for Newton-Raphson -- use scaled steepest descent instead.
 LinEq1:  Iter=  0 NonCon=     1 RMS=5.50D-04 Max=4.90D-03 NDo=     1
 LinEq1:  Iter=  1 NonCon=     1 RMS=2.41D-04 Max=1.39D-03 NDo=     1
 LinEq1:  Iter=  2 NonCon=     1 RMS=2.67D-05 Max=2.95D-04 NDo=     1
 LinEq1:  Iter=  3 NonCon=     1 RMS=7.60D-06 Max=6.33D-05 NDo=     1
 LinEq1:  Iter=  4 NonCon=     1 RMS=1.24D-06 Max=1.20D-05 NDo=     1
 LinEq1:  Iter=  5 NonCon=     1 RMS=2.45D-07 Max=2.35D-06 NDo=     1
 LinEq1:  Iter=  6 NonCon=     1 RMS=4.84D-08 Max=3.59D-07 NDo=     1
 LinEq1:  Iter=  7 NonCon=     1 RMS=6.64D-09 Max=5.39D-08 NDo=     1
 LinEq1:  Iter=  8 NonCon=     0 RMS=1.35D-09 Max=1.03D-08 NDo=     1
 Linear equations converged to 2.437D-09 2.437D-08 after     8 iterations.
     Minimum is close to point  3 DX= -2.95D-02 DF= -3.37D-06 DXR=  6.26D-02 DFR=  3.94D-03 which will be used.
 LinEq1:  Iter=  0 NonCon=     1 RMS=2.04D-04 Max=1.62D-03 NDo=     1
 LinEq1:  Iter=  1 NonCon=     1 RMS=8.10D-05 Max=8.04D-04 NDo=     1
 LinEq1:  Iter=  2 NonCon=     1 RMS=1.44D-05 Max=1.76D-04 NDo=     1
 LinEq1:  Iter=  3 NonCon=     1 RMS=2.05D-06 Max=1.80D-05 NDo=     1
 LinEq1:  Iter=  4 NonCon=     1 RMS=3.73D-07 Max=4.19D-06 NDo=     1
 LinEq1:  Iter=  5 NonCon=     1 RMS=9.25D-08 Max=7.36D-07 NDo=     1
 LinEq1:  Iter=  6 NonCon=     1 RMS=1.40D-08 Max=1.61D-07 NDo=     1
 LinEq1:  Iter=  7 NonCon=     1 RMS=3.27D-09 Max=2.05D-08 NDo=     1
 LinEq1:  Iter=  8 NonCon=     0 RMS=5.98D-10 Max=4.57D-09 NDo=     1
 Linear equations converged to 2.437D-09 2.437D-08 after     8 iterations.
     Accept linear search using points  1 and  2.
     Minimum is close to point  2 DX= -4.00D-02 DF= -8.67D-08 DXR=  4.16D-02 DFR=  1.78D-03 which will be used.
 LinEq1:  Iter=  0 NonCon=     1 RMS=6.95D-06 Max=9.65D-05 NDo=     1
 LinEq1:  Iter=  1 NonCon=     1 RMS=9.66D-07 Max=1.15D-05 NDo=     1
 LinEq1:  Iter=  2 NonCon=     1 RMS=1.48D-07 Max=1.56D-06 NDo=     1
 LinEq1:  Iter=  3 NonCon=     1 RMS=4.09D-08 Max=4.33D-07 NDo=     1
 LinEq1:  Iter=  4 NonCon=     1 RMS=9.21D-09 Max=5.80D-08 NDo=     1
 LinEq1:  Iter=  5 NonCon=     1 RMS=1.42D-09 Max=9.87D-09 NDo=     1
 LinEq1:  Iter=  6 NonCon=     0 RMS=2.62D-10 Max=1.89D-09 NDo=     1
 Linear equations converged to 7.764D-10 7.764D-09 after     6 iterations.
 LinEq1:  Iter=  0 NonCon=     1 RMS=6.51D-08 Max=6.62D-07 NDo=     1
 LinEq1:  Iter=  1 NonCon=     1 RMS=1.82D-08 Max=1.45D-07 NDo=     1
 LinEq1:  Iter=  2 NonCon=     1 RMS=4.52D-09 Max=4.00D-08 NDo=     1
 LinEq1:  Iter=  3 NonCon=     1 RMS=1.13D-09 Max=7.67D-09 NDo=     1
 LinEq1:  Iter=  4 NonCon=     1 RMS=2.05D-10 Max=1.62D-09 NDo=     1
 LinEq1:  Iter=  5 NonCon=     1 RMS=3.78D-11 Max=2.92D-10 NDo=     1
 LinEq1:  Iter=  6 NonCon=     0 RMS=7.18D-12 Max=5.02D-11 NDo=     1
 Linear equations converged to 1.133D-11 1.133D-10 after     6 iterations.
 SCF Done:  E(UAM1) =  0.462629500477     a.u. after   10 cycles
            Convg  =    0.1157D-07                    60 Fock formations.
              S**2 =  2.0889                  -V/T =  1.0051
 <Sx>= 0.0000 <Sy>= 0.0000 <Sz>= 0.5000 <S**2>= 2.0889 S= 1.0294
 <L.S>=  0.00000000000    
 Annihilation of the first spin contaminant:
 S**2 before annihilation     2.0889,   after     3.5540

 **********************************************************************

            Population analysis using the SCF Density.

 **********************************************************************

 Orbital symmetries:
 Alpha Orbitals:
       Occupied  (A') (A') (A') (A') (A') (A') (A') (A') (A') (A')
                 (A") (A") (A') (A') (A") (A') (A') (A') (A') (A")
                 (A")
       Virtual   (A') (A') (A') (A") (A") (A') (A') (A") (A') (A')
                 (A') (A') (A') (A')
 Beta  Orbitals:
       Occupied  (A') (A') (A') (A') (A') (A') (A') (A') (A') (A')
                 (A") (A') (A") (A') (A") (A') (A') (A') (A") (A")
       Virtual   (A') (A") (A') (A") (A') (A') (A') (A') (A") (A')
                 (A') (A') (A') (A') (A')
 The electronic state is 2-A'.
 Alpha  occ. eigenvalues --   -1.42064  -1.37822  -1.35372  -1.11138  -1.10362
 Alpha  occ. eigenvalues --   -0.81399  -0.81022  -0.63949  -0.59882  -0.53935
 Alpha  occ. eigenvalues --   -0.53688  -0.48989  -0.47803  -0.45891  -0.44468
 Alpha  occ. eigenvalues --   -0.43777  -0.43551  -0.40559  -0.38870  -0.37628
 Alpha  occ. eigenvalues --   -0.36278
 Alpha virt. eigenvalues --   -0.01914   0.01353   0.01438   0.02250   0.02383
 Alpha virt. eigenvalues --    0.03253   0.04741   0.09490   0.14852   0.15091
 Alpha virt. eigenvalues --    0.17403   0.17692   0.18089   0.19545
  Beta  occ. eigenvalues --   -1.42120  -1.37715  -1.35448  -1.11857  -1.09712
  Beta  occ. eigenvalues --   -0.83128  -0.80704  -0.61872  -0.59890  -0.53933
  Beta  occ. eigenvalues --   -0.53331  -0.51511  -0.47941  -0.45259  -0.44010
  Beta  occ. eigenvalues --   -0.43934  -0.41413  -0.39984  -0.37547  -0.37324
  Beta virt. eigenvalues --   -0.01350   0.00538   0.01845   0.02402   0.02783
  Beta virt. eigenvalues --    0.02844   0.04671   0.05501   0.09406   0.14636
  Beta virt. eigenvalues --    0.14813   0.17040   0.17113   0.17937   0.20207
          Condensed to atoms (all electrons):
               1          2          3          4          5          6
     1  C    4.134907   0.000000   0.000000   0.000000   0.000000   0.000000
     2  C    0.000000   4.031073   0.000000   0.000000   0.000000   0.000000
     3  C    0.000000   0.000000   4.134909   0.000000   0.000000   0.000000
     4  C    0.000000   0.000000   0.000000   4.030671   0.000000   0.000000
     5  C    0.000000   0.000000   0.000000   0.000000   4.134753   0.000000
     6  C    0.000000   0.000000   0.000000   0.000000   0.000000   4.030668
     7  Cl   0.000000   0.000000   0.000000   0.000000   0.000000   0.000000
     8  H    0.000000   0.000000   0.000000   0.000000   0.000000   0.000000
     9  Cl   0.000000   0.000000   0.000000   0.000000   0.000000   0.000000
    10  H    0.000000   0.000000   0.000000   0.000000   0.000000   0.000000
    11  H    0.000000   0.000000   0.000000   0.000000   0.000000   0.000000
               7          8          9         10         11
     1  C    0.000000   0.000000   0.000000   0.000000   0.000000
     2  C    0.000000   0.000000   0.000000   0.000000   0.000000
     3  C    0.000000   0.000000   0.000000   0.000000   0.000000
     4  C    0.000000   0.000000   0.000000   0.000000   0.000000
     5  C    0.000000   0.000000   0.000000   0.000000   0.000000
     6  C    0.000000   0.000000   0.000000   0.000000   0.000000
     7  Cl   7.029976   0.000000   0.000000   0.000000   0.000000
     8  H    0.000000   0.818990   0.000000   0.000000   0.000000
     9  Cl   0.000000   0.000000   7.029974   0.000000   0.000000
    10  H    0.000000   0.000000   0.000000   0.805091   0.000000
    11  H    0.000000   0.000000   0.000000   0.000000   0.818987
          Atomic-Atomic Spin Densities.
               1          2          3          4          5          6
     1  C   -0.995190   0.000000   0.000000   0.000000   0.000000   0.000000
     2  C    0.000000   1.487417   0.000000   0.000000   0.000000   0.000000
     3  C    0.000000   0.000000  -0.995165   0.000000   0.000000   0.000000
     4  C    0.000000   0.000000   0.000000   0.589510   0.000000   0.000000
     5  C    0.000000   0.000000   0.000000   0.000000  -0.966026   0.000000
     6  C    0.000000   0.000000   0.000000   0.000000   0.000000   0.589500
     7  Cl   0.000000   0.000000   0.000000   0.000000   0.000000   0.000000
     8  H    0.000000   0.000000   0.000000   0.000000   0.000000   0.000000
     9  Cl   0.000000   0.000000   0.000000   0.000000   0.000000   0.000000
    10  H    0.000000   0.000000   0.000000   0.000000   0.000000   0.000000
    11  H    0.000000   0.000000   0.000000   0.000000   0.000000   0.000000
               7          8          9         10         11
     1  C    0.000000   0.000000   0.000000   0.000000   0.000000
     2  C    0.000000   0.000000   0.000000   0.000000   0.000000
     3  C    0.000000   0.000000   0.000000   0.000000   0.000000
     4  C    0.000000   0.000000   0.000000   0.000000   0.000000
     5  C    0.000000   0.000000   0.000000   0.000000   0.000000
     6  C    0.000000   0.000000   0.000000   0.000000   0.000000
     7  Cl  -0.002971   0.000000   0.000000   0.000000   0.000000
     8  H    0.000000   0.438533   0.000000   0.000000   0.000000
     9  Cl   0.000000   0.000000  -0.002970   0.000000   0.000000
    10  H    0.000000   0.000000   0.000000   0.418853   0.000000
    11  H    0.000000   0.000000   0.000000   0.000000   0.438510
 Mulliken charges and spin densities:
               1          2
     1  C   -0.134907  -0.995190
     2  C   -0.031073   1.487417
     3  C   -0.134909  -0.995165
     4  C   -0.030671   0.589510
     5  C   -0.134753  -0.966026
     6  C   -0.030668   0.589500
     7  Cl  -0.029976  -0.002971
     8  H    0.181010   0.438533
     9  Cl  -0.029974  -0.002970
    10  H    0.194909   0.418853
    11  H    0.181013   0.438510
 Sum of Mulliken charges =  -0.00000   1.00000
 Mulliken charges and spin densities with hydrogens summed into heavy atoms:
               1          2
     1  C    0.046102  -0.556658
     2  C   -0.031073   1.487417
     3  C    0.046104  -0.556655
     4  C   -0.030671   0.589510
     5  C    0.060156  -0.547173
     6  C   -0.030668   0.589500
     7  Cl  -0.029976  -0.002971
     9  Cl  -0.029974  -0.002970
 Charge=              0.0000 electrons
 Dipole moment (field-independent basis, Debye):
    X=             -0.2704    Y=              0.0000    Z=              0.0000  Tot=              0.2704
 N-N= 1.909941681200D+02 E-N=-2.623360743788D+02  KE=-8.995619183924D+01
 Symmetry A'   KE=-6.957070103568D+01
 Symmetry A"   KE=-2.038549080356D+01
 Symmetry A'   SP= 1.000000000000D+00
 Symmetry A"   SP=-5.551115123126D-16
 Calling FoFJK, ICntrl=      2127 FMM=F ISym2X=1 I1Cent= 0 IOpClX= 1 NMat=1 NMatS=1 NMatT=0.
 ***** Axes restored to original set *****
 -------------------------------------------------------------------
 Center     Atomic                   Forces (Hartrees/Bohr)
 Number     Number              X              Y              Z
 -------------------------------------------------------------------
      1        6          -0.044688026    0.058898321    0.000000000
      2        6           0.001876189   -0.068273436    0.000000000
      3        6           0.041389637    0.061261865    0.000000000
      4        6           0.022690377   -0.012324383    0.000000000
      5        6           0.001838000   -0.066491624    0.000000000
      6        6          -0.021990127   -0.013549134    0.000000000
      7       17           0.033167394    0.020573646    0.000000000
      8        1           0.086954433   -0.047263124   -0.000000000
      9       17          -0.034248367    0.018722319    0.000000000
     10        1          -0.002758998    0.100412377   -0.000000000
     11        1          -0.084230512   -0.051966827   -0.000000000
 -------------------------------------------------------------------
 Cartesian Forces:  Max     0.100412377 RMS     0.040482928

 GradGradGradGradGradGradGradGradGradGradGradGradGradGradGradGradGradGrad
 Berny optimization.
 FormGI is forming the generalized inverse of G from B-inverse, IUseBI=4.
 Internal  Forces:  Max     0.100450274 RMS     0.029431843
 Search for a local minimum.
 Step number   1 out of a maximum of   57
 All quantities printed in internal units (Hartrees-Bohrs-Radians)
 Mixed Optimization -- RFO/linear search
 Second derivative matrix not updated -- first step.
 ITU=  0
     Eigenvalues ---    0.02011   0.02011   0.02011   0.02011   0.02011
     Eigenvalues ---    0.02011   0.02011   0.02011   0.06524   0.06524
     Eigenvalues ---    0.06524   0.16000   0.16000   0.16000   0.23188
     Eigenvalues ---    0.23477   0.23493   0.25000   0.25000   0.29033
     Eigenvalues ---    0.29033   0.40971   0.41414   0.44656   0.44657
     Eigenvalues ---    0.44657   0.44657
 RFO step:  Lambda=-1.55255862D-01 EMin= 2.01065740D-02
 Linear search not attempted -- first point.
 Maximum step size (   0.300) exceeded in Quadratic search.
    -- Step size scaled by   0.372
 Iteration  1 RMS(Cart)=  0.04883878 RMS(Int)=  0.00008280
 Iteration  2 RMS(Cart)=  0.00015924 RMS(Int)=  0.00001586
 Iteration  3 RMS(Cart)=  0.00000002 RMS(Int)=  0.00001586
 ClnCor:  largest displacement from symmetrization is 6.04D-09 for atom     2.
 Variable       Old X    -DE/DX   Delta X   Delta X   Delta X     New X
                                 (Linear)    (Quad)   (Total)
    R1        2.65676  -0.05154   0.00000  -0.03231  -0.03229   2.62448
    R2        2.65677  -0.02368   0.00000  -0.01464  -0.01464   2.64213
    R3        3.33635  -0.09897   0.00000  -0.16701  -0.16701   3.16934
    R4        2.65677  -0.05154   0.00000  -0.03231  -0.03229   2.62448
    R5        2.65677  -0.02368   0.00000  -0.01464  -0.01464   2.64213
    R6        3.33633  -0.09897   0.00000  -0.16701  -0.16701   3.16932
    R7        2.65678  -0.02074   0.00000  -0.01238  -0.01240   2.64438
    R8        3.33633  -0.03903   0.00000  -0.03259  -0.03259   3.30374
    R9        2.65675  -0.02073   0.00000  -0.01237  -0.01239   2.64436
   R10        3.33632  -0.10045   0.00000  -0.16951  -0.16951   3.16681
   R11        3.33633  -0.03903   0.00000  -0.03259  -0.03259   3.30374
    A1        2.09439  -0.00370   0.00000  -0.00425  -0.00423   2.09016
    A2        2.09439   0.00213   0.00000   0.00246   0.00246   2.09685
    A3        2.09440   0.00156   0.00000   0.00179   0.00178   2.09618
    A4        2.09439   0.01988   0.00000   0.01642   0.01648   2.11088
    A5        2.09440  -0.00369   0.00000  -0.00425  -0.00423   2.09016
    A6        2.09440   0.00213   0.00000   0.00246   0.00246   2.09685
    A7        2.09439   0.00156   0.00000   0.00179   0.00178   2.09617
    A8        2.09439  -0.00860   0.00000  -0.00709  -0.00712   2.08727
    A9        2.09440   0.00403   0.00000   0.00330   0.00331   2.09771
   A10        2.09440   0.00457   0.00000   0.00379   0.00381   2.09820
   A11        2.09439   0.00471   0.00000   0.00627   0.00622   2.10062
   A12        2.09439  -0.00236   0.00000  -0.00313  -0.00311   2.09128
   A13        2.09440  -0.00236   0.00000  -0.00314  -0.00311   2.09129
   A14        2.09440  -0.00860   0.00000  -0.00709  -0.00712   2.08728
   A15        2.09439   0.00403   0.00000   0.00330   0.00331   2.09771
   A16        2.09439   0.00457   0.00000   0.00380   0.00381   2.09820
    D1        0.00000  -0.00000   0.00000  -0.00000   0.00000   0.00000
    D2        3.14159   0.00000   0.00000   0.00000   0.00000   3.14159
    D3        0.00000  -0.00000   0.00000   0.00000   0.00000   0.00000
    D4        3.14159   0.00000   0.00000   0.00000   0.00000   3.14159
    D5        3.14159  -0.00000   0.00000  -0.00000   0.00000   3.14159
    D6        0.00000  -0.00000   0.00000  -0.00000   0.00000   0.00000
    D7        0.00000   0.00000   0.00000   0.00000   0.00000   0.00000
    D8        3.14159  -0.00000   0.00000  -0.00000   0.00000   3.14159
    D9        0.00000   0.00000   0.00000   0.00000   0.00000   0.00000
   D10        3.14159  -0.00000   0.00000  -0.00000   0.00000   3.14159
   D11        3.14159   0.00000   0.00000   0.00000   0.00000   3.14159
   D12        0.00000   0.00000   0.00000   0.00000   0.00000   0.00000
   D13        0.00000  -0.00000   0.00000  -0.00000   0.00000   0.00000
   D14        3.14159  -0.00000   0.00000  -0.00000   0.00000   3.14159
   D15        3.14159  -0.00000   0.00000  -0.00000   0.00000   3.14159
   D16        0.00000  -0.00000   0.00000  -0.00000   0.00000   0.00000
   D17        0.00000   0.00000   0.00000   0.00000   0.00000   0.00000
   D18        3.14159   0.00000   0.00000  -0.00000   0.00000   3.14159
   D19        3.14159   0.00000   0.00000   0.00000   0.00000   3.14159
   D20        0.00000   0.00000   0.00000   0.00000   0.00000   0.00000
         Item               Value     Threshold  Converged?
 Maximum Force            0.100450     0.000450     NO 
 RMS     Force            0.029432     0.000300     NO 
 Maximum Displacement     0.183750     0.001800     NO 
 RMS     Displacement     0.048857     0.001200     NO 
 Predicted change in Energy=-5.400734D-02
 GradGradGradGradGradGradGradGradGradGradGradGradGradGradGradGradGradGrad

                          Input orientation:                          
 ---------------------------------------------------------------------
 Center     Atomic      Atomic             Coordinates (Angstroms)
 Number     Number       Type             X           Y           Z
 ---------------------------------------------------------------------
      1          6           0       -3.199971    0.192443    0.000000
      2          6           0       -2.010793    0.909841    0.000000
      3          6           0       -0.784021    0.258812    0.000000
      4          6           0       -0.740024   -1.138648    0.000000
      5          6           0       -1.934496   -1.867620    0.000000
      6          6           0       -3.167176   -1.205325    0.000000
      7         17           0       -4.657279   -2.119668    0.000000
      8          1           0       -4.670254    0.999335    0.000000
      9         17           0        0.798027   -1.969808    0.000000
     10          1           0       -1.888469   -3.542794    0.000000
     11          1           0        0.639737    1.145201    0.000000
 ---------------------------------------------------------------------
                    Distance matrix (angstroms):
                    1          2          3          4          5
     1  C    0.000000
     2  C    1.388813   0.000000
     3  C    2.416862   1.388815   0.000000
     4  C    2.796989   2.410635   1.398152   0.000000
     5  C    2.417703   2.778508   2.417706   1.399344   0.000000
     6  C    1.398153   2.410632   2.796985   2.428068   1.399333
     7  Cl   2.733058   4.022662   4.545250   4.038228   2.734424
     8  H    1.677143   2.660966   3.956158   4.474113   3.962802
     9  Cl   4.545253   4.022667   2.733061   1.748264   2.734433
    10  H    3.958792   4.454314   3.958789   2.664365   1.675806
    11  H    3.956148   2.660960   1.677132   2.668278   3.962797
                    6          7          8          9         10
     6  C    0.000000
     7  Cl   1.748265   0.000000
     8  H    2.668290   3.119031   0.000000
     9  Cl   4.038226   5.457364   6.222372   0.000000
    10  H    2.664367   3.113132   5.326281   3.113125   0.000000
    11  H    4.474098   6.222359   5.311995   3.119028   5.326267
                   11
    11  H    0.000000
 Stoichiometry    C6H3Cl2(2)
 Framework group  CS[SG(C6H3Cl2)]
 Deg. of freedom    19
 Full point group                 CS      NOp   2
 Largest Abelian subgroup         CS      NOp   2
 Largest concise Abelian subgroup C1      NOp   1
                         Standard orientation:                         
 ---------------------------------------------------------------------
 Center     Atomic      Atomic             Coordinates (Angstroms)
 Number     Number       Type             X           Y           Z
 ---------------------------------------------------------------------
      1          6           0       -1.208440    1.431946   -0.000000
      2          6           0       -0.000015    2.116424   -0.000000
      3          6           0        1.208421    1.431961    0.000000
      4          6           0        1.214036    0.033820    0.000000
      5          6           0        0.000000   -0.662084    0.000000
      6          6           0       -1.214032    0.033804   -0.000000
      7         17           0       -2.728676   -0.839285   -0.000000
      8          1           0       -2.656017    2.278899   -0.000000
      9         17           0        2.728688   -0.839253    0.000000
     10          1           0        0.000019   -2.337890    0.000000
     11          1           0        2.655978    2.278927    0.000000
 ---------------------------------------------------------------------
 Rotational constants (GHZ):           2.9147249           0.8348198           0.6489508
 Standard basis: VSTO-6G (5D, 7F)
 There are    27 symmetry adapted cartesian basis functions of A'  symmetry.
 There are     8 symmetry adapted cartesian basis functions of A"  symmetry.
 There are    27 symmetry adapted basis functions of A'  symmetry.
 There are     8 symmetry adapted basis functions of A"  symmetry.
    35 basis functions,   210 primitive gaussians,    35 cartesian basis functions
    21 alpha electrons       20 beta electrons
       nuclear repulsion energy       192.1933236035 Hartrees.
 Integral buffers will be    131072 words long.
 Regular integral format.
 Two-electron integral symmetry is turned off.
 Do NDO integrals.
 One-electron integrals computed using PRISM.
 NBasis=    35 RedAO= T EigKep=  1.00D+00  NBF=    27     8
 NBsUse=    35 1.00D-06 EigRej= -1.00D+00 NBFU=    27     8
 Initial guess from the checkpoint file:  "geometry_chks/13_ClBzNeutralRadical.chk"
 B after Tr=    -0.000000    0.000000    0.000000
         Rot=    0.707109    0.000000    0.000000    0.707104 Ang=  90.00 deg.
 Initial guess orbital symmetries:
 Alpha Orbitals:
       Occupied  (A') (A') (A') (A') (A') (A') (A') (A') (A') (A')
                 (A") (A") (A') (A') (A") (A') (A') (A') (A') (A")
                 (A")
       Virtual   (A') (A') (A') (A") (A") (A') (A') (A") (A') (A')
                 (A') (A') (A') (A')
 Beta  Orbitals:
       Occupied  (A') (A') (A') (A') (A') (A') (A') (A') (A') (A')
                 (A") (A') (A") (A') (A") (A') (A') (A') (A") (A")
       Virtual   (A') (A") (A') (A") (A') (A') (A') (A') (A") (A')
                 (A') (A') (A') (A') (A')
 Initial guess <Sx>= 0.0000 <Sy>= 0.0000 <Sz>= 0.5000 <S**2>= 2.0889 S= 1.0294
 Keep J ints in memory in canonical form, NReq=862793.
 Overlap will be assumed to be unity.
 Requested convergence on RMS density matrix=1.00D-08 within  32 cycles.
 Requested convergence on MAX density matrix=1.00D-06.
 Requested convergence on             energy=1.00D-06.
 No special actions if energy rises.
 Fock symm off for IB=2 I1=    1 I=   28 J=   18 Cut=1.00D-07 Err=5.49D-03
 Fock matrix is not symmetric: symmetry in diagonalization turned off.
 SCF Done:  E(UAM1) =  0.401444051404     A.U. after   20 cycles
            NFock= 19  Conv=0.48D-08     -V/T= 1.0045
 <Sx>= 0.0000 <Sy>= 0.0000 <Sz>= 0.5000 <S**2>= 1.4975 S= 0.8219
 <L.S>=  0.00000000000    
 Annihilation of the first spin contaminant:
 S**2 before annihilation     1.4975,   after     1.4320
 QCSCF skips out because SCF is already converged.
 Calling FoFJK, ICntrl=      2127 FMM=F ISym2X=1 I1Cent= 0 IOpClX= 1 NMat=1 NMatS=1 NMatT=0.
 ***** Axes restored to original set *****
 -------------------------------------------------------------------
 Center     Atomic                   Forces (Hartrees/Bohr)
 Number     Number              X              Y              Z
 -------------------------------------------------------------------
      1        6          -0.078850219    0.069574259    0.000000000
      2        6           0.001329119   -0.048363992   -0.000000000
      3        6           0.074913392    0.073797874    0.000000000
      4        6           0.020760591   -0.013586274    0.000000000
      5        6           0.002657664   -0.096423710    0.000000000
      6        6          -0.019991796   -0.014703554   -0.000000000
      7       17           0.025683293    0.015763689   -0.000000000
      8        1           0.101237040   -0.055765849   -0.000000000
      9       17          -0.026510802    0.014330233   -0.000000000
     10        1          -0.003204371    0.116617560   -0.000000000
     11        1          -0.098023909   -0.061240236   -0.000000000
 -------------------------------------------------------------------
 Cartesian Forces:  Max     0.116617560 RMS     0.048347548

 GradGradGradGradGradGradGradGradGradGradGradGradGradGradGradGradGradGrad
 Berny optimization.
 Using GEDIIS/GDIIS optimizer.
 FormGI is forming the generalized inverse of G from B-inverse, IUseBI=4.
 Internal  Forces:  Max     0.116661575 RMS     0.030980684
 Search for a local minimum.
 Step number   2 out of a maximum of   57
 All quantities printed in internal units (Hartrees-Bohrs-Radians)
 Mixed Optimization -- RFO/linear search
 Update second derivatives using D2CorX and points    1    2
 DE= -6.12D-02 DEPred=-5.40D-02 R= 1.13D+00
 TightC=F SS=  1.41D+00  RLast= 3.00D-01 DXNew= 5.0454D-01 9.0000D-01
 Trust test= 1.13D+00 RLast= 3.00D-01 DXMaxT set to 5.05D-01
 ITU=  1  0
 Use linear search instead of GDIIS.
     Eigenvalues ---   -0.19204   0.02011   0.02011   0.02011   0.02011
     Eigenvalues ---    0.02011   0.02011   0.02011   0.02011   0.06516
     Eigenvalues ---    0.06524   0.10151   0.16000   0.16000   0.16000
     Eigenvalues ---    0.23117   0.23470   0.23792   0.25000   0.25002
     Eigenvalues ---    0.29033   0.32452   0.40961   0.41675   0.44624
     Eigenvalues ---    0.44657   0.44657
 RFO step:  Lambda=-2.88788617D-01 EMin=-1.92042518D-01
 Skip linear search -- no minimum in search direction.
 Maximum step size (   0.505) exceeded in Quadratic search.
    -- Step size scaled by   0.471
 Iteration  1 RMS(Cart)=  0.04372891 RMS(Int)=  0.02223557
 Iteration  2 RMS(Cart)=  0.02222831 RMS(Int)=  0.00000956
 Iteration  3 RMS(Cart)=  0.00000027 RMS(Int)=  0.00000956
 ClnCor:  largest displacement from symmetrization is 1.40D-08 for atom     9.
 Variable       Old X    -DE/DX   Delta X   Delta X   Delta X     New X
                                 (Linear)    (Quad)   (Total)
    R1        2.62448  -0.03143   0.00000   0.03183   0.03185   2.65632
    R2        2.64213  -0.01100   0.00000   0.02912   0.02912   2.67125
    R3        3.16934  -0.11558   0.00000  -0.28820  -0.28820   2.88114
    R4        2.62448  -0.03143   0.00000   0.03183   0.03185   2.65633
    R5        2.64213  -0.01100   0.00000   0.02912   0.02912   2.67125
    R6        3.16932  -0.11558   0.00000  -0.28820  -0.28820   2.88112
    R7        2.64438  -0.01029   0.00000   0.02266   0.02264   2.66702
    R8        3.30374  -0.03014   0.00000  -0.00246  -0.00246   3.30128
    R9        2.64436  -0.01028   0.00000   0.02266   0.02264   2.66700
   R10        3.16681  -0.11666   0.00000  -0.28762  -0.28762   2.87919
   R11        3.30374  -0.03014   0.00000  -0.00246  -0.00246   3.30128
    A1        2.09016  -0.00533   0.00000  -0.01419  -0.01418   2.07598
    A2        2.09685   0.00295   0.00000   0.00753   0.00752   2.10437
    A3        2.09618   0.00238   0.00000   0.00667   0.00666   2.10284
    A4        2.11088   0.01797   0.00000   0.01624   0.01628   2.12716
    A5        2.09016  -0.00533   0.00000  -0.01420  -0.01418   2.07598
    A6        2.09685   0.00295   0.00000   0.00753   0.00752   2.10437
    A7        2.09617   0.00238   0.00000   0.00667   0.00666   2.10283
    A8        2.08727  -0.00582   0.00000   0.00408   0.00407   2.09134
    A9        2.09771   0.00290   0.00000  -0.00094  -0.00093   2.09678
   A10        2.09820   0.00291   0.00000  -0.00315  -0.00314   2.09506
   A11        2.10062   0.00431   0.00000   0.00398   0.00395   2.10457
   A12        2.09128  -0.00215   0.00000  -0.00199  -0.00198   2.08930
   A13        2.09129  -0.00216   0.00000  -0.00199  -0.00198   2.08931
   A14        2.08728  -0.00582   0.00000   0.00408   0.00407   2.09135
   A15        2.09771   0.00290   0.00000  -0.00094  -0.00093   2.09678
   A16        2.09820   0.00291   0.00000  -0.00315  -0.00314   2.09506
    D1        0.00000  -0.00000   0.00000  -0.00000  -0.00000   0.00000
    D2        3.14159   0.00000   0.00000   0.00000   0.00000   3.14159
    D3       -0.00000   0.00000   0.00000   0.00000   0.00000   0.00000
    D4        3.14159   0.00000   0.00000   0.00000   0.00000   3.14159
    D5        3.14159  -0.00000   0.00000  -0.00000   0.00000   3.14159
    D6        0.00000  -0.00000   0.00000  -0.00000  -0.00000   0.00000
    D7       -0.00000   0.00000   0.00000   0.00000   0.00000   0.00000
    D8        3.14159  -0.00000   0.00000  -0.00000   0.00000   3.14159
    D9        0.00000   0.00000   0.00000   0.00000   0.00000   0.00000
   D10        3.14159  -0.00000   0.00000  -0.00000   0.00000   3.14159
   D11        3.14159   0.00000   0.00000   0.00000   0.00000   3.14159
   D12       -0.00000   0.00000   0.00000  -0.00000   0.00000   0.00000
   D13       -0.00000  -0.00000   0.00000  -0.00000   0.00000   0.00000
   D14        3.14159  -0.00000   0.00000  -0.00000   0.00000   3.14159
   D15        3.14159   0.00000   0.00000   0.00000   0.00000   3.14159
   D16        0.00000  -0.00000   0.00000   0.00000   0.00000   0.00000
   D17        0.00000  -0.00000   0.00000  -0.00000  -0.00000   0.00000
   D18        3.14159  -0.00000   0.00000  -0.00000   0.00000   3.14159
   D19        3.14159   0.00000   0.00000  -0.00000   0.00000   3.14159
   D20       -0.00000   0.00000   0.00000  -0.00000   0.00000   0.00000
         Item               Value     Threshold  Converged?
 Maximum Force            0.116662     0.000450     NO 
 RMS     Force            0.030981     0.000300     NO 
 Maximum Displacement     0.271564     0.001800     NO 
 RMS     Displacement     0.065345     0.001200     NO 
 Predicted change in Energy=-1.172849D-01
 GradGradGradGradGradGradGradGradGradGradGradGradGradGradGradGradGradGrad

                          Input orientation:                          
 ---------------------------------------------------------------------
 Center     Atomic      Atomic             Coordinates (Angstroms)
 Number     Number       Type             X           Y           Z
 ---------------------------------------------------------------------
      1          6           0       -3.220514    0.202394    0.000000
      2          6           0       -2.011036    0.918676    0.000000
      3          6           0       -0.764055    0.269877   -0.000000
      4          6           0       -0.728113   -1.143230   -0.000000
      5          6           0       -1.934265   -1.876061    0.000000
      6          6           0       -3.178817   -1.210554    0.000000
      7         17           0       -4.663119   -2.131821    0.000000
      8          1           0       -4.556644    0.936736    0.000000
      9         17           0        0.804526   -1.981621   -0.000000
     10          1           0       -1.892419   -3.399088   -0.000000
     11          1           0        0.529737    1.076462   -0.000000
 ---------------------------------------------------------------------
                    Distance matrix (angstroms):
                    1          2          3          4          5
     1  C    0.000000
     2  C    1.405665   0.000000
     3  C    2.457385   1.405667   0.000000
     4  C    2.832449   2.428445   1.413564   0.000000
     5  C    2.444261   2.795791   2.444267   1.411327   0.000000
     6  C    1.413563   2.428442   2.832446   2.451629   1.411315
     7  Cl   2.744024   4.042162   4.579394   4.057288   2.740813
     8  H    1.524631   2.545672   3.850770   4.357052   3.845607
     9  Cl   4.579397   4.042167   2.744029   1.746964   2.740825
    10  H    3.838556   4.319393   3.838556   2.538603   1.523602
    11  H    3.850763   2.545668   1.524624   2.551317   3.845607
                    6          7          8          9         10
     6  C    0.000000
     7  Cl   1.746964   0.000000
     8  H    2.551325   3.070403   0.000000
     9  Cl   4.057286   5.469708   6.104011   0.000000
    10  H    2.538602   3.046759   5.088955   3.046757   0.000000
    11  H    4.357042   6.104001   5.088300   3.070404   5.088947
                   11
    11  H    0.000000
 Stoichiometry    C6H3Cl2(2)
 Framework group  CS[SG(C6H3Cl2)]
 Deg. of freedom    19
 Full point group                 CS      NOp   2
 Largest Abelian subgroup         CS      NOp   2
 Largest concise Abelian subgroup C1      NOp   1
                         Standard orientation:                         
 ---------------------------------------------------------------------
 Center     Atomic      Atomic             Coordinates (Angstroms)
 Number     Number       Type             X           Y           Z
 ---------------------------------------------------------------------
      1          6           0       -1.228704    1.446916    0.000000
      2          6           0       -0.000017    2.129723    0.000000
      3          6           0        1.228682    1.446935   -0.000000
      4          6           0        1.225816    0.033374   -0.000000
      5          6           0        0.000000   -0.666068   -0.000000
      6          6           0       -1.225813    0.033355    0.000000
      7         17           0       -2.734847   -0.846815    0.000000
      8          1           0       -2.544170    2.217661    0.000000
      9         17           0        2.734861   -0.846778   -0.000000
     10          1           0        0.000017   -2.189670   -0.000000
     11          1           0        2.544130    2.217696   -0.000000
 ---------------------------------------------------------------------
 Rotational constants (GHZ):           2.8908988           0.8306200           0.6452307
 Standard basis: VSTO-6G (5D, 7F)
 There are    27 symmetry adapted cartesian basis functions of A'  symmetry.
 There are     8 symmetry adapted cartesian basis functions of A"  symmetry.
 There are    27 symmetry adapted basis functions of A'  symmetry.
 There are     8 symmetry adapted basis functions of A"  symmetry.
    35 basis functions,   210 primitive gaussians,    35 cartesian basis functions
    21 alpha electrons       20 beta electrons
       nuclear repulsion energy       192.2145334060 Hartrees.
 Integral buffers will be    131072 words long.
 Regular integral format.
 Two-electron integral symmetry is turned off.
 Do NDO integrals.
 One-electron integrals computed using PRISM.
 NBasis=    35 RedAO= T EigKep=  1.00D+00  NBF=    27     8
 NBsUse=    35 1.00D-06 EigRej= -1.00D+00 NBFU=    27     8
 Initial guess from the checkpoint file:  "geometry_chks/13_ClBzNeutralRadical.chk"
 B after Tr=    -0.000000    0.000000   -0.000000
         Rot=    1.000000    0.000000   -0.000000   -0.000001 Ang=  -0.00 deg.
 Initial guess orbital symmetries:
 Alpha Orbitals:
       Occupied  (A') (A') (A') (A') (A') (A') (A') (A') (A') (A')
                 (A") (A') (A") (A') (A") (A') (A') (A') (A') (A")
                 (A")
       Virtual   (A') (A") (A") (A') (A') (A') (A') (A") (A') (A')
                 (A') (A') (A') (A')
 Beta  Orbitals:
       Occupied  (A') (A') (A') (A') (A') (A') (A') (A') (A') (A')
                 (A") (A') (A") (A') (A") (A') (A') (A') (A") (A")
       Virtual   (A') (A") (A') (A") (A') (A') (A') (A') (A") (A')
                 (A') (A') (A') (A') (A')
 Initial guess <Sx>= 0.0000 <Sy>= 0.0000 <Sz>= 0.5000 <S**2>= 1.4975 S= 0.8219
 Keep J ints in memory in canonical form, NReq=862793.
 Overlap will be assumed to be unity.
 Requested convergence on RMS density matrix=1.00D-08 within  32 cycles.
 Requested convergence on MAX density matrix=1.00D-06.
 Requested convergence on             energy=1.00D-06.
 No special actions if energy rises.
 Fock symm off for IB=2 I1=    1 I=   28 J=   18 Cut=1.00D-07 Err=7.53D-03
 Fock matrix is not symmetric: symmetry in diagonalization turned off.
 SCF Done:  E(UAM1) =  0.301845344203     A.U. after   18 cycles
            NFock= 17  Conv=0.51D-08     -V/T= 1.0033
 <Sx>= 0.0000 <Sy>= 0.0000 <Sz>= 0.5000 <S**2>= 1.3729 S= 0.7739
 <L.S>=  0.00000000000    
 Annihilation of the first spin contaminant:
 S**2 before annihilation     1.3729,   after     1.1219
 QCSCF skips out because SCF is already converged.
 Calling FoFJK, ICntrl=      2127 FMM=F ISym2X=1 I1Cent= 0 IOpClX= 1 NMat=1 NMatS=1 NMatT=0.
 ***** Axes restored to original set *****
 -------------------------------------------------------------------
 Center     Atomic                   Forces (Hartrees/Bohr)
 Number     Number              X              Y              Z
 -------------------------------------------------------------------
      1        6          -0.069132685    0.063098553    0.000000000
      2        6           0.001780023   -0.064776699   -0.000000000
      3        6           0.065564377    0.066796262    0.000000000
      4        6           0.004916039   -0.002311565    0.000000000
      5        6           0.002473862   -0.089723391   -0.000000000
      6        6          -0.004789713   -0.002576592    0.000000000
      7       17           0.026438422    0.016600618    0.000000000
      8        1           0.105399081   -0.058025090   -0.000000000
      9       17          -0.027311213    0.015124657   -0.000000000
     10        1          -0.003283904    0.119517086   -0.000000000
     11        1          -0.102054289   -0.063723840   -0.000000000
 -------------------------------------------------------------------
 Cartesian Forces:  Max     0.119517086 RMS     0.047683267

 GradGradGradGradGradGradGradGradGradGradGradGradGradGradGradGradGradGrad
 Berny optimization.
 Using GEDIIS/GDIIS optimizer.
 FormGI is forming the generalized inverse of G from B-inverse, IUseBI=4.
 Internal  Forces:  Max     0.120315710 RMS     0.033670772
 Search for a local minimum.
 Step number   3 out of a maximum of   57
 All quantities printed in internal units (Hartrees-Bohrs-Radians)
 Mixed Optimization -- RFO/linear search
 Update second derivatives using D2CorX and points    2    3
 DE= -9.96D-02 DEPred=-1.17D-01 R= 8.49D-01
 TightC=F SS=  1.41D+00  RLast= 5.05D-01 DXNew= 8.4853D-01 1.5136D+00
 Trust test= 8.49D-01 RLast= 5.05D-01 DXMaxT set to 8.49D-01
 ITU=  1  1  0
 Use linear search instead of GDIIS.
     Eigenvalues ---   -1.94720   0.00029   0.02011   0.02011   0.02011
     Eigenvalues ---    0.02011   0.02011   0.02011   0.02011   0.02011
     Eigenvalues ---    0.06523   0.06524   0.15998   0.16000   0.16000
     Eigenvalues ---    0.21287   0.23131   0.23482   0.25000   0.25002
     Eigenvalues ---    0.27018   0.29033   0.40124   0.41056   0.44419
     Eigenvalues ---    0.44657   0.44657
 RFO step:  Lambda=-1.95489720D+00 EMin=-1.94719554D+00
 I=     1 Eig=   -1.95D+00 Dot1= -7.33D-02
 I=     1 Stepn= -6.00D-01 RXN=   6.00D-01 EDone=F
 Mixed    1 eigenvectors in step.  Raw Step.Grad=  7.33D-02.
 RFO eigenvector is Hessian eigenvector with negative curvature.
 Taking step of  6.00D-01 in eigenvector direction(s).  Step.Grad=  1.43D-02.
 Skip linear search -- no minimum in search direction.
 Iteration  1 RMS(Cart)=  0.10901078 RMS(Int)=  0.01468598
 Iteration  2 RMS(Cart)=  0.01951333 RMS(Int)=  0.00017683
 Iteration  3 RMS(Cart)=  0.00007466 RMS(Int)=  0.00016678
 Iteration  4 RMS(Cart)=  0.00000001 RMS(Int)=  0.00016678
 ClnCor:  largest displacement from symmetrization is 3.23D-10 for atom     8.
 Variable       Old X    -DE/DX   Delta X   Delta X   Delta X     New X
                                 (Linear)    (Quad)   (Total)
    R1        2.65632  -0.04853   0.00000  -0.25475  -0.25450   2.40182
    R2        2.67125  -0.02832   0.00000  -0.24397  -0.24397   2.42728
    R3        2.88114  -0.12032   0.00000  -0.07005  -0.07005   2.81109
    R4        2.65633  -0.04853   0.00000  -0.25475  -0.25450   2.40183
    R5        2.67125  -0.02832   0.00000  -0.24398  -0.24398   2.42727
    R6        2.88112  -0.12032   0.00000  -0.07003  -0.07003   2.81109
    R7        2.66702  -0.02555   0.00000  -0.21396  -0.21420   2.45282
    R8        3.30128  -0.03122   0.00000  -0.03207  -0.03207   3.26922
    R9        2.66700  -0.02554   0.00000  -0.21395  -0.21419   2.45281
   R10        2.87919  -0.11956   0.00000  -0.04213  -0.04213   2.83706
   R11        3.30128  -0.03122   0.00000  -0.03206  -0.03206   3.26922
    A1        2.07598  -0.00571   0.00000  -0.00458  -0.00439   2.07159
    A2        2.10437   0.00298   0.00000  -0.00009  -0.00019   2.10418
    A3        2.10284   0.00273   0.00000   0.00468   0.00458   2.10742
    A4        2.12716   0.01813   0.00000   0.00780   0.00842   2.13558
    A5        2.07598  -0.00571   0.00000  -0.00457  -0.00438   2.07160
    A6        2.10437   0.00298   0.00000  -0.00010  -0.00020   2.10418
    A7        2.10283   0.00273   0.00000   0.00467   0.00457   2.10741
    A8        2.09134  -0.00370   0.00000   0.02573   0.02547   2.11681
    A9        2.09678   0.00158   0.00000  -0.01691  -0.01678   2.08000
   A10        2.09506   0.00212   0.00000  -0.00882  -0.00869   2.08637
   A11        2.10457   0.00071   0.00000  -0.05011  -0.05061   2.05396
   A12        2.08930  -0.00035   0.00000   0.02506   0.02530   2.11460
   A13        2.08931  -0.00035   0.00000   0.02506   0.02531   2.11462
   A14        2.09135  -0.00371   0.00000   0.02573   0.02547   2.11682
   A15        2.09678   0.00159   0.00000  -0.01691  -0.01678   2.07999
   A16        2.09506   0.00212   0.00000  -0.00882  -0.00869   2.08637
    D1       -0.00000  -0.00000   0.00000   0.00000   0.00000   0.00000
    D2        3.14159   0.00000   0.00000   0.00000   0.00000   3.14159
    D3        0.00000  -0.00000   0.00000  -0.00000   0.00000   0.00000
    D4        3.14159   0.00000   0.00000  -0.00000   0.00000   3.14159
    D5        3.14159  -0.00000   0.00000  -0.00000   0.00000   3.14159
    D6       -0.00000  -0.00000   0.00000  -0.00000   0.00000   0.00000
    D7        0.00000   0.00000   0.00000   0.00000   0.00000   0.00000
    D8        3.14159  -0.00000   0.00000  -0.00000   0.00000   3.14159
    D9        0.00000  -0.00000   0.00000  -0.00000   0.00000   0.00000
   D10        3.14159  -0.00000   0.00000  -0.00000   0.00000   3.14159
   D11        3.14159   0.00000   0.00000  -0.00000   0.00000   3.14159
   D12       -0.00000   0.00000   0.00000  -0.00000   0.00000   0.00000
   D13        0.00000  -0.00000   0.00000   0.00000  -0.00000   0.00000
   D14        3.14159  -0.00000   0.00000   0.00000   0.00000   3.14159
   D15        3.14159   0.00000   0.00000   0.00000   0.00000   3.14159
   D16        0.00000   0.00000   0.00000   0.00000   0.00000   0.00000
   D17       -0.00000   0.00000   0.00000   0.00000   0.00000   0.00000
   D18        3.14159  -0.00000   0.00000   0.00000   0.00000   3.14159
   D19        3.14159   0.00000   0.00000   0.00000   0.00000   3.14159
   D20        0.00000   0.00000   0.00000   0.00000  -0.00000   0.00000
         Item               Value     Threshold  Converged?
 Maximum Force            0.120316     0.000450     NO 
 RMS     Force            0.033671     0.000300     NO 
 Maximum Displacement     0.288742     0.001800     NO 
 RMS     Displacement     0.126778     0.001200     NO 
 Predicted change in Energy=-4.237412D-01
 GradGradGradGradGradGradGradGradGradGradGradGradGradGradGradGradGradGrad

                          Input orientation:                          
 ---------------------------------------------------------------------
 Center     Atomic      Atomic             Coordinates (Angstroms)
 Number     Number       Type             X           Y           Z
 ---------------------------------------------------------------------
      1          6           0       -3.103375    0.130737    0.000000
      2          6           0       -2.007057    0.773776    0.000000
      3          6           0       -0.877089    0.191890   -0.000000
      4          6           0       -0.844646   -1.092154   -0.000000
      5          6           0       -1.936517   -1.793981   -0.000000
      6          6           0       -3.065268   -1.153158    0.000000
      7         17           0       -4.550107   -2.040935    0.000000
      8          1           0       -4.403849    0.852964    0.000000
      9         17           0        0.686689   -1.897072   -0.000000
     10          1           0       -1.895280   -3.294721   -0.000000
     11          1           0        0.381778    0.984424   -0.000000
 ---------------------------------------------------------------------
                    Distance matrix (angstroms):
                    1          2          3          4          5
     1  C    0.000000
     2  C    1.270988   0.000000
     3  C    2.227125   1.270991   0.000000
     4  C    2.568525   2.198384   1.284453   0.000000
     5  C    2.250799   2.568726   2.250793   1.297977   0.000000
     6  C    1.284461   2.198382   2.568517   2.221460   1.297972
     7  Cl   2.609443   3.793376   4.298438   3.825001   2.625231
     8  H    1.487563   2.398100   3.588182   4.056034   3.618569
     9  Cl   4.298442   3.793376   2.609438   1.729994   2.625231
    10  H    3.632252   4.070032   3.632240   2.440315   1.501306
    11  H    3.588185   2.398104   1.487567   2.411699   3.618567
                    6          7          8          9         10
     6  C    0.000000
     7  Cl   1.729999   0.000000
     8  H    2.411706   2.897593   0.000000
     9  Cl   3.824995   5.238772   5.785869   0.000000
    10  H    2.440320   2.935998   4.847289   2.935982   0.000000
    11  H    4.056030   5.785869   4.787432   2.897584   4.847275
                   11
    11  H    0.000000
 Stoichiometry    C6H3Cl2(2)
 Framework group  CS[SG(C6H3Cl2)]
 Deg. of freedom    19
 Full point group                 CS      NOp   2
 Largest Abelian subgroup         CS      NOp   2
 Largest concise Abelian subgroup C1      NOp   1
                         Standard orientation:                         
 ---------------------------------------------------------------------
 Center     Atomic      Atomic             Coordinates (Angstroms)
 Number     Number       Type             X           Y           Z
 ---------------------------------------------------------------------
      1          6           0       -1.113565    1.340736    0.000000
      2          6           0       -0.000003    1.953428    0.000000
      3          6           0        1.113560    1.340732   -0.000000
      4          6           0        1.110732    0.056282   -0.000000
      5          6           0       -0.000000   -0.615298   -0.000000
      6          6           0       -1.110728    0.056279    0.000000
      7         17           0       -2.619386   -0.790390    0.000000
      8          1           0       -2.393716    2.098402    0.000000
      9         17           0        2.619386   -0.790383   -0.000000
     10          1           0        0.000011   -2.116604   -0.000000
     11          1           0        2.393715    2.098399   -0.000000
 ---------------------------------------------------------------------
 Rotational constants (GHZ):           3.3570287           0.9175785           0.7206130
 Standard basis: VSTO-6G (5D, 7F)
 There are    27 symmetry adapted cartesian basis functions of A'  symmetry.
 There are     8 symmetry adapted cartesian basis functions of A"  symmetry.
 There are    27 symmetry adapted basis functions of A'  symmetry.
 There are     8 symmetry adapted basis functions of A"  symmetry.
    35 basis functions,   210 primitive gaussians,    35 cartesian basis functions
    21 alpha electrons       20 beta electrons
       nuclear repulsion energy       199.7140122288 Hartrees.
 Integral buffers will be    131072 words long.
 Regular integral format.
 Two-electron integral symmetry is turned off.
 Do NDO integrals.
 One-electron integrals computed using PRISM.
 NBasis=    35 RedAO= T EigKep=  1.00D+00  NBF=    27     8
 NBsUse=    35 1.00D-06 EigRej= -1.00D+00 NBFU=    27     8
 Initial guess from the checkpoint file:  "geometry_chks/13_ClBzNeutralRadical.chk"
 B after Tr=    -0.000000   -0.000000    0.000000
         Rot=    1.000000   -0.000000    0.000000    0.000003 Ang=   0.00 deg.
 Initial guess orbital symmetries:
 Alpha Orbitals:
       Occupied  (A') (A') (A') (A') (A') (A') (A') (A') (A') (A')
                 (A") (A') (A") (A') (A') (A") (A') (A') (A') (A")
                 (A")
       Virtual   (A") (A") (A') (A') (A') (A') (A') (A") (A') (A')
                 (A') (A') (A') (A')
 Beta  Orbitals:
       Occupied  (A') (A') (A') (A') (A') (A') (A') (A') (A') (A')
                 (A') (A") (A") (A') (A') (A') (A") (A') (A") (A")
       Virtual   (A') (A") (A") (A') (A') (A') (A') (A') (A") (A')
                 (A') (A') (A') (A') (A')
 Initial guess <Sx>= 0.0000 <Sy>= 0.0000 <Sz>= 0.5000 <S**2>= 1.3729 S= 0.7739
 Keep J ints in memory in canonical form, NReq=862793.
 Overlap will be assumed to be unity.
 Requested convergence on RMS density matrix=1.00D-08 within  32 cycles.
 Requested convergence on MAX density matrix=1.00D-06.
 Requested convergence on             energy=1.00D-06.
 No special actions if energy rises.
 Fock symm off for IB=2 I1=    1 I=   28 J=    4 Cut=1.00D-07 Err=2.24D-03
 Fock matrix is not symmetric: symmetry in diagonalization turned off.
 SCF Done:  E(UAM1) =  0.374799266719     A.U. after   19 cycles
            NFock= 18  Conv=0.99D-08     -V/T= 1.0041
 <Sx>= 0.0000 <Sy>= 0.0000 <Sz>= 0.5000 <S**2>= 0.8381 S= 0.5431
 <L.S>=  0.00000000000    
 Annihilation of the first spin contaminant:
 S**2 before annihilation     0.8381,   after     0.7561
 QCSCF skips out because SCF is already converged.
 Calling FoFJK, ICntrl=      2127 FMM=F ISym2X=1 I1Cent= 0 IOpClX= 1 NMat=1 NMatS=1 NMatT=0.
 ***** Axes restored to original set *****
 -------------------------------------------------------------------
 Center     Atomic                   Forces (Hartrees/Bohr)
 Number     Number              X              Y              Z
 -------------------------------------------------------------------
      1        6          -0.261912137    0.173552781    0.000000000
      2        6          -0.004450649    0.162102059    0.000000000
      3        6           0.251987297    0.187681676    0.000000000
      4        6           0.178337104   -0.119965120    0.000000000
      5        6           0.007526785   -0.273817791   -0.000000000
      6        6          -0.171488552   -0.129564721    0.000000000
      7       17           0.000134327   -0.000948396    0.000000000
      8        1           0.097217743   -0.053757703   -0.000000000
      9       17          -0.000080217   -0.000955484   -0.000000000
     10        1          -0.003151695    0.114685978   -0.000000000
     11        1          -0.094120007   -0.059013279   -0.000000000
 -------------------------------------------------------------------
 Cartesian Forces:  Max     0.273817791 RMS     0.114018649

 GradGradGradGradGradGradGradGradGradGradGradGradGradGradGradGradGradGrad
 Berny optimization.
 Using GEDIIS/GDIIS optimizer.
 FormGI is forming the generalized inverse of G from B-inverse, IUseBI=4.
 Internal  Forces:  Max     0.205354728 RMS     0.074594862
 Search for a local minimum.
 Step number   4 out of a maximum of   57
 All quantities printed in internal units (Hartrees-Bohrs-Radians)
 Mixed Optimization -- RFO/linear search
 Update second derivatives using D2CorX and points    2    4    3
 ITU=  0  1  1  0
 Use linear search instead of GDIIS.
     Eigenvalues ---    0.00028   0.02011   0.02011   0.02011   0.02011
     Eigenvalues ---    0.02011   0.02011   0.02011   0.02011   0.06516
     Eigenvalues ---    0.06524   0.15996   0.16000   0.16000   0.21203
     Eigenvalues ---    0.23132   0.23477   0.25000   0.25000   0.26981
     Eigenvalues ---    0.29033   0.39552   0.40388   0.44413   0.44657
     Eigenvalues ---    0.44657   0.94715
 RFO could not converge Lambda in  999 iterations.
 Quartic linear search produced a step of -0.70986.
 Iteration  1 RMS(Cart)=  0.09005285 RMS(Int)=  0.00048937
 Iteration  2 RMS(Cart)=  0.00046447 RMS(Int)=  0.00003532
 Iteration  3 RMS(Cart)=  0.00000036 RMS(Int)=  0.00003532
 ClnCor:  largest displacement from symmetrization is 4.26D-11 for atom    10.
 Variable       Old X    -DE/DX   Delta X   Delta X   Delta X     New X
                                 (Linear)    (Quad)   (Total)
    R1        2.40182   0.18440   0.18066   0.00000   0.18061   2.58243
    R2        2.42728   0.20534   0.17318   0.00000   0.17318   2.60046
    R3        2.81109  -0.11109   0.04972   0.00000   0.04972   2.86081
    R4        2.40183   0.18439   0.18066   0.00000   0.18061   2.58243
    R5        2.42727   0.20535   0.17319   0.00000   0.17319   2.60046
    R6        2.81109  -0.11109   0.04971   0.00000   0.04971   2.86080
    R7        2.45282   0.18697   0.15205   0.00000   0.15210   2.60492
    R8        3.26922   0.00037   0.02276   0.00000   0.02276   3.29198
    R9        2.45281   0.18697   0.15204   0.00000   0.15209   2.60490
   R10        2.83706  -0.11473   0.02991   0.00000   0.02991   2.86697
   R11        3.26922   0.00037   0.02276   0.00000   0.02276   3.29198
    A1        2.07159  -0.00517   0.00311   0.00000   0.00307   2.07466
    A2        2.10418   0.00230   0.00014   0.00000   0.00016   2.10434
    A3        2.10742   0.00287  -0.00325   0.00000  -0.00323   2.10419
    A4        2.13558   0.01393  -0.00598   0.00000  -0.00611   2.12947
    A5        2.07160  -0.00518   0.00311   0.00000   0.00307   2.07467
    A6        2.10418   0.00230   0.00014   0.00000   0.00016   2.10434
    A7        2.10741   0.00288  -0.00325   0.00000  -0.00323   2.10418
    A8        2.11681  -0.01243  -0.01808   0.00000  -0.01803   2.09879
    A9        2.08000   0.00766   0.01191   0.00000   0.01188   2.09188
   A10        2.08637   0.00477   0.00617   0.00000   0.00614   2.09251
   A11        2.05396   0.02129   0.03593   0.00000   0.03603   2.08999
   A12        2.11460  -0.01064  -0.01796   0.00000  -0.01801   2.09659
   A13        2.11462  -0.01064  -0.01796   0.00000  -0.01802   2.09660
   A14        2.11682  -0.01243  -0.01808   0.00000  -0.01803   2.09879
   A15        2.07999   0.00766   0.01191   0.00000   0.01189   2.09188
   A16        2.08637   0.00477   0.00617   0.00000   0.00614   2.09251
    D1        0.00000  -0.00000   0.00000   0.00000   0.00000   0.00000
    D2        3.14159   0.00000   0.00000   0.00000   0.00000   3.14159
    D3       -0.00000   0.00000   0.00000   0.00000   0.00000   0.00000
    D4        3.14159   0.00000   0.00000   0.00000   0.00000   3.14159
    D5        3.14159  -0.00000   0.00000   0.00000   0.00000   3.14159
    D6        0.00000  -0.00000   0.00000   0.00000  -0.00000   0.00000
    D7       -0.00000  -0.00000   0.00000   0.00000   0.00000   0.00000
    D8        3.14159  -0.00000   0.00000   0.00000   0.00000   3.14159
    D9        0.00000   0.00000   0.00000   0.00000   0.00000   0.00000
   D10        3.14159  -0.00000   0.00000   0.00000   0.00000   3.14159
   D11        3.14159   0.00000   0.00000   0.00000   0.00000   3.14159
   D12       -0.00000   0.00000   0.00000   0.00000   0.00000   0.00000
   D13       -0.00000  -0.00000   0.00000   0.00000   0.00000   0.00000
   D14        3.14159  -0.00000   0.00000   0.00000   0.00000   3.14159
   D15        3.14159  -0.00000   0.00000   0.00000   0.00000   3.14159
   D16       -0.00000  -0.00000   0.00000   0.00000   0.00000   0.00000
   D17        0.00000   0.00000   0.00000   0.00000  -0.00000   0.00000
   D18        3.14159  -0.00000   0.00000   0.00000   0.00000   3.14159
   D19        3.14159   0.00000   0.00000   0.00000   0.00000   3.14159
   D20        0.00000   0.00000   0.00000   0.00000   0.00000   0.00000
         Item               Value     Threshold  Converged?
 Maximum Force            0.205355     0.000450     NO 
 RMS     Force            0.074595     0.000300     NO 
 Maximum Displacement     0.205051     0.001800     NO 
 RMS     Displacement     0.090012     0.001200     NO 
 Predicted change in Energy=-2.589914D-02
 GradGradGradGradGradGradGradGradGradGradGradGradGradGradGradGradGradGrad

                          Input orientation:                          
 ---------------------------------------------------------------------
 Center     Atomic      Atomic             Coordinates (Angstroms)
 Number     Number       Type             X           Y           Z
 ---------------------------------------------------------------------
      1          6           0       -3.186522    0.181731    0.000000
      2          6           0       -2.009884    0.876727    0.000000
      3          6           0       -0.796863    0.247377   -0.000000
      4          6           0       -0.762090   -1.128287   -0.000000
      5          6           0       -1.934908   -1.852624    0.000000
      6          6           0       -3.145713   -1.193769    0.000000
      7         17           0       -4.630170   -2.105414    0.000000
      8          1           0       -4.512357    0.912472    0.000000
      9         17           0        0.770175   -1.957062   -0.000000
     10          1           0       -1.893239   -3.369184   -0.000000
     11          1           0        0.486851    1.049803   -0.000000
 ---------------------------------------------------------------------
                    Distance matrix (angstroms):
                    1          2          3          4          5
     1  C    0.000000
     2  C    1.366564   0.000000
     3  C    2.390560   1.366566   0.000000
     4  C    2.755725   2.361583   1.376103   0.000000
     5  C    2.388543   2.730380   2.388545   1.378465   0.000000
     6  C    1.376105   2.361580   2.755721   2.384522   1.378455
     7  Cl   2.704654   3.969769   4.497762   3.989589   2.707090
     8  H    1.513876   2.502728   3.774553   4.269567   3.780079
     9  Cl   4.497765   3.969773   2.704656   1.742041   2.707099
    10  H    3.779098   4.247513   3.779094   2.510203   1.517133
    11  H    3.774548   2.502726   1.513872   2.510762   3.780078
                    6          7          8          9         10
     6  C    0.000000
     7  Cl   1.742042   0.000000
     8  H    2.510770   3.020185   0.000000
     9  Cl   3.989586   5.402382   6.011604   0.000000
    10  H    2.510204   3.014615   5.019199   3.014609   0.000000
    11  H    4.269558   6.011596   5.001094   3.020184   5.019190
                   11
    11  H    0.000000
 Stoichiometry    C6H3Cl2(2)
 Framework group  CS[SG(C6H3Cl2)]
 Deg. of freedom    19
 Full point group                 CS      NOp   2
 Largest Abelian subgroup         CS      NOp   2
 Largest concise Abelian subgroup C1      NOp   1
                         Standard orientation:                         
 ---------------------------------------------------------------------
 Center     Atomic      Atomic             Coordinates (Angstroms)
 Number     Number       Type             X           Y           Z
 ---------------------------------------------------------------------
      1          6           0       -1.195289    1.416206    0.000000
      2          6           0       -0.000013    2.078636   -0.000000
      3          6           0        1.195272    1.416219   -0.000000
      4          6           0        1.192263    0.040119   -0.000000
      5          6           0       -0.000000   -0.651745    0.000000
      6          6           0       -1.192260    0.040105    0.000000
      7         17           0       -2.701186   -0.830441    0.000000
      8          1           0       -2.500561    2.183073    0.000000
      9         17           0        2.701196   -0.830413   -0.000000
     10          1           0        0.000016   -2.168878    0.000000
     11          1           0        2.500532    2.183097   -0.000000
 ---------------------------------------------------------------------
 Rotational constants (GHZ):           3.0154207           0.8546863           0.6659348
 Standard basis: VSTO-6G (5D, 7F)
 There are    27 symmetry adapted cartesian basis functions of A'  symmetry.
 There are     8 symmetry adapted cartesian basis functions of A"  symmetry.
 There are    27 symmetry adapted basis functions of A'  symmetry.
 There are     8 symmetry adapted basis functions of A"  symmetry.
    35 basis functions,   210 primitive gaussians,    35 cartesian basis functions
    21 alpha electrons       20 beta electrons
       nuclear repulsion energy       194.2903225767 Hartrees.
 Integral buffers will be    131072 words long.
 Regular integral format.
 Two-electron integral symmetry is turned off.
 Do NDO integrals.
 One-electron integrals computed using PRISM.
 NBasis=    35 RedAO= T EigKep=  1.00D+00  NBF=    27     8
 NBsUse=    35 1.00D-06 EigRej= -1.00D+00 NBFU=    27     8
 Lowest energy guess from the checkpoint file:  "geometry_chks/13_ClBzNeutralRadical.chk"
 B after Tr=    -0.000000   -0.000000    0.000000
         Rot=    1.000000   -0.000000    0.000000    0.000001 Ang=   0.00 deg.
 B after Tr=    -0.000000    0.000000   -0.000000
         Rot=    1.000000    0.000000   -0.000000   -0.000002 Ang=  -0.00 deg.
 Initial guess orbital symmetries:
 Alpha Orbitals:
       Occupied  (A") (A") (A') (A") (A') (A') (A') (A') (A') (A')
                 (A') (A') (A') (A') (A") (A") (A") (A") (A") (A")
                 (A")
       Virtual   (A") (A") (A') (A") (A') (A') (A') (A') (A') (A')
                 (A') (A') (A') (A')
 Beta  Orbitals:
       Occupied  (A") (A") (A") (A') (A') (A') (A') (A') (A') (A')
                 (A') (A') (A') (A') (A') (A") (A") (A") (A") (A")
       Virtual   (A") (A") (A") (A') (A') (A') (A') (A') (A') (A')
                 (A') (A') (A') (A') (A')
 Initial guess <Sx>= 0.0000 <Sy>= 0.0000 <Sz>= 0.5000 <S**2>= 1.1733 S= 0.6930
 Keep J ints in memory in canonical form, NReq=862793.
[...]
 Variable       Old X    -DE/DX   Delta X   Delta X   Delta X     New X
                                 (Linear)    (Quad)   (Total)
    R1        2.58912  -0.00013  -0.00012  -0.00008  -0.00020   2.58891
    R2        2.67216  -0.00009  -0.00006  -0.00005  -0.00011   2.67205
    R3        2.07275   0.00001   0.00014  -0.00007   0.00006   2.07281
    R4        2.58912  -0.00013  -0.00012  -0.00008  -0.00020   2.58891
    R5        2.67216  -0.00009  -0.00006  -0.00005  -0.00011   2.67205
    R6        2.07277   0.00001   0.00013  -0.00018  -0.00005   2.07272
    R7        2.65846  -0.00009  -0.00006  -0.00007  -0.00013   2.65833
    R8        3.19811  -0.00000   0.00003  -0.00008  -0.00005   3.19806
    R9        2.65846  -0.00009  -0.00006  -0.00007  -0.00013   2.65833
   R10        2.08137  -0.00000   0.00011  -0.00011  -0.00000   2.08137
   R11        3.19811  -0.00000   0.00003  -0.00008  -0.00005   3.19806
    A1        1.99450  -0.00000  -0.00008   0.00005  -0.00003   1.99447
    A2        2.15026   0.00001   0.00002   0.00007   0.00008   2.15034
    A3        2.13843  -0.00001   0.00006  -0.00011  -0.00005   2.13837
    A4        2.26622   0.00003   0.00016  -0.00003   0.00013   2.26634
    A5        1.99450  -0.00000  -0.00008   0.00005  -0.00003   1.99447
    A6        2.15026   0.00001   0.00002   0.00007   0.00008   2.15034
    A7        2.13843  -0.00001   0.00006  -0.00012  -0.00005   2.13837
    A8        2.10432  -0.00002  -0.00002  -0.00008  -0.00011   2.10421
    A9        2.08980  -0.00001   0.00005  -0.00009  -0.00004   2.08976
   A10        2.08906   0.00004  -0.00003   0.00018   0.00015   2.08921
   A11        2.10252   0.00002   0.00005   0.00010   0.00015   2.10267
   A12        2.09033  -0.00001  -0.00003  -0.00005  -0.00007   2.09026
   A13        2.09033  -0.00001  -0.00003  -0.00005  -0.00007   2.09026
   A14        2.10432  -0.00002  -0.00003  -0.00008  -0.00011   2.10421
   A15        2.08980  -0.00001   0.00005  -0.00009  -0.00004   2.08976
   A16        2.08906   0.00004  -0.00003   0.00018   0.00015   2.08921
    D1       -0.00000  -0.00000   0.00000  -0.00000   0.00000   0.00000
    D2        3.14159   0.00000   0.00000   0.00000   0.00000   3.14159
    D3        0.00000   0.00000   0.00000   0.00000  -0.00000   0.00000
    D4        3.14159   0.00000   0.00000   0.00000   0.00000   3.14159
    D5        3.14159  -0.00000   0.00000  -0.00000   0.00000   3.14159
    D6       -0.00000  -0.00000   0.00000  -0.00000   0.00000   0.00000
    D7        0.00000  -0.00000   0.00000  -0.00000  -0.00000   0.00000
    D8        3.14159  -0.00000   0.00000  -0.00000   0.00000   3.14159
    D9       -0.00000   0.00000   0.00000   0.00000   0.00000   0.00000
   D10        3.14159  -0.00000   0.00000  -0.00000   0.00000   3.14159
   D11        3.14159   0.00000   0.00000   0.00000   0.00000   3.14159
   D12        0.00000   0.00000   0.00000   0.00000  -0.00000   0.00000
   D13        0.00000  -0.00000   0.00000  -0.00000   0.00000   0.00000
   D14        3.14159  -0.00000   0.00000  -0.00000   0.00000   3.14159
   D15        3.14159   0.00000   0.00000   0.00000   0.00000   3.14159
   D16        0.00000  -0.00000   0.00000  -0.00000   0.00000   0.00000
   D17       -0.00000  -0.00000   0.00000  -0.00000   0.00000   0.00000
   D18        3.14159  -0.00000   0.00000  -0.00000   0.00000   3.14159
   D19        3.14159   0.00000   0.00000   0.00000   0.00000   3.14159
   D20        0.00000   0.00000   0.00000   0.00000   0.00000   0.00000
         Item               Value     Threshold  Converged?
 Maximum Force            0.000134     0.000450     YES
 RMS     Force            0.000039     0.000300     YES
 Maximum Displacement     0.000354     0.001800     YES
 RMS     Displacement     0.000098     0.001200     YES
 Predicted change in Energy=-6.240287D-08
 Optimization completed.
    -- Stationary point found.
                           ----------------------------
                           !   Optimized Parameters   !
                           ! (Angstroms and Degrees)  !
 --------------------------                            --------------------------
 ! Name  Definition              Value          Derivative Info.                !
 --------------------------------------------------------------------------------
 ! R1    R(1,2)                  1.3701         -DE/DX =   -0.0001              !
 ! R2    R(1,6)                  1.414          -DE/DX =   -0.0001              !
 ! R3    R(1,8)                  1.0969         -DE/DX =    0.0                 !
 ! R4    R(2,3)                  1.3701         -DE/DX =   -0.0001              !
 ! R5    R(3,4)                  1.414          -DE/DX =   -0.0001              !
 ! R6    R(3,11)                 1.0969         -DE/DX =    0.0                 !
 ! R7    R(4,5)                  1.4068         -DE/DX =   -0.0001              !
 ! R8    R(4,9)                  1.6924         -DE/DX =    0.0                 !
 ! R9    R(5,6)                  1.4068         -DE/DX =   -0.0001              !
 ! R10   R(5,10)                 1.1014         -DE/DX =    0.0                 !
 ! R11   R(6,7)                  1.6924         -DE/DX =    0.0                 !
 ! A1    A(2,1,6)              114.2764         -DE/DX =    0.0                 !
 ! A2    A(2,1,8)              123.2008         -DE/DX =    0.0                 !
 ! A3    A(6,1,8)              122.5228         -DE/DX =    0.0                 !
 ! A4    A(1,2,3)              129.8446         -DE/DX =    0.0                 !
 ! A5    A(2,3,4)              114.2764         -DE/DX =    0.0                 !
 ! A6    A(2,3,11)             123.2008         -DE/DX =    0.0                 !
 ! A7    A(4,3,11)             122.5228         -DE/DX =    0.0                 !
 ! A8    A(3,4,5)              120.5685         -DE/DX =    0.0                 !
 ! A9    A(3,4,9)              119.737          -DE/DX =    0.0                 !
 ! A10   A(5,4,9)              119.6946         -DE/DX =    0.0                 !
 ! A11   A(4,5,6)              120.4657         -DE/DX =    0.0                 !
 ! A12   A(4,5,10)             119.7672         -DE/DX =    0.0                 !
 ! A13   A(6,5,10)             119.7671         -DE/DX =    0.0                 !
 ! A14   A(1,6,5)              120.5685         -DE/DX =    0.0                 !
 ! A15   A(1,6,7)              119.737          -DE/DX =    0.0                 !
 ! A16   A(5,6,7)              119.6946         -DE/DX =    0.0                 !
 ! D1    D(6,1,2,3)              0.0            -DE/DX =    0.0                 !
 ! D2    D(8,1,2,3)            180.0            -DE/DX =    0.0                 !
 ! D3    D(2,1,6,5)              0.0            -DE/DX =    0.0                 !
 ! D4    D(2,1,6,7)            180.0            -DE/DX =    0.0                 !
 ! D5    D(8,1,6,5)            180.0            -DE/DX =    0.0                 !
 ! D6    D(8,1,6,7)              0.0            -DE/DX =    0.0                 !
 ! D7    D(1,2,3,4)              0.0            -DE/DX =    0.0                 !
 ! D8    D(1,2,3,11)           180.0            -DE/DX =    0.0                 !
 ! D9    D(2,3,4,5)              0.0            -DE/DX =    0.0                 !
 ! D10   D(2,3,4,9)            180.0            -DE/DX =    0.0                 !
 ! D11   D(11,3,4,5)           180.0            -DE/DX =    0.0                 !
 ! D12   D(11,3,4,9)             0.0            -DE/DX =    0.0                 !
 ! D13   D(3,4,5,6)              0.0            -DE/DX =    0.0                 !
 ! D14   D(3,4,5,10)           180.0            -DE/DX =    0.0                 !
 ! D15   D(9,4,5,6)            180.0            -DE/DX =    0.0                 !
 ! D16   D(9,4,5,10)             0.0            -DE/DX =    0.0                 !
 ! D17   D(4,5,6,1)              0.0            -DE/DX =    0.0                 !
 ! D18   D(4,5,6,7)            180.0            -DE/DX =    0.0                 !
 ! D19   D(10,5,6,1)           180.0            -DE/DX =    0.0                 !
 ! D20   D(10,5,6,7)             0.0            -DE/DX =    0.0                 !
 --------------------------------------------------------------------------------
 GradGradGradGradGradGradGradGradGradGradGradGradGradGradGradGradGradGrad

                          Input orientation:                          
 ---------------------------------------------------------------------
 Center     Atomic      Atomic             Coordinates (Angstroms)
 Number     Number       Type             X           Y           Z
 ---------------------------------------------------------------------
      1          6           0       -3.232835    0.204564   -0.000000
      2          6           0       -2.008302    0.819136    0.000000
      3          6           0       -0.751875    0.272719    0.000000
      4          6           0       -0.732817   -1.141197    0.000000
      5          6           0       -1.934348   -1.872909    0.000000
      6          6           0       -3.174239   -1.208266   -0.000000
      7         17           0       -4.607694   -2.107886   -0.000000
      8          1           0       -4.181316    0.755439   -0.000000
      9         17           0        0.747866   -1.960761    0.000000
     10          1           0       -1.904102   -2.973910    0.000000
     11          1           0        0.164942    0.874842    0.000000
 ---------------------------------------------------------------------
                    Distance matrix (angstroms):
                    1          2          3          4          5
     1  C    0.000000
     2  C    1.370102   0.000000
     3  C    2.481895   1.370102   0.000000
     4  C    2.839218   2.338753   1.414044   0.000000
     5  C    2.449890   2.693061   2.449890   1.406798   0.000000
     6  C    1.414044   2.338753   2.839218   2.442343   1.406798
     7  Cl   2.690290   3.914625   4.531513   3.993640   2.683653
     8  H    1.096850   2.173947   3.463247   3.935654   3.457901
     9  Cl   4.531513   3.914626   2.690290   1.692368   2.683653
    10  H    3.445029   3.794477   3.445029   2.175028   1.101416
    11  H    3.463258   2.173958   1.096862   2.206895   3.457912
                    6          7          8          9         10
     6  C    0.000000
     7  Cl   1.692368   0.000000
     8  H    2.206885   2.894896   0.000000
     9  Cl   3.993640   5.357581   5.628018   0.000000
    10  H    2.175028   2.838909   4.369639   2.838910   0.000000
    11  H    3.935666   5.628029   4.347898   2.894901   4.369650
                   11
    11  H    0.000000
 Stoichiometry    C6H3Cl2(2)
 Framework group  CS[SG(C6H3Cl2)]
 Deg. of freedom    19
 Full point group                 CS      NOp   2
 Largest Abelian subgroup         CS      NOp   2
 Largest concise Abelian subgroup C1      NOp   1
                         Standard orientation:                         
 ---------------------------------------------------------------------
 Center     Atomic      Atomic             Coordinates (Angstroms)
 Number     Number       Type             X           Y           Z
 ---------------------------------------------------------------------
      1          6           0       -1.445575   -1.240948    0.000000
      2          6           0       -2.026288   -0.000000    0.000000
      3          6           0       -1.445575    1.240948   -0.000000
      4          6           0       -0.031669    1.221171   -0.000000
      5          6           0        0.666773   -0.000000   -0.000000
      6          6           0       -0.031669   -1.221172    0.000000
      7         17           0        0.828247   -2.678791    0.000000
      8          1           0       -2.022289   -2.173944    0.000000
      9         17           0        0.828248    2.678790   -0.000000
     10          1           0        1.768188   -0.000001   -0.000000
     11          1           0       -2.022294    2.173954   -0.000000
 ---------------------------------------------------------------------
 Rotational constants (GHZ):           3.0806426           0.8651642           0.6754668

 **********************************************************************

            Population analysis using the SCF Density.

 **********************************************************************

 Orbital symmetries:
 Alpha Orbitals:
       Occupied  (A') (A') (A') (A') (A') (A') (A') (A') (A') (A')
                 (A') (A") (A') (A") (A') (A') (A") (A') (A') (A")
                 (A")
       Virtual   (A") (A") (A') (A') (A") (A') (A') (A') (A') (A')
                 (A') (A') (A') (A')
 Beta  Orbitals:
       Occupied  (A') (A') (A') (A') (A') (A') (A') (A') (A') (A')
                 (A') (A") (A') (A") (A') (A') (A") (A') (A") (A")
       Virtual   (A") (A') (A") (A') (A') (A") (A') (A') (A') (A')
                 (A') (A') (A') (A') (A')
 The electronic state is 2-A'.
 Alpha  occ. eigenvalues --   -1.47371  -1.40591  -1.37907  -1.16694  -1.15453
 Alpha  occ. eigenvalues --   -0.88525  -0.86320  -0.67758  -0.62948  -0.62316
 Alpha  occ. eigenvalues --   -0.57613  -0.55896  -0.51754  -0.50784  -0.49368
 Alpha  occ. eigenvalues --   -0.46620  -0.45727  -0.44315  -0.39540  -0.38126
 Alpha  occ. eigenvalues --   -0.36453
 Alpha virt. eigenvalues --   -0.00467   0.00167   0.02625   0.04044   0.07926
 Alpha virt. eigenvalues --    0.12698   0.12795   0.12881   0.14533   0.15151
 Alpha virt. eigenvalues --    0.17008   0.17132   0.18246   0.18593
  Beta  occ. eigenvalues --   -1.46664  -1.40317  -1.37565  -1.16813  -1.14422
  Beta  occ. eigenvalues --   -0.88130  -0.83882  -0.67060  -0.62043  -0.61777
  Beta  occ. eigenvalues --   -0.57278  -0.55154  -0.50973  -0.49704  -0.49065
  Beta  occ. eigenvalues --   -0.45843  -0.44948  -0.44296  -0.38081  -0.37293
  Beta virt. eigenvalues --   -0.00796  -0.00742   0.01380   0.04448   0.05364
  Beta virt. eigenvalues --    0.08575   0.12049   0.12758   0.13572   0.14654
  Beta virt. eigenvalues --    0.15278   0.16917   0.17030   0.18827   0.20089
          Condensed to atoms (all electrons):
               1          2          3          4          5          6
     1  C    4.112519   0.000000   0.000000   0.000000   0.000000   0.000000
     2  C    0.000000   4.055960   0.000000   0.000000   0.000000   0.000000
     3  C    0.000000   0.000000   4.112521   0.000000   0.000000   0.000000
     4  C    0.000000   0.000000   0.000000   4.056589   0.000000   0.000000
     5  C    0.000000   0.000000   0.000000   0.000000   4.132320   0.000000
     6  C    0.000000   0.000000   0.000000   0.000000   0.000000   4.056589
     7  Cl   0.000000   0.000000   0.000000   0.000000   0.000000   0.000000
     8  H    0.000000   0.000000   0.000000   0.000000   0.000000   0.000000
     9  Cl   0.000000   0.000000   0.000000   0.000000   0.000000   0.000000
    10  H    0.000000   0.000000   0.000000   0.000000   0.000000   0.000000
    11  H    0.000000   0.000000   0.000000   0.000000   0.000000   0.000000
               7          8          9         10         11
     1  C    0.000000   0.000000   0.000000   0.000000   0.000000
     2  C    0.000000   0.000000   0.000000   0.000000   0.000000
     3  C    0.000000   0.000000   0.000000   0.000000   0.000000
     4  C    0.000000   0.000000   0.000000   0.000000   0.000000
     5  C    0.000000   0.000000   0.000000   0.000000   0.000000
     6  C    0.000000   0.000000   0.000000   0.000000   0.000000
     7  Cl   6.991681   0.000000   0.000000   0.000000   0.000000
     8  H    0.000000   0.827062   0.000000   0.000000   0.000000
     9  Cl   0.000000   0.000000   6.991681   0.000000   0.000000
    10  H    0.000000   0.000000   0.000000   0.836019   0.000000
    11  H    0.000000   0.000000   0.000000   0.000000   0.827060
          Atomic-Atomic Spin Densities.
               1          2          3          4          5          6
     1  C   -0.498967   0.000000   0.000000   0.000000   0.000000   0.000000
     2  C    0.000000   1.370747   0.000000   0.000000   0.000000   0.000000
     3  C    0.000000   0.000000  -0.498968   0.000000   0.000000   0.000000
     4  C    0.000000   0.000000   0.000000   0.486935   0.000000   0.000000
     5  C    0.000000   0.000000   0.000000   0.000000  -0.469209   0.000000
     6  C    0.000000   0.000000   0.000000   0.000000   0.000000   0.486935
     7  Cl   0.000000   0.000000   0.000000   0.000000   0.000000   0.000000
     8  H    0.000000   0.000000   0.000000   0.000000   0.000000   0.000000
     9  Cl   0.000000   0.000000   0.000000   0.000000   0.000000   0.000000
    10  H    0.000000   0.000000   0.000000   0.000000   0.000000   0.000000
    11  H    0.000000   0.000000   0.000000   0.000000   0.000000   0.000000
               7          8          9         10         11
     1  C    0.000000   0.000000   0.000000   0.000000   0.000000
     2  C    0.000000   0.000000   0.000000   0.000000   0.000000
     3  C    0.000000   0.000000   0.000000   0.000000   0.000000
     4  C    0.000000   0.000000   0.000000   0.000000   0.000000
     5  C    0.000000   0.000000   0.000000   0.000000   0.000000
     6  C    0.000000   0.000000   0.000000   0.000000   0.000000
     7  Cl   0.014547   0.000000   0.000000   0.000000   0.000000
     8  H    0.000000   0.033007   0.000000   0.000000   0.000000
     9  Cl   0.000000   0.000000   0.014546   0.000000   0.000000
    10  H    0.000000   0.000000   0.000000   0.027418   0.000000
    11  H    0.000000   0.000000   0.000000   0.000000   0.033008
 Mulliken charges and spin densities:
               1          2
     1  C   -0.112519  -0.498967
     2  C   -0.055960   1.370747
     3  C   -0.112521  -0.498968
     4  C   -0.056589   0.486935
     5  C   -0.132320  -0.469209
     6  C   -0.056589   0.486935
     7  Cl   0.008319   0.014547
     8  H    0.172938   0.033007
     9  Cl   0.008319   0.014546
    10  H    0.163981   0.027418
    11  H    0.172940   0.033008
 Sum of Mulliken charges =  -0.00000   1.00000
 Mulliken charges and spin densities with hydrogens summed into heavy atoms:
               1          2
     1  C    0.060419  -0.465960
     2  C   -0.055960   1.370747
     3  C    0.060420  -0.465960
     4  C   -0.056589   0.486935
     5  C    0.031661  -0.441791
     6  C   -0.056589   0.486935
     7  Cl   0.008319   0.014547
     9  Cl   0.008319   0.014546
 Charge=              0.0000 electrons
 Dipole moment (field-independent basis, Debye):
    X=             -0.0853    Y=              0.0000    Z=              0.0000  Tot=              0.0853
 N-N= 1.963937132634D+02 E-N=-2.717066833126D+02  KE=-9.055713682399D+01
 Symmetry A'   KE=-7.016845780528D+01
 Symmetry A"   KE=-2.038867901871D+01
 Symmetry A'   SP= 1.000000000000D+00
 Symmetry A"   SP= 1.498801083244D-15
 1\1\GINC-SH02-01N30\FOpt\UAM1\ZDO\C6H3Cl2(2)\JLAPIER\09-Dec-2025\0\\# 
 opt am1 SCF=XQC\\Neutral Radical (removed 5) 13_\\0,2\C,-3.2328345485,
 0.2045635929,0.\C,-2.0083020402,0.8191357651,0.\C,-0.7518754033,0.2727
 189833,0.\C,-0.7328170802,-1.1411969218,0.\C,-1.9343479639,-1.87290946
 8,0.\C,-3.1742387597,-1.2082658219,0.\Cl,-4.6076937821,-2.1078856987,0
 .\H,-4.1813161217,0.7554387313,0.\Cl,0.74786643,-1.9607614208,0.\H,-1.
 9041023658,-2.9739100462,0.\H,0.1649416355,0.8748423048,0.\\Version=ES
 64L-G16RevB.01\State=2-A'\HF=0.0948761\S2=1.247183\S2-1=0.\S2A=0.96518
 9\RMSD=9.577e-09\RMSF=5.091e-05\Dipole=-0.000916,0.0335283,0.\PG=CS [S
 G(C6H3Cl2)]\\@


 KNOWLEDGE IS CHIMERA - FOR BEYOND IT LIES OTHER KNOWLEDGE,
 AND THE INCOMPLETENESS OF WHAT IS KNOWN RENDERS THE KNOWING FALSE.
     -- THE THOMAS COVENANT CHRONICLES
 Job cpu time:       0 days  0 hours  0 minutes 11.4 seconds.
 Elapsed time:       0 days  0 hours  0 minutes 33.6 seconds.
 File lengths (MBytes):  RWF=     10 Int=      0 D2E=      0 Chk=      2 Scr=      1
 Normal termination of Gaussian 16 at Tue Dec  9 08:35:20 2025.
