 Entering Gaussian System, Link 0=g16
 Initial command:
 /share/software/user/restricted/gaussian/g16.B01/l1.exe "/home/users/jlapier/Chloroaromatics/Gau-23496.inp" -scrdir="/home/users/jlapier/Chloroaromatics/"
 Entering Link 1 = /share/software/user/restricted/gaussian/g16.B01/l1.exe PID=     23497.
  
 Copyright (c) 1988-2017, Gaussian, Inc.  All Rights Reserved.
  
 This is part of the Gaussian(R) 16 program.  It is based on
 the Gaussian(R) 09 system (copyright 2009, Gaussian, Inc.),
 the Gaussian(R) 03 system (copyright 2003, Gaussian, Inc.),
 the Gaussian(R) 98 system (copyright 1998, Gaussian, Inc.),
 the Gaussian(R) 94 system (copyright 1995, Gaussian, Inc.),
 the Gaussian 92(TM) system (copyright 1992, Gaussian, Inc.),
 the Gaussian 90(TM) system (copyright 1990, Gaussian, Inc.),
 the Gaussian 88(TM) system (copyright 1988, Gaussian, Inc.),
 the Gaussian 86(TM) system (copyright 1986, Carnegie Mellon
 University), and the Gaussian 82(TM) system (copyright 1983,
 Carnegie Mellon University). Gaussian is a federally registered
 trademark of Gaussian, Inc.
  
 This software contains proprietary and confidential information,
 including trade secrets, belonging to Gaussian, Inc.
  
 This software is provided under written license and may be
 used, copied, transmitted, or stored only in accord with that
 written license.
  
 The following legend is applicable only to US Government
 contracts under FAR:
  
                    RESTRICTED RIGHTS LEGEND
  
 Use, reproduction and disclosure by the US Government is
 subject to restrictions as set forth in subparagraphs (a)
 and (c) of the Commercial Computer Software - Restricted
 Rights clause in FAR 52.227-19.
  
 Gaussian, Inc.
 340 Quinnipiac St., Bldg. 40, Wallingford CT 06492
  
  
 ---------------------------------------------------------------
 Warning -- This program may not be used in any manner that
 competes with the business of Gaussian, Inc. or will provide
 assistance to any competitor of Gaussian, Inc.  The licensee
 of this program is prohibited from giving any competitor of
 Gaussian, Inc. access to this program.  By using this program,
 the user acknowledges that Gaussian, Inc. is engaged in the
 business of creating and licensing software in the field of
 computational chemistry and represents and warrants to the
 licensee that it is not a competitor of Gaussian, Inc. and that
 it will not use this program in any manner prohibited above.
 ---------------------------------------------------------------
  

 Cite this work as:
 Gaussian 16, Revision B.01,
 M. J. Frisch, G. W. Trucks, H. B. Schlegel, G. E. Scuseria, 
 M. A. Robb, J. R. Cheeseman, G. Scalmani, V. Barone, 
 G. A. Petersson, H. Nakatsuji, X. Li, M. Caricato, A. V. Marenich, 
 J. Bloino, B. G. Janesko, R. Gomperts, B. Mennucci, H. P. Hratchian, 
 J. V. Ortiz, A. F. Izmaylov, J. L. Sonnenberg, D. Williams-Young, 
 F. Ding, F. Lipparini, F. Egidi, J. Goings, B. Peng, A. Petrone, 
 T. Henderson, D. Ranasinghe, V. G. Zakrzewski, J. Gao, N. Rega, 
 G. Zheng, W. Liang, M. Hada, M. Ehara, K. Toyota, R. Fukuda, 
 J. Hasegawa, M. Ishida, T. Nakajima, Y. Honda, O. Kitao, H. Nakai, 
 T. Vreven, K. Throssell, J. A. Montgomery, Jr., J. E. Peralta, 
 F. Ogliaro, M. J. Bearpark, J. J. Heyd, E. N. Brothers, K. N. Kudin, 
 V. N. Staroverov, T. A. Keith, R. Kobayashi, J. Normand, 
 K. Raghavachari, A. P. Rendell, J. C. Burant, S. S. Iyengar, 
 J. Tomasi, M. Cossi, J. M. Millam, M. Klene, C. Adamo, R. Cammi, 
 J. W. Ochterski, R. L. Martin, K. Morokuma, O. Farkas, 
 J. B. Foresman, and D. J. Fox, Gaussian, Inc., Wallingford CT, 2016.
 
 ******************************************
 Gaussian 16:  ES64L-G16RevB.01 20-Dec-2017
                 9-Dec-2025 
 ******************************************
 %mem=2GB
 %nprocshare=1
 Will use up to    1 processors via shared memory.
 %chk=geometry_chks/13_ClBzNeutralRadical.chk
 -----------------
 # opt am1 SCF=XQC
 -----------------
 1/18=20,19=15,26=1,38=1/1,3;
 2/9=110,12=2,17=6,18=5,40=1/2;
 3/5=2,25=1,41=700000,71=1/1,2,3;
 4/35=1/1;
 5/5=2,8=3,13=1,35=1,38=5/2,8;
 6/7=2,8=2,9=2,10=2,28=1/1;
 7//1,2,3,16;
 1/18=20,19=15,26=1/3(2);
 2/9=110/2;
 99//99;
 2/9=110/2;
 3/5=2,25=1,41=700000,71=1,135=20/1,2,3;
 4/5=5,16=3,35=1/1;
 5/5=2,8=3,13=1,35=1,38=5/2,8;
 7//1,2,3,16;
 1/18=20,19=15,26=1/3(-5);
 2/9=110/2;
 6/7=2,8=2,9=2,10=2,19=2,28=1/1;
 99/9=1/99;
 -------------------------------
 Neutral Radical (removed 5) 13_
 -------------------------------
 Symbolic Z-matrix:
 Charge =  0 Multiplicity = 2
 C                    -3.20928   0.19943   0. 
 C                    -2.0115    0.93555   0. 
 C                    -0.77511   0.2663    0. 
 C                    -0.7365   -1.13907   0. 
 C                    -1.93429  -1.87519   0. 
 C                    -3.17067  -1.20594   0. 
 Cl                   -4.67483  -2.13035   0. 
 H                    -4.76193   1.03987   0. 
 Cl                   -2.05998   2.7004    0. 
 H                     0.72905   1.19071   0. 
 H                    -1.8858   -3.64003   0. 
 
 Add virtual bond connecting atoms H11        and C5         Dist= 3.34D+00.
 Add virtual bond connecting atoms H10        and C3         Dist= 3.34D+00.
 Add virtual bond connecting atoms H8         and C1         Dist= 3.34D+00.

 GradGradGradGradGradGradGradGradGradGradGradGradGradGradGradGradGradGrad
 Berny optimization.
 Initialization pass.
                           ----------------------------
                           !    Initial Parameters    !
                           ! (Angstroms and Degrees)  !
 --------------------------                            --------------------------
 ! Name  Definition              Value          Derivative Info.                !
 --------------------------------------------------------------------------------
 ! R1    R(1,2)                  1.4059         estimate D2E/DX2                !
 ! R2    R(1,6)                  1.4059         estimate D2E/DX2                !
 ! R3    R(1,8)                  1.7655         estimate D2E/DX2                !
 ! R4    R(2,3)                  1.4059         estimate D2E/DX2                !
 ! R5    R(2,9)                  1.7655         estimate D2E/DX2                !
 ! R6    R(3,4)                  1.4059         estimate D2E/DX2                !
 ! R7    R(3,10)                 1.7655         estimate D2E/DX2                !
 ! R8    R(4,5)                  1.4059         estimate D2E/DX2                !
 ! R9    R(5,6)                  1.4059         estimate D2E/DX2                !
 ! R10   R(5,11)                 1.7655         estimate D2E/DX2                !
 ! R11   R(6,7)                  1.7655         estimate D2E/DX2                !
 ! A1    A(2,1,6)              119.9999         estimate D2E/DX2                !
 ! A2    A(2,1,8)              119.9999         estimate D2E/DX2                !
 ! A3    A(6,1,8)              120.0001         estimate D2E/DX2                !
 ! A4    A(1,2,3)              120.0            estimate D2E/DX2                !
 ! A5    A(1,2,9)              120.0001         estimate D2E/DX2                !
 ! A6    A(3,2,9)              119.9999         estimate D2E/DX2                !
 ! A7    A(2,3,4)              120.0001         estimate D2E/DX2                !
 ! A8    A(2,3,10)             120.0            estimate D2E/DX2                !
 ! A9    A(4,3,10)             119.9999         estimate D2E/DX2                !
 ! A10   A(3,4,5)              119.9997         estimate D2E/DX2                !
 ! A11   A(4,5,6)              120.0            estimate D2E/DX2                !
 ! A12   A(4,5,11)             119.9996         estimate D2E/DX2                !
 ! A13   A(6,5,11)             120.0004         estimate D2E/DX2                !
 ! A14   A(1,6,5)              120.0003         estimate D2E/DX2                !
 ! A15   A(1,6,7)              119.9999         estimate D2E/DX2                !
 ! A16   A(5,6,7)              119.9998         estimate D2E/DX2                !
 ! D1    D(6,1,2,3)              0.0            estimate D2E/DX2                !
 ! D2    D(6,1,2,9)            180.0            estimate D2E/DX2                !
 ! D3    D(8,1,2,3)            180.0            estimate D2E/DX2                !
 ! D4    D(8,1,2,9)              0.0            estimate D2E/DX2                !
 ! D5    D(2,1,6,5)              0.0            estimate D2E/DX2                !
 ! D6    D(2,1,6,7)            180.0            estimate D2E/DX2                !
 ! D7    D(8,1,6,5)            180.0            estimate D2E/DX2                !
 ! D8    D(8,1,6,7)              0.0            estimate D2E/DX2                !
 ! D9    D(1,2,3,4)              0.0            estimate D2E/DX2                !
 ! D10   D(1,2,3,10)           180.0            estimate D2E/DX2                !
 ! D11   D(9,2,3,4)            180.0            estimate D2E/DX2                !
 ! D12   D(9,2,3,10)             0.0            estimate D2E/DX2                !
 ! D13   D(2,3,4,5)              0.0            estimate D2E/DX2                !
 ! D14   D(10,3,4,5)           180.0            estimate D2E/DX2                !
 ! D15   D(3,4,5,6)              0.0            estimate D2E/DX2                !
 ! D16   D(3,4,5,11)           180.0            estimate D2E/DX2                !
 ! D17   D(4,5,6,1)              0.0            estimate D2E/DX2                !
 ! D18   D(4,5,6,7)            180.0            estimate D2E/DX2                !
 ! D19   D(11,5,6,1)           180.0            estimate D2E/DX2                !
 ! D20   D(11,5,6,7)             0.0            estimate D2E/DX2                !
 --------------------------------------------------------------------------------
 Trust Radius=3.00D-01 FncErr=1.00D-07 GrdErr=1.00D-07 EigMax=2.50D+02 EigMin=1.00D-04
 Number of steps in this run=     57 maximum allowed number of steps=    100.
 GradGradGradGradGradGradGradGradGradGradGradGradGradGradGradGradGradGrad

                          Input orientation:                          
 ---------------------------------------------------------------------
 Center     Atomic      Atomic             Coordinates (Angstroms)
 Number     Number       Type             X           Y           Z
 ---------------------------------------------------------------------
      1          6           0       -3.209280    0.199430    0.000000
      2          6           0       -2.011500    0.935550    0.000000
      3          6           0       -0.775110    0.266300    0.000000
      4          6           0       -0.736500   -1.139070    0.000000
      5          6           0       -1.934290   -1.875190    0.000000
      6          6           0       -3.170670   -1.205940    0.000000
      7         17           0       -4.674830   -2.130350    0.000000
      8          1           0       -4.761930    1.039870    0.000000
      9         17           0       -2.059980    2.700400    0.000000
     10          1           0        0.729050    1.190710    0.000000
     11          1           0       -1.885800   -3.640030    0.000000
 ---------------------------------------------------------------------
                    Distance matrix (angstroms):
                    1          2          3          4          5
     1  C    0.000000
     2  C    1.405898   0.000000
     3  C    2.435088   1.405900   0.000000
     4  C    2.811801   2.435092   1.405900   0.000000
     5  C    2.435087   2.811800   2.435093   1.405907   0.000000
     6  C    1.405900   2.435088   2.811796   2.435088   1.405892
     7  Cl   2.752401   4.061166   4.577308   4.061167   2.752393
     8  H    1.765520   2.752408   4.061175   4.577321   4.061173
     9  Cl   2.752406   1.765516   2.752405   4.061173   4.577316
    10  H    4.061167   2.752403   1.765512   2.752401   4.061173
    11  H    4.061164   4.577306   4.061163   2.752397   1.765506
                    6          7          8          9         10
     6  C    0.000000
     7  Cl   1.765512   0.000000
     8  H    2.752412   3.171416   0.000000
     9  Cl   4.061173   5.493049   3.171418   0.000000
    10  H    4.577308   6.342819   5.493051   3.171412   0.000000
    11  H    2.752396   3.171407   5.493049   6.342822   5.493040
                   11
    11  H    0.000000
 Stoichiometry    C6H3Cl2(2)
 Framework group  CS[SG(C6H3Cl2)]
 Deg. of freedom    19
 Full point group                 CS      NOp   2
 Largest Abelian subgroup         CS      NOp   2
 Largest concise Abelian subgroup C1      NOp   1
                         Standard orientation:                         
 ---------------------------------------------------------------------
 Center     Atomic      Atomic             Coordinates (Angstroms)
 Number     Number       Type             X           Y           Z
 ---------------------------------------------------------------------
      1          6           0       -0.000001    0.667352    0.000000
      2          6           0        1.217543   -0.035597    0.000000
      3          6           0        1.217543   -1.441497    0.000000
      4          6           0       -0.000001   -2.144449    0.000000
      5          6           0       -1.217550   -1.441492    0.000000
      6          6           0       -1.217545   -0.035601    0.000000
      7         17           0       -2.746523    0.847155    0.000000
      8          1           0       -0.000000    2.432872    0.000000
      9         17           0        2.746526    0.847159    0.000000
     10          1           0        2.746521   -2.324253    0.000000
     11          1           0       -2.746519   -2.324252    0.000000
 ---------------------------------------------------------------------
 Rotational constants (GHZ):           2.8492399           0.8231885           0.6386677
 Standard basis: VSTO-6G (5D, 7F)
 There are    27 symmetry adapted cartesian basis functions of A'  symmetry.
 There are     8 symmetry adapted cartesian basis functions of A"  symmetry.
 There are    27 symmetry adapted basis functions of A'  symmetry.
 There are     8 symmetry adapted basis functions of A"  symmetry.
    35 basis functions,   210 primitive gaussians,    35 cartesian basis functions
    21 alpha electrons       20 beta electrons
       nuclear repulsion energy       190.9941391445 Hartrees.
 Integral buffers will be    131072 words long.
 Regular integral format.
 Two-electron integral symmetry is turned off.
 Do NDO integrals.
 One-electron integrals computed using PRISM.
 NBasis=    35 RedAO= T EigKep=  1.00D+00  NBF=    27     8
 NBsUse=    35 1.00D-06 EigRej= -1.00D+00 NBFU=    27     8
 Simple Huckel Guess.
 Initial guess orbital symmetries:
 Alpha Orbitals:
       Occupied  (A') (A') (A') (A') (A') (A') (A') (A') (A') (A")
                 (A') (A') (A') (A") (A') (A") (A') (A') (A") (A")
                 (A')
       Virtual   (A") (A') (A") (A') (A') (A") (A') (A') (A') (A')
                 (A') (A') (A') (A')
 Beta  Orbitals:
       Occupied  (A') (A') (A') (A') (A') (A') (A') (A') (A') (A")
                 (A') (A') (A') (A") (A') (A") (A') (A') (A") (A")
       Virtual   (A') (A") (A') (A") (A') (A') (A") (A') (A') (A')
                 (A') (A') (A') (A') (A')
 The electronic state of the initial guess is 2-A'.
 Initial guess <Sx>= 0.0000 <Sy>= 0.0000 <Sz>= 0.5000 <S**2>= 0.7500 S= 0.5000
 Keep J ints in memory in canonical form, NReq=862793.
 Overlap will be assumed to be unity.
 Requested convergence on RMS density matrix=1.00D-08 within  32 cycles.
 Requested convergence on MAX density matrix=1.00D-06.
 Requested convergence on             energy=1.00D-06.
 No special actions if energy rises.
 Fock symm off for IB=2 I1=    1 I=   28 J=   23 Cut=1.00D-07 Err=3.51D-03
 Fock matrix is not symmetric: symmetry in diagonalization turned off.
 Rare condition: small coef for last iteration:  0.000D+00
 Rare condition: small coef for last iteration:  0.000D+00
 Rare condition: small coef for last iteration:  0.000D+00
 Rare condition: small coef for last iteration:  0.000D+00
 Rare condition: small coef for last iteration:  0.000D+00
 Rare condition: small coef for last iteration:  0.000D+00
 Rare condition: small coef for last iteration:  0.000D+00
 Rare condition: small coef for last iteration:  0.000D+00
 Rare condition: small coef for last iteration:  0.000D+00
 Rare condition: small coef for last iteration:  0.000D+00
 Rare condition: small coef for last iteration:  0.000D+00
 Rare condition: small coef for last iteration:  0.000D+00
 Rare condition: small coef for last iteration:  0.000D+00
 Rare condition: small coef for last iteration:  0.000D+00
 Rare condition: small coef for last iteration:  0.000D+00
 Rare condition: small coef for last iteration:  0.000D+00
 >>>>>>>>>> Convergence criterion not met.
 SCF Done:  E(UAM1) =  0.478109957430     A.U. after   33 cycles
            NFock= 32  Conv=0.28D-03     -V/T= 1.0053
 <Sx>= 0.0000 <Sy>= 0.0000 <Sz>= 0.5000 <S**2>= 1.1458 S= 0.6815
 <L.S>=  0.00000000000    
 Annihilation of the first spin contaminant:
 S**2 before annihilation     1.1458,   after     0.9275
 Keep J ints in memory in canonical form, NReq=863193.
 LinEq1:  Iter=  0 NonCon=     1 RMS=9.34D-05 Max=8.96D-04 NDo=     1
 AX will form     1 AO Fock derivatives at one time.
 LinEq1:  Iter=  1 NonCon=     1 RMS=3.16D-05 Max=2.57D-04 NDo=     1
 LinEq1:  Iter=  2 NonCon=     1 RMS=5.63D-06 Max=5.85D-05 NDo=     1
 LinEq1:  Iter=  3 NonCon=     1 RMS=1.33D-06 Max=1.71D-05 NDo=     1
 LinEq1:  Iter=  4 NonCon=     1 RMS=4.50D-07 Max=5.52D-06 NDo=     1
 LinEq1:  Iter=  5 NonCon=     1 RMS=1.29D-07 Max=1.50D-06 NDo=     1
 LinEq1:  Iter=  6 NonCon=     1 RMS=2.26D-08 Max=1.44D-07 NDo=     1
 LinEq1:  Iter=  7 NonCon=     1 RMS=4.52D-09 Max=3.63D-08 NDo=     1
 LinEq1:  Iter=  8 NonCon=     0 RMS=1.01D-09 Max=8.04D-09 NDo=     1
 Linear equations converged to 2.437D-09 2.437D-08 after     8 iterations.
 Incorrect curvature in search direction -- initial direction reversed.
     Minimum is close to point  4 DX=  1.19D-01 DF= -1.44D-04 DXR=  5.62D-02 DFR=  1.51D-02 which will be used.
 Gradient too large for Newton-Raphson -- use scaled steepest descent instead.
 Gradient too large for Newton-Raphson -- use scaled steepest descent instead.
 Gradient too large for Newton-Raphson -- use scaled steepest descent instead.
 Gradient too large for Newton-Raphson -- use scaled steepest descent instead.
 Gradient too large for Newton-Raphson -- use scaled steepest descent instead.
     Minimum is close to point  2 DX= -1.51D-02 DF= -2.00D-08 DXR=  6.62D-03 DFR=  4.38D-05 which will be used.
 Gradient too large for Newton-Raphson -- use scaled steepest descent instead.
     Minimum is close to point  2 DX= -1.88D-01 DF= -3.22D-06 DXR=  9.34D-02 DFR=  8.81D-03 which will be used.
 Gradient too large for Newton-Raphson -- use scaled steepest descent instead.
 LinEq1:  Iter=  0 NonCon=     1 RMS=5.34D-04 Max=4.16D-03 NDo=     1
 LinEq1:  Iter=  1 NonCon=     1 RMS=2.01D-04 Max=1.66D-03 NDo=     1
 LinEq1:  Iter=  2 NonCon=     1 RMS=1.56D-05 Max=1.64D-04 NDo=     1
 LinEq1:  Iter=  3 NonCon=     1 RMS=5.91D-06 Max=4.92D-05 NDo=     1
 LinEq1:  Iter=  4 NonCon=     1 RMS=7.81D-07 Max=8.54D-06 NDo=     1
 LinEq1:  Iter=  5 NonCon=     1 RMS=1.44D-07 Max=1.63D-06 NDo=     1
 LinEq1:  Iter=  6 NonCon=     1 RMS=4.01D-08 Max=3.39D-07 NDo=     1
 LinEq1:  Iter=  7 NonCon=     1 RMS=6.75D-09 Max=4.82D-08 NDo=     1
 LinEq1:  Iter=  8 NonCon=     0 RMS=1.21D-09 Max=8.80D-09 NDo=     1
 Linear equations converged to 2.437D-09 2.437D-08 after     8 iterations.
     Accept linear search using points  1 and  2.
 LinEq1:  Iter=  0 NonCon=     1 RMS=1.71D-04 Max=1.71D-03 NDo=     1
 LinEq1:  Iter=  1 NonCon=     1 RMS=6.44D-05 Max=6.37D-04 NDo=     1
 LinEq1:  Iter=  2 NonCon=     1 RMS=1.02D-05 Max=8.36D-05 NDo=     1
 LinEq1:  Iter=  3 NonCon=     1 RMS=1.47D-06 Max=1.51D-05 NDo=     1
 LinEq1:  Iter=  4 NonCon=     1 RMS=2.80D-07 Max=2.47D-06 NDo=     1
 LinEq1:  Iter=  5 NonCon=     1 RMS=6.51D-08 Max=5.66D-07 NDo=     1
 LinEq1:  Iter=  6 NonCon=     1 RMS=1.43D-08 Max=1.14D-07 NDo=     1
 LinEq1:  Iter=  7 NonCon=     1 RMS=3.62D-09 Max=3.52D-08 NDo=     1
 LinEq1:  Iter=  8 NonCon=     0 RMS=7.79D-10 Max=5.56D-09 NDo=     1
 Linear equations converged to 2.437D-09 2.437D-08 after     8 iterations.
     Accept linear search using points  1 and  2.
     Minimum is close to point  2 DX= -3.15D-02 DF= -4.82D-08 DXR=  3.26D-02 DFR=  1.08D-03 which will be used.
 LinEq1:  Iter=  0 NonCon=     1 RMS=5.94D-06 Max=7.37D-05 NDo=     1
 LinEq1:  Iter=  1 NonCon=     1 RMS=9.51D-07 Max=7.67D-06 NDo=     1
 LinEq1:  Iter=  2 NonCon=     1 RMS=1.79D-07 Max=1.80D-06 NDo=     1
 LinEq1:  Iter=  3 NonCon=     1 RMS=4.66D-08 Max=4.85D-07 NDo=     1
 LinEq1:  Iter=  4 NonCon=     1 RMS=9.95D-09 Max=6.14D-08 NDo=     1
 LinEq1:  Iter=  5 NonCon=     1 RMS=1.40D-09 Max=9.18D-09 NDo=     1
 LinEq1:  Iter=  6 NonCon=     0 RMS=2.33D-10 Max=1.71D-09 NDo=     1
 Linear equations converged to 6.774D-10 6.774D-09 after     6 iterations.
 LinEq1:  Iter=  0 NonCon=     1 RMS=5.29D-08 Max=3.90D-07 NDo=     1
 LinEq1:  Iter=  1 NonCon=     1 RMS=1.27D-08 Max=9.57D-08 NDo=     1
 LinEq1:  Iter=  2 NonCon=     1 RMS=3.11D-09 Max=3.45D-08 NDo=     1
 LinEq1:  Iter=  3 NonCon=     1 RMS=6.88D-10 Max=6.34D-09 NDo=     1
 LinEq1:  Iter=  4 NonCon=     1 RMS=1.11D-10 Max=7.76D-10 NDo=     1
 LinEq1:  Iter=  5 NonCon=     1 RMS=2.09D-11 Max=1.28D-10 NDo=     1
 LinEq1:  Iter=  6 NonCon=     0 RMS=4.31D-12 Max=3.60D-11 NDo=     1
 Linear equations converged to 9.941D-12 9.941D-11 after     6 iterations.
 SCF Done:  E(UAM1) =  0.462630438567     a.u. after   13 cycles
            Convg  =    0.6370D-08                    69 Fock formations.
              S**2 =  2.0889                  -V/T =  1.0051
 <Sx>= 0.0000 <Sy>= 0.0000 <Sz>= 0.5000 <S**2>= 2.0889 S= 1.0294
 <L.S>=  0.00000000000    
 Annihilation of the first spin contaminant:
 S**2 before annihilation     2.0889,   after     3.5540

 **********************************************************************

            Population analysis using the SCF Density.

 **********************************************************************

 Orbital symmetries:
 Alpha Orbitals:
       Occupied  (A') (A') (A') (A') (A') (A') (A') (A') (A') (A')
                 (A") (A") (A') (A') (A") (A') (A') (A') (A') (A")
                 (A")
       Virtual   (A') (A') (A') (A") (A") (A') (A') (A") (A') (A')
                 (A') (A') (A') (A')
 Beta  Orbitals:
       Occupied  (A') (A') (A') (A') (A') (A') (A') (A') (A') (A')
                 (A") (A') (A") (A') (A") (A') (A') (A') (A") (A")
       Virtual   (A') (A") (A') (A") (A') (A') (A') (A') (A") (A')
                 (A') (A') (A') (A') (A')
 The electronic state is 2-A'.
 Alpha  occ. eigenvalues --   -1.42064  -1.37822  -1.35372  -1.11138  -1.10362
 Alpha  occ. eigenvalues --   -0.81399  -0.81022  -0.63949  -0.59882  -0.53935
 Alpha  occ. eigenvalues --   -0.53688  -0.48989  -0.47803  -0.45891  -0.44468
 Alpha  occ. eigenvalues --   -0.43777  -0.43551  -0.40559  -0.38870  -0.37628
 Alpha  occ. eigenvalues --   -0.36278
 Alpha virt. eigenvalues --   -0.01915   0.01353   0.01438   0.02250   0.02383
 Alpha virt. eigenvalues --    0.03253   0.04741   0.09490   0.14852   0.15091
 Alpha virt. eigenvalues --    0.17403   0.17692   0.18089   0.19545
  Beta  occ. eigenvalues --   -1.42120  -1.37715  -1.35448  -1.11857  -1.09712
  Beta  occ. eigenvalues --   -0.83127  -0.80704  -0.61872  -0.59890  -0.53933
  Beta  occ. eigenvalues --   -0.53331  -0.51511  -0.47941  -0.45259  -0.44010
  Beta  occ. eigenvalues --   -0.43934  -0.41413  -0.39984  -0.37547  -0.37325
  Beta virt. eigenvalues --   -0.01350   0.00538   0.01845   0.02402   0.02783
  Beta virt. eigenvalues --    0.02844   0.04671   0.05501   0.09406   0.14636
  Beta virt. eigenvalues --    0.14813   0.17040   0.17113   0.17937   0.20207
          Condensed to atoms (all electrons):
               1          2          3          4          5          6
     1  C    4.134748   0.000000   0.000000   0.000000   0.000000   0.000000
     2  C    0.000000   4.030668   0.000000   0.000000   0.000000   0.000000
     3  C    0.000000   0.000000   4.134911   0.000000   0.000000   0.000000
     4  C    0.000000   0.000000   0.000000   4.031072   0.000000   0.000000
     5  C    0.000000   0.000000   0.000000   0.000000   4.134912   0.000000
     6  C    0.000000   0.000000   0.000000   0.000000   0.000000   4.030669
     7  Cl   0.000000   0.000000   0.000000   0.000000   0.000000   0.000000
     8  H    0.000000   0.000000   0.000000   0.000000   0.000000   0.000000
     9  Cl   0.000000   0.000000   0.000000   0.000000   0.000000   0.000000
    10  H    0.000000   0.000000   0.000000   0.000000   0.000000   0.000000
    11  H    0.000000   0.000000   0.000000   0.000000   0.000000   0.000000
               7          8          9         10         11
     1  C    0.000000   0.000000   0.000000   0.000000   0.000000
     2  C    0.000000   0.000000   0.000000   0.000000   0.000000
     3  C    0.000000   0.000000   0.000000   0.000000   0.000000
     4  C    0.000000   0.000000   0.000000   0.000000   0.000000
     5  C    0.000000   0.000000   0.000000   0.000000   0.000000
     6  C    0.000000   0.000000   0.000000   0.000000   0.000000
     7  Cl   7.029976   0.000000   0.000000   0.000000   0.000000
     8  H    0.000000   0.805098   0.000000   0.000000   0.000000
     9  Cl   0.000000   0.000000   7.029976   0.000000   0.000000
    10  H    0.000000   0.000000   0.000000   0.818987   0.000000
    11  H    0.000000   0.000000   0.000000   0.000000   0.818983
          Atomic-Atomic Spin Densities.
               1          2          3          4          5          6
     1  C   -0.966066   0.000000   0.000000   0.000000   0.000000   0.000000
     2  C    0.000000   0.589505   0.000000   0.000000   0.000000   0.000000
     3  C    0.000000   0.000000  -0.995165   0.000000   0.000000   0.000000
     4  C    0.000000   0.000000   0.000000   1.487424   0.000000   0.000000
     5  C    0.000000   0.000000   0.000000   0.000000  -0.995146   0.000000
     6  C    0.000000   0.000000   0.000000   0.000000   0.000000   0.589498
     7  Cl   0.000000   0.000000   0.000000   0.000000   0.000000   0.000000
     8  H    0.000000   0.000000   0.000000   0.000000   0.000000   0.000000
     9  Cl   0.000000   0.000000   0.000000   0.000000   0.000000   0.000000
    10  H    0.000000   0.000000   0.000000   0.000000   0.000000   0.000000
    11  H    0.000000   0.000000   0.000000   0.000000   0.000000   0.000000
               7          8          9         10         11
     1  C    0.000000   0.000000   0.000000   0.000000   0.000000
     2  C    0.000000   0.000000   0.000000   0.000000   0.000000
     3  C    0.000000   0.000000   0.000000   0.000000   0.000000
     4  C    0.000000   0.000000   0.000000   0.000000   0.000000
     5  C    0.000000   0.000000   0.000000   0.000000   0.000000
     6  C    0.000000   0.000000   0.000000   0.000000   0.000000
     7  Cl  -0.002971   0.000000   0.000000   0.000000   0.000000
     8  H    0.000000   0.418892   0.000000   0.000000   0.000000
     9  Cl   0.000000   0.000000  -0.002972   0.000000   0.000000
    10  H    0.000000   0.000000   0.000000   0.438509   0.000000
    11  H    0.000000   0.000000   0.000000   0.000000   0.438492
 Mulliken charges and spin densities:
               1          2
     1  C   -0.134748  -0.966066
     2  C   -0.030668   0.589505
     3  C   -0.134911  -0.995165
     4  C   -0.031072   1.487424
     5  C   -0.134912  -0.995146
     6  C   -0.030669   0.589498
     7  Cl  -0.029976  -0.002971
     8  H    0.194902   0.418892
     9  Cl  -0.029976  -0.002972
    10  H    0.181013   0.438509
    11  H    0.181017   0.438492
 Sum of Mulliken charges =  -0.00000   1.00000
 Mulliken charges and spin densities with hydrogens summed into heavy atoms:
               1          2
     1  C    0.060154  -0.547174
     2  C   -0.030668   0.589505
     3  C    0.046102  -0.556656
     4  C   -0.031072   1.487424
     5  C    0.046105  -0.556654
     6  C   -0.030669   0.589498
     7  Cl  -0.029976  -0.002971
     9  Cl  -0.029976  -0.002972
 Charge=             -0.0000 electrons
 Dipole moment (field-independent basis, Debye):
    X=             -0.0000    Y=             -0.2705    Z=              0.0000  Tot=              0.2705
 N-N= 1.909941391445D+02 E-N=-2.623360187507D+02  KE=-8.995619438895D+01
 Symmetry A'   KE=-6.957070284380D+01
 Symmetry A"   KE=-2.038549154515D+01
 Symmetry A'   SP= 1.000000000000D+00
 Symmetry A"   SP= 9.436895709314D-16
 Calling FoFJK, ICntrl=      2127 FMM=F ISym2X=1 I1Cent= 0 IOpClX= 1 NMat=1 NMatS=1 NMatT=0.
 ***** Axes restored to original set *****
 -------------------------------------------------------------------
 Center     Atomic                   Forces (Hartrees/Bohr)
 Number     Number              X              Y              Z
 -------------------------------------------------------------------
      1        6          -0.058493420    0.031662817    0.000000000
      2        6          -0.000742546    0.025815934   -0.000000000
      3        6           0.073353274    0.009252208    0.000000000
      4        6          -0.060068461    0.032511914    0.000000000
      5        6           0.032371898   -0.066478160    0.000000000
      6        6          -0.022025773   -0.013490744    0.000000000
      7       17           0.033336588    0.020298369    0.000000000
      8        1           0.088335509   -0.047815558   -0.000000000
      9       17           0.001233208   -0.039013340    0.000000000
     10        1          -0.084410292   -0.051674457   -0.000000000
     11        1          -0.002889984    0.098931018   -0.000000000
 -------------------------------------------------------------------
 Cartesian Forces:  Max     0.098931018 RMS     0.040483610

 GradGradGradGradGradGradGradGradGradGradGradGradGradGradGradGradGradGrad
 Berny optimization.
 FormGI is forming the generalized inverse of G from B-inverse, IUseBI=4.
 Internal  Forces:  Max     0.100446452 RMS     0.029432005
 Search for a local minimum.
 Step number   1 out of a maximum of   57
 All quantities printed in internal units (Hartrees-Bohrs-Radians)
 Mixed Optimization -- RFO/linear search
 Second derivative matrix not updated -- first step.
 ITU=  0
     Eigenvalues ---    0.02011   0.02011   0.02011   0.02011   0.02011
     Eigenvalues ---    0.02011   0.02011   0.02011   0.06524   0.06524
     Eigenvalues ---    0.06524   0.16000   0.16000   0.16000   0.23188
     Eigenvalues ---    0.23477   0.23493   0.25000   0.25000   0.29033
     Eigenvalues ---    0.29033   0.40971   0.41413   0.44656   0.44657
     Eigenvalues ---    0.44657   0.44657
 RFO step:  Lambda=-1.55256556D-01 EMin= 2.01067519D-02
 Linear search not attempted -- first point.
 Maximum step size (   0.300) exceeded in Quadratic search.
    -- Step size scaled by   0.372
 Iteration  1 RMS(Cart)=  0.04883876 RMS(Int)=  0.00008281
 Iteration  2 RMS(Cart)=  0.00015924 RMS(Int)=  0.00001586
 Iteration  3 RMS(Cart)=  0.00000002 RMS(Int)=  0.00001586
 ClnCor:  largest displacement from symmetrization is 4.50D-10 for atom     8.
 Variable       Old X    -DE/DX   Delta X   Delta X   Delta X     New X
                                 (Linear)    (Quad)   (Total)
    R1        2.65676  -0.02074   0.00000  -0.01238  -0.01240   2.64436
    R2        2.65677  -0.02074   0.00000  -0.01238  -0.01240   2.64437
    R3        3.33635  -0.10045   0.00000  -0.16950  -0.16950   3.16685
    R4        2.65677  -0.02368   0.00000  -0.01464  -0.01464   2.64213
    R5        3.33634  -0.03903   0.00000  -0.03259  -0.03259   3.30375
    R6        2.65677  -0.05154   0.00000  -0.03231  -0.03229   2.62448
    R7        3.33633  -0.09897   0.00000  -0.16701  -0.16701   3.16932
    R8        2.65678  -0.05154   0.00000  -0.03231  -0.03229   2.62449
    R9        2.65675  -0.02367   0.00000  -0.01464  -0.01464   2.64211
   R10        3.33632  -0.09897   0.00000  -0.16701  -0.16701   3.16931
   R11        3.33633  -0.03903   0.00000  -0.03259  -0.03259   3.30374
    A1        2.09439   0.00471   0.00000   0.00627   0.00622   2.10062
    A2        2.09439  -0.00236   0.00000  -0.00313  -0.00311   2.09128
    A3        2.09440  -0.00236   0.00000  -0.00314  -0.00311   2.09129
    A4        2.09439  -0.00860   0.00000  -0.00709  -0.00712   2.08728
    A5        2.09440   0.00457   0.00000   0.00379   0.00381   2.09820
    A6        2.09439   0.00403   0.00000   0.00330   0.00331   2.09771
    A7        2.09440  -0.00369   0.00000  -0.00425  -0.00423   2.09016
    A8        2.09440   0.00156   0.00000   0.00179   0.00178   2.09617
    A9        2.09439   0.00213   0.00000   0.00246   0.00246   2.09685
   A10        2.09439   0.01988   0.00000   0.01642   0.01648   2.11088
   A11        2.09439  -0.00370   0.00000  -0.00425  -0.00423   2.09016
   A12        2.09439   0.00213   0.00000   0.00246   0.00246   2.09684
   A13        2.09440   0.00156   0.00000   0.00179   0.00178   2.09618
   A14        2.09440  -0.00860   0.00000  -0.00709  -0.00712   2.08728
   A15        2.09439   0.00457   0.00000   0.00379   0.00381   2.09820
   A16        2.09439   0.00403   0.00000   0.00330   0.00331   2.09770
    D1        0.00000   0.00000   0.00000   0.00000   0.00000   0.00000
    D2        3.14159   0.00000   0.00000   0.00000   0.00000   3.14159
    D3        3.14159   0.00000   0.00000   0.00000   0.00000   3.14159
    D4        0.00000   0.00000   0.00000   0.00000   0.00000   0.00000
    D5        0.00000  -0.00000   0.00000  -0.00000   0.00000   0.00000
    D6        3.14159   0.00000   0.00000   0.00000   0.00000   3.14159
    D7        3.14159  -0.00000   0.00000  -0.00000   0.00000   3.14159
    D8        0.00000  -0.00000   0.00000  -0.00000   0.00000   0.00000
    D9        0.00000  -0.00000   0.00000  -0.00000   0.00000   0.00000
   D10        3.14159  -0.00000   0.00000  -0.00000   0.00000   3.14159
   D11        3.14159   0.00000   0.00000  -0.00000   0.00000   3.14159
   D12        0.00000  -0.00000   0.00000  -0.00000   0.00000   0.00000
   D13        0.00000  -0.00000   0.00000  -0.00000   0.00000   0.00000
   D14        3.14159   0.00000   0.00000   0.00000   0.00000   3.14159
   D15        0.00000   0.00000   0.00000   0.00000   0.00000   0.00000
   D16        3.14159  -0.00000   0.00000  -0.00000   0.00000   3.14159
   D17        0.00000  -0.00000   0.00000  -0.00000   0.00000   0.00000
   D18        3.14159  -0.00000   0.00000  -0.00000   0.00000   3.14159
   D19        3.14159   0.00000   0.00000   0.00000   0.00000   3.14159
   D20        0.00000   0.00000   0.00000   0.00000   0.00000   0.00000
         Item               Value     Threshold  Converged?
 Maximum Force            0.100446     0.000450     NO 
 RMS     Force            0.029432     0.000300     NO 
 Maximum Displacement     0.189166     0.001800     NO 
 RMS     Displacement     0.048857     0.001200     NO 
 Predicted change in Energy=-5.400760D-02
 GradGradGradGradGradGradGradGradGradGradGradGradGradGradGradGradGradGrad

                          Input orientation:                          
 ---------------------------------------------------------------------
 Center     Atomic      Atomic             Coordinates (Angstroms)
 Number     Number       Type             X           Y           Z
 ---------------------------------------------------------------------
      1          6           0       -3.202620    0.195825    0.000000
      2          6           0       -2.012715    0.932215    0.000000
      3          6           0       -0.785815    0.261731    0.000000
      4          6           0       -0.759118   -1.126827    0.000000
      5          6           0       -1.936317   -1.863729    0.000000
      6          6           0       -3.168543   -1.203100    0.000000
      7         17           0       -4.657373   -2.119515    0.000000
      8          1           0       -4.676388    0.993567    0.000000
      9         17           0       -2.059505    2.679857    0.000000
     10          1           0        0.648106    1.131583    0.000000
     11          1           0       -1.880552   -3.539928    0.000000
 ---------------------------------------------------------------------
                    Distance matrix (angstroms):
                    1          2          3          4          5
     1  C    0.000000
     2  C    1.399337   0.000000
     3  C    2.417703   1.398153   0.000000
     4  C    2.778509   2.410635   1.388815   0.000000
     5  C    2.417703   2.796988   2.416865   1.388820   0.000000
     6  C    1.399340   2.428067   2.796985   2.410632   1.398147
     7  Cl   2.734429   4.038227   4.545249   4.022664   2.733052
     8  H    1.675823   2.664380   3.958805   4.454332   3.958804
     9  Cl   2.734433   1.748268   2.733061   4.022667   4.545256
    10  H    3.962794   2.668280   1.677132   2.660958   3.956152
    11  H    3.962791   4.474095   3.956142   2.660952   1.677126
                    6          7          8          9         10
     6  C    0.000000
     7  Cl   1.748265   0.000000
     8  H    2.664384   3.113140   0.000000
     9  Cl   4.038232   5.457370   3.113141   0.000000
    10  H    4.474099   6.222359   5.326283   3.119025   0.000000
    11  H    2.668274   3.119023   5.326281   6.222358   5.311979
                   11
    11  H    0.000000
 Stoichiometry    C6H3Cl2(2)
 Framework group  CS[SG(C6H3Cl2)]
 Deg. of freedom    19
 Full point group                 CS      NOp   2
 Largest Abelian subgroup         CS      NOp   2
 Largest concise Abelian subgroup C1      NOp   1
                         Standard orientation:                         
 ---------------------------------------------------------------------
 Center     Atomic      Atomic             Coordinates (Angstroms)
 Number     Number       Type             X           Y           Z
 ---------------------------------------------------------------------
      1          6           0        0.000000    0.662084    0.000000
      2          6           0        1.214033   -0.033811    0.000000
      3          6           0        1.208428   -1.431953    0.000000
      4          6           0       -0.000002   -2.116425    0.000000
      5          6           0       -1.208436   -1.431948    0.000000
      6          6           0       -1.214034   -0.033812    0.000000
      7         17           0       -2.728683    0.839269    0.000000
      8          1           0        0.000002    2.337907    0.000000
      9         17           0        2.728687    0.839266    0.000000
     10          1           0        2.655990   -2.278911    0.000000
     11          1           0       -2.655990   -2.278907    0.000000
 ---------------------------------------------------------------------
 Rotational constants (GHZ):           2.9147305           0.8348183           0.6489502
 Standard basis: VSTO-6G (5D, 7F)
 There are    27 symmetry adapted cartesian basis functions of A'  symmetry.
 There are     8 symmetry adapted cartesian basis functions of A"  symmetry.
 There are    27 symmetry adapted basis functions of A'  symmetry.
 There are     8 symmetry adapted basis functions of A"  symmetry.
    35 basis functions,   210 primitive gaussians,    35 cartesian basis functions
    21 alpha electrons       20 beta electrons
       nuclear repulsion energy       192.1932944717 Hartrees.
 Integral buffers will be    131072 words long.
 Regular integral format.
 Two-electron integral symmetry is turned off.
 Do NDO integrals.
 One-electron integrals computed using PRISM.
 NBasis=    35 RedAO= T EigKep=  1.00D+00  NBF=    27     8
 NBsUse=    35 1.00D-06 EigRej= -1.00D+00 NBFU=    27     8
 Initial guess from the checkpoint file:  "geometry_chks/13_ClBzNeutralRadical.chk"
 B after Tr=     0.000000   -0.000000    0.000000
         Rot=    1.000000    0.000000    0.000000    0.000001 Ang=   0.00 deg.
 Initial guess orbital symmetries:
 Alpha Orbitals:
       Occupied  (A') (A') (A') (A') (A') (A') (A') (A') (A') (A')
                 (A") (A") (A') (A') (A") (A') (A') (A') (A') (A")
                 (A")
       Virtual   (A') (A') (A') (A") (A") (A') (A') (A") (A') (A')
                 (A') (A') (A') (A')
 Beta  Orbitals:
       Occupied  (A') (A') (A') (A') (A') (A') (A') (A') (A') (A')
                 (A") (A') (A") (A') (A") (A') (A') (A') (A") (A")
       Virtual   (A') (A") (A') (A") (A') (A') (A') (A') (A") (A')
                 (A') (A') (A') (A') (A')
 Initial guess <Sx>= 0.0000 <Sy>= 0.0000 <Sz>= 0.5000 <S**2>= 2.0889 S= 1.0294
 Keep J ints in memory in canonical form, NReq=862793.
 Overlap will be assumed to be unity.
 Requested convergence on RMS density matrix=1.00D-08 within  32 cycles.
 Requested convergence on MAX density matrix=1.00D-06.
 Requested convergence on             energy=1.00D-06.
 No special actions if energy rises.
 Fock symm off for IB=2 I1=    1 I=   28 J=   18 Cut=1.00D-07 Err=5.49D-03
 Fock matrix is not symmetric: symmetry in diagonalization turned off.
 SCF Done:  E(UAM1) =  0.401444716896     A.U. after   20 cycles
            NFock= 19  Conv=0.48D-08     -V/T= 1.0045
 <Sx>= 0.0000 <Sy>= 0.0000 <Sz>= 0.5000 <S**2>= 1.4975 S= 0.8219
 <L.S>=  0.00000000000    
 Annihilation of the first spin contaminant:
 S**2 before annihilation     1.4975,   after     1.4320
 QCSCF skips out because SCF is already converged.
 Calling FoFJK, ICntrl=      2127 FMM=F ISym2X=1 I1Cent= 0 IOpClX= 1 NMat=1 NMatS=1 NMatT=0.
 ***** Axes restored to original set *****
 -------------------------------------------------------------------
 Center     Atomic                   Forces (Hartrees/Bohr)
 Number     Number              X              Y              Z
 -------------------------------------------------------------------
      1        6          -0.084828262    0.045917279    0.000000000
      2        6          -0.002740606    0.024663257    0.000000000
      3        6           0.099679487    0.033499165   -0.000000000
      4        6          -0.042552346    0.023030798   -0.000000000
      5        6           0.026463786   -0.101776903    0.000000000
      6        6          -0.022152040   -0.011188159   -0.000000000
      7       17           0.025664817    0.015793770    0.000000000
      8        1           0.102593995   -0.055533644   -0.000000000
      9       17           0.000809792   -0.030126243   -0.000000000
     10        1          -0.098914137   -0.059791610   -0.000000000
     11        1          -0.004024486    0.115512292   -0.000000000
 -------------------------------------------------------------------
 Cartesian Forces:  Max     0.115512292 RMS     0.048347951

 GradGradGradGradGradGradGradGradGradGradGradGradGradGradGradGradGradGrad
 Berny optimization.
 Using GEDIIS/GDIIS optimizer.
 FormGI is forming the generalized inverse of G from B-inverse, IUseBI=4.
 Internal  Forces:  Max     0.116659819 RMS     0.030980816
 Search for a local minimum.
 Step number   2 out of a maximum of   57
 All quantities printed in internal units (Hartrees-Bohrs-Radians)
 Mixed Optimization -- RFO/linear search
 Update second derivatives using D2CorX and points    1    2
 DE= -6.12D-02 DEPred=-5.40D-02 R= 1.13D+00
 TightC=F SS=  1.41D+00  RLast= 3.00D-01 DXNew= 5.0454D-01 9.0000D-01
 Trust test= 1.13D+00 RLast= 3.00D-01 DXMaxT set to 5.05D-01
 ITU=  1  0
 Use linear search instead of GDIIS.
     Eigenvalues ---   -0.19204   0.02011   0.02011   0.02011   0.02011
     Eigenvalues ---    0.02011   0.02011   0.02011   0.02011   0.06516
     Eigenvalues ---    0.06524   0.10150   0.16000   0.16000   0.16000
     Eigenvalues ---    0.23117   0.23470   0.23792   0.25000   0.25002
     Eigenvalues ---    0.29033   0.32452   0.40961   0.41675   0.44624
     Eigenvalues ---    0.44656   0.44657
 RFO step:  Lambda=-2.88789263D-01 EMin=-1.92043918D-01
 Skip linear search -- no minimum in search direction.
 Maximum step size (   0.505) exceeded in Quadratic search.
    -- Step size scaled by   0.471
 Iteration  1 RMS(Cart)=  0.04372896 RMS(Int)=  0.02223556
 Iteration  2 RMS(Cart)=  0.02222831 RMS(Int)=  0.00000956
 Iteration  3 RMS(Cart)=  0.00000025 RMS(Int)=  0.00000956
 ClnCor:  largest displacement from symmetrization is 2.51D-09 for atom    10.
 Variable       Old X    -DE/DX   Delta X   Delta X   Delta X     New X
                                 (Linear)    (Quad)   (Total)
    R1        2.64436  -0.01029   0.00000   0.02266   0.02264   2.66701
    R2        2.64437  -0.01029   0.00000   0.02266   0.02264   2.66701
    R3        3.16685  -0.11666   0.00000  -0.28763  -0.28763   2.87921
    R4        2.64213  -0.01100   0.00000   0.02912   0.02912   2.67125
    R5        3.30375  -0.03014   0.00000  -0.00246  -0.00246   3.30129
    R6        2.62448  -0.03143   0.00000   0.03183   0.03185   2.65633
    R7        3.16932  -0.11558   0.00000  -0.28820  -0.28820   2.88112
    R8        2.62449  -0.03143   0.00000   0.03183   0.03184   2.65633
    R9        2.64211  -0.01100   0.00000   0.02912   0.02912   2.67124
   R10        3.16931  -0.11558   0.00000  -0.28820  -0.28820   2.88111
   R11        3.30374  -0.03014   0.00000  -0.00246  -0.00246   3.30128
    A1        2.10062   0.00431   0.00000   0.00398   0.00395   2.10457
    A2        2.09128  -0.00215   0.00000  -0.00199  -0.00198   2.08931
    A3        2.09129  -0.00216   0.00000  -0.00199  -0.00198   2.08931
    A4        2.08728  -0.00582   0.00000   0.00408   0.00407   2.09134
    A5        2.09820   0.00291   0.00000  -0.00315  -0.00314   2.09507
    A6        2.09771   0.00290   0.00000  -0.00094  -0.00093   2.09678
    A7        2.09016  -0.00533   0.00000  -0.01420  -0.01418   2.07598
    A8        2.09617   0.00238   0.00000   0.00667   0.00666   2.10284
    A9        2.09685   0.00295   0.00000   0.00753   0.00752   2.10437
   A10        2.11088   0.01798   0.00000   0.01624   0.01628   2.12716
   A11        2.09016  -0.00533   0.00000  -0.01420  -0.01418   2.07598
   A12        2.09684   0.00295   0.00000   0.00753   0.00752   2.10437
   A13        2.09618   0.00237   0.00000   0.00667   0.00666   2.10284
   A14        2.08728  -0.00582   0.00000   0.00408   0.00407   2.09135
   A15        2.09820   0.00291   0.00000  -0.00315  -0.00314   2.09506
   A16        2.09770   0.00290   0.00000  -0.00094  -0.00093   2.09678
    D1        0.00000   0.00000   0.00000   0.00000   0.00000   0.00000
    D2        3.14159  -0.00000   0.00000  -0.00000   0.00000   3.14159
    D3        3.14159   0.00000   0.00000   0.00000   0.00000   3.14159
    D4        0.00000   0.00000   0.00000  -0.00000   0.00000   0.00000
    D5        0.00000   0.00000   0.00000   0.00000   0.00000   0.00000
    D6        3.14159   0.00000   0.00000   0.00000   0.00000   3.14159
    D7        3.14159  -0.00000   0.00000  -0.00000   0.00000   3.14159
    D8        0.00000  -0.00000   0.00000  -0.00000   0.00000   0.00000
    D9        0.00000  -0.00000   0.00000  -0.00000   0.00000   0.00000
   D10        3.14159  -0.00000   0.00000  -0.00000   0.00000   3.14159
   D11        3.14159   0.00000   0.00000   0.00000   0.00000   3.14159
   D12        0.00000  -0.00000   0.00000   0.00000   0.00000   0.00000
   D13        0.00000   0.00000   0.00000   0.00000   0.00000   0.00000
   D14        3.14159   0.00000   0.00000   0.00000   0.00000   3.14159
   D15        0.00000   0.00000   0.00000   0.00000   0.00000   0.00000
   D16        3.14159  -0.00000   0.00000  -0.00000   0.00000   3.14159
   D17        0.00000  -0.00000   0.00000  -0.00000   0.00000   0.00000
   D18        3.14159  -0.00000   0.00000  -0.00000   0.00000   3.14159
   D19        3.14159   0.00000   0.00000  -0.00000   0.00000   3.14159
   D20        0.00000   0.00000   0.00000  -0.00000   0.00000   0.00000
         Item               Value     Threshold  Converged?
 Maximum Force            0.116660     0.000450     NO 
 RMS     Force            0.030981     0.000300     NO 
 Maximum Displacement     0.244969     0.001800     NO 
 RMS     Displacement     0.065345     0.001200     NO 
 Predicted change in Energy=-1.172852D-01
 GradGradGradGradGradGradGradGradGradGradGradGradGradGradGradGradGradGrad

                          Input orientation:                          
 ---------------------------------------------------------------------
 Center     Atomic      Atomic             Coordinates (Angstroms)
 Number     Number       Type             X           Y           Z
 ---------------------------------------------------------------------
      1          6           0       -3.210046    0.199845    0.000000
      2          6           0       -2.011422    0.944912    0.000000
      3          6           0       -0.766925    0.274547    0.000000
      4          6           0       -0.751346   -1.131034    0.000000
      5          6           0       -1.936718   -1.886551    0.000000
      6          6           0       -3.178467   -1.211123    0.000000
      7         17           0       -4.670853   -2.119236    0.000000
      8          1           0       -4.549957    0.925130    0.000000
      9         17           0       -2.067111    2.690992    0.000000
     10          1           0        0.537092    1.064495    0.000000
     11          1           0       -1.885085   -3.410296    0.000000
 ---------------------------------------------------------------------
                    Distance matrix (angstroms):
                    1          2          3          4          5
     1  C    0.000000
     2  C    1.411320   0.000000
     3  C    2.444263   1.413564   0.000000
     4  C    2.795791   2.428445   1.405667   0.000000
     5  C    2.444262   2.832449   2.457389   1.405672   0.000000
     6  C    1.411322   2.451628   2.832446   2.428442   1.413557
     7  Cl   2.740819   4.057286   4.579394   4.042163   2.744018
     8  H    1.523614   2.538612   3.838566   4.319404   3.838564
     9  Cl   2.740824   1.746967   2.744028   4.042167   4.579400
    10  H    3.845604   2.551319   1.524624   2.545667   3.850768
    11  H    3.845600   4.357040   3.850759   2.545663   1.524619
                    6          7          8          9         10
     6  C    0.000000
     7  Cl   1.746964   0.000000
     8  H    2.538614   3.046765   0.000000
     9  Cl   4.057291   5.469713   3.046768   0.000000
    10  H    4.357042   6.104001   5.088958   3.070401   0.000000
    11  H    2.551312   3.070397   5.088954   6.104002   5.088290
                   11
    11  H    0.000000
 Stoichiometry    C6H3Cl2(2)
 Framework group  CS[SG(C6H3Cl2)]
 Deg. of freedom    19
 Full point group                 CS      NOp   2
 Largest Abelian subgroup         CS      NOp   2
 Largest concise Abelian subgroup C1      NOp   1
                         Standard orientation:                         
 ---------------------------------------------------------------------
 Center     Atomic      Atomic             Coordinates (Angstroms)
 Number     Number       Type             X           Y           Z
 ---------------------------------------------------------------------
      1          6           0        0.000000    0.666068    0.000000
      2          6           0        1.225814   -0.033364    0.000000
      3          6           0        1.228690   -1.446925    0.000000
      4          6           0       -0.000003   -2.129723    0.000000
      5          6           0       -1.228699   -1.446919    0.000000
      6          6           0       -1.225815   -0.033365    0.000000
      7         17           0       -2.734854    0.846797    0.000000
      8          1           0        0.000002    2.189682    0.000000
      9         17           0        2.734859    0.846793    0.000000
     10          1           0        2.544144   -2.217679    0.000000
     11          1           0       -2.544146   -2.217672    0.000000
 ---------------------------------------------------------------------
 Rotational constants (GHZ):           2.8909051           0.8306185           0.6452302
 Standard basis: VSTO-6G (5D, 7F)
 There are    27 symmetry adapted cartesian basis functions of A'  symmetry.
 There are     8 symmetry adapted cartesian basis functions of A"  symmetry.
 There are    27 symmetry adapted basis functions of A'  symmetry.
 There are     8 symmetry adapted basis functions of A"  symmetry.
    35 basis functions,   210 primitive gaussians,    35 cartesian basis functions
    21 alpha electrons       20 beta electrons
       nuclear repulsion energy       192.2145141372 Hartrees.
 Integral buffers will be    131072 words long.
 Regular integral format.
 Two-electron integral symmetry is turned off.
 Do NDO integrals.
 One-electron integrals computed using PRISM.
 NBasis=    35 RedAO= T EigKep=  1.00D+00  NBF=    27     8
 NBsUse=    35 1.00D-06 EigRej= -1.00D+00 NBFU=    27     8
 Initial guess from the checkpoint file:  "geometry_chks/13_ClBzNeutralRadical.chk"
 B after Tr=     0.000000   -0.000000    0.000000
         Rot=    1.000000    0.000000    0.000000    0.000000 Ang=   0.00 deg.
 Initial guess orbital symmetries:
 Alpha Orbitals:
       Occupied  (A') (A') (A') (A') (A') (A') (A') (A') (A') (A')
                 (A") (A') (A") (A') (A") (A') (A') (A') (A') (A")
                 (A")
       Virtual   (A') (A") (A") (A') (A') (A') (A') (A") (A') (A')
                 (A') (A') (A') (A')
 Beta  Orbitals:
       Occupied  (A') (A') (A') (A') (A') (A') (A') (A') (A') (A')
                 (A") (A') (A") (A') (A") (A') (A') (A') (A") (A")
       Virtual   (A') (A") (A') (A") (A') (A') (A') (A') (A") (A')
                 (A') (A') (A') (A') (A')
 Initial guess <Sx>= 0.0000 <Sy>= 0.0000 <Sz>= 0.5000 <S**2>= 1.4975 S= 0.8219
 Keep J ints in memory in canonical form, NReq=862793.
 Overlap will be assumed to be unity.
 Requested convergence on RMS density matrix=1.00D-08 within  32 cycles.
 Requested convergence on MAX density matrix=1.00D-06.
 Requested convergence on             energy=1.00D-06.
 No special actions if energy rises.
 Fock symm off for IB=2 I1=    1 I=   28 J=   18 Cut=1.00D-07 Err=7.53D-03
 Fock matrix is not symmetric: symmetry in diagonalization turned off.
 SCF Done:  E(UAM1) =  0.301845861035     A.U. after   18 cycles
            NFock= 17  Conv=0.50D-08     -V/T= 1.0033
 <Sx>= 0.0000 <Sy>= 0.0000 <Sz>= 0.5000 <S**2>= 1.3729 S= 0.7739
 <L.S>=  0.00000000000    
 Annihilation of the first spin contaminant:
 S**2 before annihilation     1.3729,   after     1.1219
 QCSCF skips out because SCF is already converged.
 Calling FoFJK, ICntrl=      2127 FMM=F ISym2X=1 I1Cent= 0 IOpClX= 1 NMat=1 NMatS=1 NMatT=0.
 ***** Axes restored to original set *****
 -------------------------------------------------------------------
 Center     Atomic                   Forces (Hartrees/Bohr)
 Number     Number              X              Y              Z
 -------------------------------------------------------------------
      1        6          -0.078935523    0.042728224    0.000000000
      2        6           0.000160824    0.005434100    0.000000000
      3        6           0.089210466    0.028320531    0.000000000
      4        6          -0.056991041    0.030846991   -0.000000000
      5        6           0.025074878   -0.090179052    0.000000000
      6        6          -0.004465708   -0.003103694   -0.000000000
      7       17           0.026752639    0.016089514   -0.000000000
      8        1           0.105146905   -0.056915456   -0.000000000
      9       17           0.001157054   -0.031198886   -0.000000000
     10        1          -0.102950506   -0.062265617   -0.000000000
     11        1          -0.004159989    0.120243344   -0.000000000
 -------------------------------------------------------------------
 Cartesian Forces:  Max     0.120243344 RMS     0.047683566

 GradGradGradGradGradGradGradGradGradGradGradGradGradGradGradGradGradGrad
 Berny optimization.
 Using GEDIIS/GDIIS optimizer.
 FormGI is forming the generalized inverse of G from B-inverse, IUseBI=4.
 Internal  Forces:  Max     0.120315445 RMS     0.033670848
 Search for a local minimum.
 Step number   3 out of a maximum of   57
 All quantities printed in internal units (Hartrees-Bohrs-Radians)
 Mixed Optimization -- RFO/linear search
 Update second derivatives using D2CorX and points    2    3
 DE= -9.96D-02 DEPred=-1.17D-01 R= 8.49D-01
 TightC=F SS=  1.41D+00  RLast= 5.05D-01 DXNew= 8.4853D-01 1.5136D+00
 Trust test= 8.49D-01 RLast= 5.05D-01 DXMaxT set to 8.49D-01
 ITU=  1  1  0
 Use linear search instead of GDIIS.
     Eigenvalues ---   -1.94743   0.00029   0.02011   0.02011   0.02011
     Eigenvalues ---    0.02011   0.02011   0.02011   0.02011   0.02011
     Eigenvalues ---    0.06523   0.06524   0.15998   0.16000   0.16000
     Eigenvalues ---    0.21287   0.23131   0.23482   0.25000   0.25002
     Eigenvalues ---    0.27018   0.29033   0.40124   0.41056   0.44419
     Eigenvalues ---    0.44656   0.44657
 RFO step:  Lambda=-1.95512803D+00 EMin=-1.94742747D+00
 I=     1 Eig=   -1.95D+00 Dot1=  7.33D-02
 I=     1 Stepn=  6.00D-01 RXN=   6.00D-01 EDone=F
 Mixed    1 eigenvectors in step.  Raw Step.Grad=  7.33D-02.
 RFO eigenvector is Hessian eigenvector with negative curvature.
 Taking step of  6.00D-01 in eigenvector direction(s).  Step.Grad=  6.71D-02.
 Skip linear search -- no minimum in search direction.
 Iteration  1 RMS(Cart)=  0.10900982 RMS(Int)=  0.01468624
 Iteration  2 RMS(Cart)=  0.01951369 RMS(Int)=  0.00017682
 Iteration  3 RMS(Cart)=  0.00007466 RMS(Int)=  0.00016677
 Iteration  4 RMS(Cart)=  0.00000001 RMS(Int)=  0.00016677
 ClnCor:  largest displacement from symmetrization is 9.39D-11 for atom     9.
 Variable       Old X    -DE/DX   Delta X   Delta X   Delta X     New X
                                 (Linear)    (Quad)   (Total)
    R1        2.66701  -0.02554   0.00000  -0.21396  -0.21420   2.45281
    R2        2.66701  -0.02554   0.00000  -0.21395  -0.21419   2.45282
    R3        2.87921  -0.11956   0.00000  -0.04217  -0.04217   2.83705
    R4        2.67125  -0.02832   0.00000  -0.24398  -0.24398   2.42727
    R5        3.30129  -0.03122   0.00000  -0.03206  -0.03206   3.26923
    R6        2.65633  -0.04853   0.00000  -0.25475  -0.25451   2.40182
    R7        2.88112  -0.12032   0.00000  -0.07003  -0.07003   2.81109
    R8        2.65633  -0.04853   0.00000  -0.25475  -0.25450   2.40183
    R9        2.67124  -0.02832   0.00000  -0.24397  -0.24397   2.42726
   R10        2.88111  -0.12032   0.00000  -0.07001  -0.07001   2.81110
   R11        3.30128  -0.03122   0.00000  -0.03206  -0.03206   3.26922
    A1        2.10457   0.00071   0.00000  -0.05012  -0.05061   2.05396
    A2        2.08931  -0.00035   0.00000   0.02506   0.02531   2.11461
    A3        2.08931  -0.00035   0.00000   0.02506   0.02531   2.11461
    A4        2.09134  -0.00370   0.00000   0.02574   0.02548   2.11682
    A5        2.09507   0.00212   0.00000  -0.00882  -0.00869   2.08637
    A6        2.09678   0.00159   0.00000  -0.01691  -0.01678   2.07999
    A7        2.07598  -0.00571   0.00000  -0.00458  -0.00438   2.07160
    A8        2.10284   0.00273   0.00000   0.00467   0.00458   2.10741
    A9        2.10437   0.00298   0.00000  -0.00010  -0.00020   2.10418
   A10        2.12716   0.01813   0.00000   0.00780   0.00842   2.13558
   A11        2.07598  -0.00571   0.00000  -0.00458  -0.00438   2.07160
   A12        2.10437   0.00298   0.00000  -0.00010  -0.00020   2.10417
   A13        2.10284   0.00273   0.00000   0.00467   0.00458   2.10742
   A14        2.09135  -0.00371   0.00000   0.02573   0.02547   2.11682
   A15        2.09506   0.00212   0.00000  -0.00882  -0.00869   2.08637
   A16        2.09678   0.00159   0.00000  -0.01691  -0.01678   2.07999
    D1        0.00000   0.00000   0.00000  -0.00000   0.00000   0.00000
    D2        3.14159  -0.00000   0.00000   0.00000   0.00000   3.14159
    D3        3.14159   0.00000   0.00000  -0.00000   0.00000   3.14159
    D4        0.00000   0.00000   0.00000  -0.00000   0.00000   0.00000
    D5        0.00000  -0.00000   0.00000  -0.00000   0.00000   0.00000
    D6        3.14159   0.00000   0.00000  -0.00000   0.00000   3.14159
    D7        3.14159  -0.00000   0.00000   0.00000   0.00000   3.14159
    D8        0.00000  -0.00000   0.00000   0.00000   0.00000   0.00000
    D9        0.00000  -0.00000   0.00000   0.00000   0.00000   0.00000
   D10        3.14159  -0.00000   0.00000   0.00000   0.00000   3.14159
   D11        3.14159   0.00000   0.00000   0.00000   0.00000   3.14159
   D12        0.00000  -0.00000   0.00000  -0.00000   0.00000   0.00000
   D13        0.00000  -0.00000   0.00000  -0.00000   0.00000   0.00000
   D14        3.14159   0.00000   0.00000   0.00000   0.00000   3.14159
   D15        0.00000   0.00000   0.00000   0.00000   0.00000   0.00000
   D16        3.14159  -0.00000   0.00000  -0.00000   0.00000   3.14159
   D17        0.00000  -0.00000   0.00000   0.00000   0.00000   0.00000
   D18        3.14159  -0.00000   0.00000   0.00000   0.00000   3.14159
   D19        3.14159   0.00000   0.00000   0.00000   0.00000   3.14159
   D20        0.00000   0.00000   0.00000   0.00000   0.00000   0.00000
         Item               Value     Threshold  Converged?
 Maximum Force            0.120315     0.000450     NO 
 RMS     Force            0.033671     0.000300     NO 
 Maximum Displacement     0.329085     0.001800     NO 
 RMS     Displacement     0.126778     0.001200     NO 
 Predicted change in Energy=-4.237822D-01
 GradGradGradGradGradGradGradGradGradGradGradGradGradGradGradGradGradGrad

                          Input orientation:                          
 ---------------------------------------------------------------------
 Center     Atomic      Atomic             Coordinates (Angstroms)
 Number     Number       Type             X           Y           Z
 ---------------------------------------------------------------------
      1          6           0       -3.137838    0.160761    0.000000
      2          6           0       -2.018494    0.817875    0.000000
      3          6           0       -0.887560    0.208929    0.000000
      4          6           0       -0.878823   -1.062029    0.000000
      5          6           0       -1.947738   -1.749670    0.000000
      6          6           0       -3.075971   -1.135740    0.000000
      7         17           0       -4.538722   -2.059460    0.000000
      8          1           0       -4.458125    0.875427    0.000000
      9         17           0       -2.044907    2.547674    0.000000
     10          1           0        0.388145    0.974065    0.000000
     11          1           0       -1.890807   -3.236151    0.000000
 ---------------------------------------------------------------------
                    Distance matrix (angstroms):
                    1          2          3          4          5
     1  C    0.000000
     2  C    1.297971   0.000000
     3  C    2.250794   1.284456   0.000000
     4  C    2.568728   2.198383   1.270988   0.000000
     5  C    2.250796   2.568519   2.227125   1.270996   0.000000
     6  C    1.297977   2.221456   2.568517   2.198384   1.284453
     7  Cl   2.625235   3.824997   4.298438   3.793379   2.609438
     8  H    1.501301   2.440309   3.632238   4.070029   3.632241
     9  Cl   2.625233   1.730001   2.609440   3.793377   4.298442
    10  H    3.618566   2.411703   1.487567   2.398100   3.588186
    11  H    3.618577   4.056036   3.588187   2.398108   1.487571
                    6          7          8          9         10
     6  C    0.000000
     7  Cl   1.729999   0.000000
     8  H    2.440316   2.935993   0.000000
     9  Cl   3.825001   5.238778   2.935989   0.000000
    10  H    4.056030   5.785870   4.847274   2.897584   0.000000
    11  H    2.411709   2.897594   4.847287   5.785877   4.787436
                   11
    11  H    0.000000
 Stoichiometry    C6H3Cl2(2)
 Framework group  CS[SG(C6H3Cl2)]
 Deg. of freedom    19
 Full point group                 CS      NOp   2
 Largest Abelian subgroup         CS      NOp   2
 Largest concise Abelian subgroup C1      NOp   1
                         Standard orientation:                         
 ---------------------------------------------------------------------
 Center     Atomic      Atomic             Coordinates (Angstroms)
 Number     Number       Type             X           Y           Z
 ---------------------------------------------------------------------
      1          6           0        0.000000    0.615299    0.000000
      2          6           0        1.110727   -0.056276   -0.000000
      3          6           0        1.113564   -1.340729   -0.000000
      4          6           0        0.000006   -1.953429   -0.000000
      5          6           0       -1.113562   -1.340733   -0.000000
      6          6           0       -1.110729   -0.056284    0.000000
      7         17           0       -2.619390    0.790381    0.000000
      8          1           0       -0.000001    2.116600    0.000000
      9         17           0        2.619388    0.790391   -0.000000
     10          1           0        2.393721   -2.098392   -0.000000
     11          1           0       -2.393715   -2.098412   -0.000000
 ---------------------------------------------------------------------
 Rotational constants (GHZ):           3.3570336           0.9175770           0.7206123
 Standard basis: VSTO-6G (5D, 7F)
 There are    27 symmetry adapted cartesian basis functions of A'  symmetry.
 There are     8 symmetry adapted cartesian basis functions of A"  symmetry.
 There are    27 symmetry adapted basis functions of A'  symmetry.
 There are     8 symmetry adapted basis functions of A"  symmetry.
    35 basis functions,   210 primitive gaussians,    35 cartesian basis functions
    21 alpha electrons       20 beta electrons
       nuclear repulsion energy       199.7139891489 Hartrees.
 Integral buffers will be    131072 words long.
 Regular integral format.
 Two-electron integral symmetry is turned off.
 Do NDO integrals.
 One-electron integrals computed using PRISM.
 NBasis=    35 RedAO= T EigKep=  1.00D+00  NBF=    27     8
 NBsUse=    35 1.00D-06 EigRej= -1.00D+00 NBFU=    27     8
 Initial guess from the checkpoint file:  "geometry_chks/13_ClBzNeutralRadical.chk"
 B after Tr=     0.000000   -0.000000   -0.000000
         Rot=    1.000000   -0.000000   -0.000000   -0.000002 Ang=  -0.00 deg.
 Initial guess orbital symmetries:
 Alpha Orbitals:
       Occupied  (A') (A') (A') (A') (A') (A') (A') (A') (A') (A')
                 (A") (A') (A") (A') (A') (A") (A') (A') (A') (A")
                 (A")
       Virtual   (A") (A") (A') (A') (A') (A') (A') (A") (A') (A')
                 (A') (A') (A') (A')
 Beta  Orbitals:
       Occupied  (A') (A') (A') (A') (A') (A') (A') (A') (A') (A')
                 (A') (A") (A") (A') (A') (A') (A") (A') (A") (A")
       Virtual   (A') (A") (A") (A') (A') (A') (A') (A') (A") (A')
                 (A') (A') (A') (A') (A')
 Initial guess <Sx>= 0.0000 <Sy>= 0.0000 <Sz>= 0.5000 <S**2>= 1.3729 S= 0.7739
 Keep J ints in memory in canonical form, NReq=862793.
 Overlap will be assumed to be unity.
 Requested convergence on RMS density matrix=1.00D-08 within  32 cycles.
 Requested convergence on MAX density matrix=1.00D-06.
 Requested convergence on             energy=1.00D-06.
 No special actions if energy rises.
 Fock symm off for IB=2 I1=    1 I=   28 J=    4 Cut=1.00D-07 Err=2.24D-03
 Fock matrix is not symmetric: symmetry in diagonalization turned off.
 SCF Done:  E(UAM1) =  0.374801438035     A.U. after   19 cycles
            NFock= 18  Conv=0.93D-08     -V/T= 1.0041
 <Sx>= 0.0000 <Sy>= 0.0000 <Sz>= 0.5000 <S**2>= 0.8381 S= 0.5431
 <L.S>=  0.00000000000    
 Annihilation of the first spin contaminant:
 S**2 before annihilation     0.8381,   after     0.7561
 QCSCF skips out because SCF is already converged.
 Calling FoFJK, ICntrl=      2127 FMM=F ISym2X=1 I1Cent= 0 IOpClX= 1 NMat=1 NMatS=1 NMatT=0.
 ***** Axes restored to original set *****
 -------------------------------------------------------------------
 Center     Atomic                   Forces (Hartrees/Bohr)
 Number     Number              X              Y              Z
 -------------------------------------------------------------------
      1        6          -0.240898574    0.130390720    0.000000000
      2        6          -0.026465953    0.213301059    0.000000000
      3        6           0.281264745    0.140043425    0.000000000
      4        6           0.142604143   -0.077200495   -0.000000000
      5        6           0.036550943   -0.312064611    0.000000000
      6        6          -0.193064296   -0.094464346   -0.000000000
      7       17          -0.000785745    0.000548510    0.000000000
      8        1           0.100895779   -0.054614684   -0.000000000
      9       17          -0.000888774    0.000357336   -0.000000000
     10        1          -0.095164037   -0.057314517   -0.000000000
     11        1          -0.004048229    0.111017603   -0.000000000
 -------------------------------------------------------------------
 Cartesian Forces:  Max     0.312064611 RMS     0.114019424

 GradGradGradGradGradGradGradGradGradGradGradGradGradGradGradGradGradGrad
 Berny optimization.
 Using GEDIIS/GDIIS optimizer.
 FormGI is forming the generalized inverse of G from B-inverse, IUseBI=4.
 Internal  Forces:  Max     0.205355718 RMS     0.074595277
 Search for a local minimum.
 Step number   4 out of a maximum of   57
 All quantities printed in internal units (Hartrees-Bohrs-Radians)
 Mixed Optimization -- RFO/linear search
 Update second derivatives using D2CorX and points    2    4    3
 ITU=  0  1  1  0
 Use linear search instead of GDIIS.
     Eigenvalues ---    0.00028   0.02011   0.02011   0.02011   0.02011
     Eigenvalues ---    0.02011   0.02011   0.02011   0.02011   0.06516
     Eigenvalues ---    0.06524   0.15996   0.16000   0.16000   0.21203
     Eigenvalues ---    0.23132   0.23477   0.25000   0.25000   0.26981
     Eigenvalues ---    0.29033   0.39552   0.40388   0.44413   0.44656
     Eigenvalues ---    0.44657   0.94715
 RFO could not converge Lambda in  999 iterations.
 Quartic linear search produced a step of -0.70986.
 Iteration  1 RMS(Cart)=  0.09005296 RMS(Int)=  0.00048940
 Iteration  2 RMS(Cart)=  0.00046451 RMS(Int)=  0.00003531
 Iteration  3 RMS(Cart)=  0.00000036 RMS(Int)=  0.00003531
 ClnCor:  largest displacement from symmetrization is 1.38D-10 for atom     8.
 Variable       Old X    -DE/DX   Delta X   Delta X   Delta X     New X
                                 (Linear)    (Quad)   (Total)
    R1        2.45281   0.18697   0.15205   0.00000   0.15210   2.60491
    R2        2.45282   0.18697   0.15205   0.00000   0.15209   2.60491
    R3        2.83705  -0.11473   0.02993   0.00000   0.02993   2.86698
    R4        2.42727   0.20535   0.17319   0.00000   0.17319   2.60046
    R5        3.26923   0.00037   0.02276   0.00000   0.02276   3.29199
    R6        2.40182   0.18440   0.18066   0.00000   0.18061   2.58243
    R7        2.81109  -0.11109   0.04971   0.00000   0.04971   2.86080
    R8        2.40183   0.18439   0.18066   0.00000   0.18061   2.58244
    R9        2.42726   0.20536   0.17319   0.00000   0.17319   2.60045
   R10        2.81110  -0.11109   0.04970   0.00000   0.04970   2.86080
   R11        3.26922   0.00037   0.02276   0.00000   0.02276   3.29198
    A1        2.05396   0.02129   0.03593   0.00000   0.03603   2.08999
    A2        2.11461  -0.01064  -0.01796   0.00000  -0.01802   2.09660
    A3        2.11461  -0.01064  -0.01796   0.00000  -0.01802   2.09660
    A4        2.11682  -0.01243  -0.01809   0.00000  -0.01803   2.09879
    A5        2.08637   0.00477   0.00617   0.00000   0.00614   2.09252
    A6        2.07999   0.00766   0.01191   0.00000   0.01189   2.09188
    A7        2.07160  -0.00518   0.00311   0.00000   0.00307   2.07467
    A8        2.10741   0.00287  -0.00325   0.00000  -0.00323   2.10418
    A9        2.10418   0.00230   0.00014   0.00000   0.00016   2.10434
   A10        2.13558   0.01393  -0.00598   0.00000  -0.00611   2.12947
   A11        2.07160  -0.00517   0.00311   0.00000   0.00307   2.07466
   A12        2.10417   0.00230   0.00014   0.00000   0.00016   2.10433
   A13        2.10742   0.00287  -0.00325   0.00000  -0.00323   2.10419
   A14        2.11682  -0.01243  -0.01808   0.00000  -0.01803   2.09879
   A15        2.08637   0.00477   0.00617   0.00000   0.00614   2.09251
   A16        2.07999   0.00766   0.01191   0.00000   0.01188   2.09188
    D1       -0.00000   0.00000   0.00000   0.00000   0.00000   0.00000
    D2        3.14159  -0.00000   0.00000   0.00000   0.00000   3.14159
    D3        3.14159   0.00000   0.00000   0.00000   0.00000   3.14159
    D4        0.00000   0.00000   0.00000   0.00000   0.00000   0.00000
    D5       -0.00000   0.00000   0.00000   0.00000   0.00000   0.00000
    D6        3.14159   0.00000   0.00000   0.00000   0.00000   3.14159
    D7        3.14159  -0.00000   0.00000   0.00000   0.00000   3.14159
    D8        0.00000  -0.00000   0.00000   0.00000   0.00000   0.00000
    D9        0.00000   0.00000   0.00000   0.00000  -0.00000   0.00000
   D10        3.14159  -0.00000   0.00000   0.00000   0.00000   3.14159
   D11        3.14159   0.00000   0.00000   0.00000   0.00000   3.14159
   D12       -0.00000  -0.00000   0.00000   0.00000   0.00000   0.00000
   D13        0.00000  -0.00000   0.00000   0.00000   0.00000   0.00000
   D14        3.14159   0.00000   0.00000   0.00000   0.00000   3.14159
   D15       -0.00000   0.00000   0.00000   0.00000   0.00000   0.00000
   D16        3.14159  -0.00000   0.00000   0.00000   0.00000   3.14159
   D17        0.00000  -0.00000   0.00000   0.00000  -0.00000   0.00000
   D18        3.14159  -0.00000   0.00000   0.00000   0.00000   3.14159
   D19        3.14159   0.00000   0.00000   0.00000   0.00000   3.14159
   D20       -0.00000   0.00000   0.00000   0.00000   0.00000   0.00000
         Item               Value     Threshold  Converged?
 Maximum Force            0.205356     0.000450     NO 
 RMS     Force            0.074595     0.000300     NO 
 Maximum Displacement     0.233718     0.001800     NO 
 RMS     Displacement     0.090012     0.001200     NO 
 Predicted change in Energy=-2.589908D-02
 GradGradGradGradGradGradGradGradGradGradGradGradGradGradGradGradGradGrad

                          Input orientation:                          
 ---------------------------------------------------------------------
 Center     Atomic      Atomic             Coordinates (Angstroms)
 Number     Number       Type             X           Y           Z
 ---------------------------------------------------------------------
      1          6           0       -3.189428    0.188685    0.000000
      2          6           0       -2.013439    0.907850   -0.000000
      3          6           0       -0.801818    0.255441   -0.000000
      4          6           0       -0.788250   -1.111057    0.000000
      5          6           0       -1.939799   -1.846890    0.000000
      6          6           0       -3.148539   -1.189170    0.000000
      7         17           0       -4.632412   -2.101766    0.000000
      8          1           0       -4.523645    0.910889   -0.000000
      9         17           0       -2.060717    2.649253   -0.000000
     10          1           0        0.493936    1.038276   -0.000000
     11          1           0       -1.886728   -3.359829    0.000000
 ---------------------------------------------------------------------
                    Distance matrix (angstroms):
                    1          2          3          4          5
     1  C    0.000000
     2  C    1.378459   0.000000
     3  C    2.388543   1.376105   0.000000
     4  C    2.730382   2.361583   1.366565   0.000000
     5  C    2.388543   2.755724   2.390564   1.366571   0.000000
     6  C    1.378462   2.384522   2.755721   2.361582   1.376099
     7  Cl   2.707096   3.989588   4.497764   3.969772   2.704649
     8  H    1.517140   2.510208   3.779102   4.247522   3.779101
     9  Cl   2.707099   1.742045   2.704656   3.969774   4.497769
    10  H    3.780077   2.510765   1.513873   2.502725   3.774553
    11  H    3.780077   4.269560   3.774547   2.502725   1.513870
                    6          7          8          9         10
     6  C    0.000000
     7  Cl   1.742042   0.000000
     8  H    2.510212   3.014618   0.000000
     9  Cl   3.989593   5.402389   3.014619   0.000000
    10  H    4.269560   6.011598   5.019198   3.020182   0.000000
    11  H    2.510763   3.020182   5.019200   6.011601   5.001089
                   11
    11  H    0.000000
 Stoichiometry    C6H3Cl2(2)
 Framework group  CS[SG(C6H3Cl2)]
 Deg. of freedom    19
 Full point group                 CS      NOp   2
 Largest Abelian subgroup         CS      NOp   2
 Largest concise Abelian subgroup C1      NOp   1
                         Standard orientation:                         
 ---------------------------------------------------------------------
 Center     Atomic      Atomic             Coordinates (Angstroms)
 Number     Number       Type             X           Y           Z
 ---------------------------------------------------------------------
      1          6           0        0.000000    0.651745    0.000000
      2          6           0        1.192260   -0.040110    0.000000
      3          6           0        1.195279   -1.416212    0.000000
      4          6           0       -0.000001   -2.078637    0.000000
      5          6           0       -1.195285   -1.416208    0.000000
      6          6           0       -1.192262   -0.040113    0.000000
      7         17           0       -2.701193    0.830426    0.000000
      8          1           0        0.000001    2.168885    0.000000
      9         17           0        2.701196    0.830426    0.000000
     10          1           0        2.500544   -2.183084    0.000000
     11          1           0       -2.500545   -2.183084    0.000000
 ---------------------------------------------------------------------
 Rotational constants (GHZ):           3.0154248           0.8546845           0.6659338
 Standard basis: VSTO-6G (5D, 7F)
 There are    27 symmetry adapted cartesian basis functions of A'  symmetry.
 There are     8 symmetry adapted cartesian basis functions of A"  symmetry.
 There are    27 symmetry adapted basis functions of A'  symmetry.
 There are     8 symmetry adapted basis functions of A"  symmetry.
    35 basis functions,   210 primitive gaussians,    35 cartesian basis functions
    21 alpha electrons       20 beta electrons
       nuclear repulsion energy       194.2902712411 Hartrees.
 Integral buffers will be    131072 words long.
 Regular integral format.
 Two-electron integral symmetry is turned off.
 Do NDO integrals.
 One-electron integrals computed using PRISM.
 NBasis=    35 RedAO= T EigKep=  1.00D+00  NBF=    27     8
 NBsUse=    35 1.00D-06 EigRej= -1.00D+00 NBFU=    27     8
 Lowest energy guess from the checkpoint file:  "geometry_chks/13_ClBzNeutralRadical.chk"
 B after Tr=    -0.000000    0.000000    0.000000
         Rot=    1.000000   -0.000000   -0.000000   -0.000000 Ang=  -0.00 deg.
 B after Tr=    -0.000000    0.000000    0.000000
         Rot=    1.000000    0.000000    0.000000    0.000001 Ang=   0.00 deg.
 Initial guess orbital symmetries:
 Alpha Orbitals:
       Occupied  (A") (A") (A') (A") (A') (A') (A') (A') (A') (A')
                 (A') (A') (A') (A') (A") (A") (A") (A") (A") (A")
                 (A")
[...]
 Iteration  2 RMS(Cart)=  0.00000001 RMS(Int)=  0.00000000
 ClnCor:  largest displacement from symmetrization is 1.26D-13 for atom    11.
 Variable       Old X    -DE/DX   Delta X   Delta X   Delta X     New X
                                 (Linear)    (Quad)   (Total)
    R1        2.65846  -0.00009  -0.00004  -0.00009  -0.00013   2.65833
    R2        2.65846  -0.00009  -0.00004  -0.00009  -0.00013   2.65833
    R3        2.08137  -0.00000   0.00008  -0.00008  -0.00000   2.08137
    R4        2.67216  -0.00009  -0.00004  -0.00007  -0.00011   2.67205
    R5        3.19811  -0.00000   0.00002  -0.00007  -0.00005   3.19806
    R6        2.58912  -0.00013  -0.00008  -0.00012  -0.00021   2.58891
    R7        2.07277   0.00001   0.00009  -0.00013  -0.00004   2.07273
    R8        2.58912  -0.00013  -0.00008  -0.00012  -0.00020   2.58891
    R9        2.67216  -0.00009  -0.00004  -0.00006  -0.00011   2.67205
   R10        2.07275   0.00001   0.00009  -0.00004   0.00005   2.07280
   R11        3.19811  -0.00000   0.00002  -0.00007  -0.00005   3.19806
    A1        2.10252   0.00002   0.00003   0.00011   0.00015   2.10267
    A2        2.09033  -0.00001  -0.00002  -0.00006  -0.00007   2.09026
    A3        2.09033  -0.00001  -0.00002  -0.00006  -0.00007   2.09026
    A4        2.10432  -0.00002  -0.00002  -0.00009  -0.00011   2.10421
    A5        2.08906   0.00004  -0.00002   0.00017   0.00015   2.08921
    A6        2.08980  -0.00001   0.00004  -0.00008  -0.00004   2.08976
    A7        1.99450  -0.00000  -0.00005   0.00002  -0.00003   1.99447
    A8        2.13843  -0.00001   0.00004  -0.00010  -0.00005   2.13837
    A9        2.15026   0.00001   0.00001   0.00007   0.00008   2.15034
   A10        2.26621   0.00003   0.00011   0.00003   0.00013   2.26634
   A11        1.99450  -0.00000  -0.00005   0.00002  -0.00003   1.99447
   A12        2.15026   0.00001   0.00001   0.00007   0.00008   2.15034
   A13        2.13843  -0.00001   0.00004  -0.00009  -0.00005   2.13837
   A14        2.10432  -0.00002  -0.00002  -0.00009  -0.00011   2.10421
   A15        2.08906   0.00004  -0.00002   0.00017   0.00015   2.08921
   A16        2.08980  -0.00001   0.00004  -0.00008  -0.00004   2.08976
    D1        0.00000  -0.00000   0.00000  -0.00000   0.00000   0.00000
    D2        3.14159  -0.00000   0.00000  -0.00000   0.00000   3.14159
    D3        3.14159   0.00000   0.00000   0.00000   0.00000   3.14159
    D4        0.00000   0.00000   0.00000   0.00000   0.00000   0.00000
    D5        0.00000   0.00000   0.00000   0.00000   0.00000   0.00000
    D6        3.14159   0.00000   0.00000   0.00000   0.00000   3.14159
    D7        3.14159  -0.00000   0.00000  -0.00000   0.00000   3.14159
    D8        0.00000  -0.00000   0.00000  -0.00000   0.00000   0.00000
    D9        0.00000   0.00000   0.00000  -0.00000   0.00000   0.00000
   D10        3.14159  -0.00000   0.00000  -0.00000   0.00000   3.14159
   D11        3.14159   0.00000   0.00000   0.00000   0.00000   3.14159
   D12        0.00000   0.00000   0.00000   0.00000   0.00000   0.00000
   D13        0.00000  -0.00000   0.00000  -0.00000   0.00000   0.00000
   D14        3.14159   0.00000   0.00000   0.00000   0.00000   3.14159
   D15        0.00000   0.00000   0.00000   0.00000   0.00000   0.00000
   D16        3.14159  -0.00000   0.00000  -0.00000   0.00000   3.14159
   D17        0.00000  -0.00000   0.00000  -0.00000   0.00000   0.00000
   D18        3.14159  -0.00000   0.00000  -0.00000   0.00000   3.14159
   D19        3.14159   0.00000   0.00000   0.00000   0.00000   3.14159
   D20        0.00000   0.00000   0.00000   0.00000   0.00000   0.00000
         Item               Value     Threshold  Converged?
 Maximum Force            0.000135     0.000450     YES
 RMS     Force            0.000040     0.000300     YES
 Maximum Displacement     0.000310     0.001800     YES
 RMS     Displacement     0.000098     0.001200     YES
 Predicted change in Energy=-6.287270D-08
 Optimization completed.
    -- Stationary point found.
                           ----------------------------
                           !   Optimized Parameters   !
                           ! (Angstroms and Degrees)  !
 --------------------------                            --------------------------
 ! Name  Definition              Value          Derivative Info.                !
 --------------------------------------------------------------------------------
 ! R1    R(1,2)                  1.4068         -DE/DX =   -0.0001              !
 ! R2    R(1,6)                  1.4068         -DE/DX =   -0.0001              !
 ! R3    R(1,8)                  1.1014         -DE/DX =    0.0                 !
 ! R4    R(2,3)                  1.414          -DE/DX =   -0.0001              !
 ! R5    R(2,9)                  1.6924         -DE/DX =    0.0                 !
 ! R6    R(3,4)                  1.3701         -DE/DX =   -0.0001              !
 ! R7    R(3,10)                 1.0969         -DE/DX =    0.0                 !
 ! R8    R(4,5)                  1.3701         -DE/DX =   -0.0001              !
 ! R9    R(5,6)                  1.414          -DE/DX =   -0.0001              !
 ! R10   R(5,11)                 1.0969         -DE/DX =    0.0                 !
 ! R11   R(6,7)                  1.6924         -DE/DX =    0.0                 !
 ! A1    A(2,1,6)              120.4657         -DE/DX =    0.0                 !
 ! A2    A(2,1,8)              119.7672         -DE/DX =    0.0                 !
 ! A3    A(6,1,8)              119.7672         -DE/DX =    0.0                 !
 ! A4    A(1,2,3)              120.5685         -DE/DX =    0.0                 !
 ! A5    A(1,2,9)              119.6946         -DE/DX =    0.0                 !
 ! A6    A(3,2,9)              119.7369         -DE/DX =    0.0                 !
 ! A7    A(2,3,4)              114.2764         -DE/DX =    0.0                 !
 ! A8    A(2,3,10)             122.5228         -DE/DX =    0.0                 !
 ! A9    A(4,3,10)             123.2008         -DE/DX =    0.0                 !
 ! A10   A(3,4,5)              129.8445         -DE/DX =    0.0                 !
 ! A11   A(4,5,6)              114.2764         -DE/DX =    0.0                 !
 ! A12   A(4,5,11)             123.2008         -DE/DX =    0.0                 !
 ! A13   A(6,5,11)             122.5228         -DE/DX =    0.0                 !
 ! A14   A(1,6,5)              120.5685         -DE/DX =    0.0                 !
 ! A15   A(1,6,7)              119.6946         -DE/DX =    0.0                 !
 ! A16   A(5,6,7)              119.7369         -DE/DX =    0.0                 !
 ! D1    D(6,1,2,3)              0.0            -DE/DX =    0.0                 !
 ! D2    D(6,1,2,9)            180.0            -DE/DX =    0.0                 !
 ! D3    D(8,1,2,3)            180.0            -DE/DX =    0.0                 !
 ! D4    D(8,1,2,9)              0.0            -DE/DX =    0.0                 !
 ! D5    D(2,1,6,5)              0.0            -DE/DX =    0.0                 !
 ! D6    D(2,1,6,7)            180.0            -DE/DX =    0.0                 !
 ! D7    D(8,1,6,5)            180.0            -DE/DX =    0.0                 !
 ! D8    D(8,1,6,7)              0.0            -DE/DX =    0.0                 !
 ! D9    D(1,2,3,4)              0.0            -DE/DX =    0.0                 !
 ! D10   D(1,2,3,10)           180.0            -DE/DX =    0.0                 !
 ! D11   D(9,2,3,4)            180.0            -DE/DX =    0.0                 !
 ! D12   D(9,2,3,10)             0.0            -DE/DX =    0.0                 !
 ! D13   D(2,3,4,5)              0.0            -DE/DX =    0.0                 !
 ! D14   D(10,3,4,5)           180.0            -DE/DX =    0.0                 !
 ! D15   D(3,4,5,6)              0.0            -DE/DX =    0.0                 !
 ! D16   D(3,4,5,11)           180.0            -DE/DX =    0.0                 !
 ! D17   D(4,5,6,1)              0.0            -DE/DX =    0.0                 !
 ! D18   D(4,5,6,7)            180.0            -DE/DX =    0.0                 !
 ! D19   D(11,5,6,1)           180.0            -DE/DX =    0.0                 !
 ! D20   D(11,5,6,7)             0.0            -DE/DX =    0.0                 !
 --------------------------------------------------------------------------------
 GradGradGradGradGradGradGradGradGradGradGradGradGradGradGradGradGradGrad

                          Input orientation:                          
 ---------------------------------------------------------------------
 Center     Atomic      Atomic             Coordinates (Angstroms)
 Number     Number       Type             X           Y           Z
 ---------------------------------------------------------------------
      1          6           0       -3.207277    0.198345    0.000000
      2          6           0       -2.011733    0.939800    0.000000
      3          6           0       -0.758888    0.284131    0.000000
      4          6           0       -0.838918   -1.083632    0.000000
      5          6           0       -1.940343   -1.898520    0.000000
      6          6           0       -3.174360   -1.208068    0.000000
      7         17           0       -4.624465   -2.080596    0.000000
      8          1           0       -4.175894    0.722652    0.000000
      9         17           0       -2.074098    2.631019    0.000000
     10          1           0        0.192434    0.830108    0.000000
     11          1           0       -1.877299   -2.993558    0.000000
 ---------------------------------------------------------------------
                    Distance matrix (angstroms):
                    1          2          3          4          5
     1  C    0.000000
     2  C    1.406798   0.000000
     3  C    2.449891   1.414044   0.000000
     4  C    2.693063   2.338754   1.370102   0.000000
     5  C    2.449891   2.839218   2.481895   1.370102   0.000000
     6  C    1.406798   2.442343   2.839218   2.338754   1.414044
     7  Cl   2.683653   3.993640   4.531514   3.914627   2.690290
     8  H    1.101416   2.175029   3.445030   3.794479   3.445030
     9  Cl   2.683653   1.692368   2.690290   3.914627   4.531513
    10  H    3.457912   2.206894   1.096861   2.173957   3.463257
    11  H    3.457903   3.935655   3.463248   2.173948   1.096851
                    6          7          8          9         10
     6  C    0.000000
     7  Cl   1.692368   0.000000
     8  H    2.175029   2.838911   0.000000
     9  Cl   3.993640   5.357582   2.838911   0.000000
    10  H    3.935665   5.628029   4.369650   2.894900   0.000000
    11  H    2.206886   2.894896   4.369641   5.628019   4.347898
                   11
    11  H    0.000000
 Stoichiometry    C6H3Cl2(2)
 Framework group  CS[SG(C6H3Cl2)]
 Deg. of freedom    19
 Full point group                 CS      NOp   2
 Largest Abelian subgroup         CS      NOp   2
 Largest concise Abelian subgroup C1      NOp   1
                         Standard orientation:                         
 ---------------------------------------------------------------------
 Center     Atomic      Atomic             Coordinates (Angstroms)
 Number     Number       Type             X           Y           Z
 ---------------------------------------------------------------------
      1          6           0        0.666774    0.000000    0.000000
      2          6           0       -0.031669   -1.221171    0.000000
      3          6           0       -1.445574   -1.240947    0.000000
      4          6           0       -2.026290    0.000000    0.000000
      5          6           0       -1.445574    1.240947    0.000000
      6          6           0       -0.031669    1.221172    0.000000
      7         17           0        0.828247    2.678791    0.000000
      8          1           0        1.768190    0.000000    0.000000
      9         17           0        0.828247   -2.678791    0.000000
     10          1           0       -2.022294   -2.173953    0.000000
     11          1           0       -2.022288    2.173945    0.000000
 ---------------------------------------------------------------------
 Rotational constants (GHZ):           3.0806425           0.8651637           0.6754666

 **********************************************************************

            Population analysis using the SCF Density.

 **********************************************************************

 Orbital symmetries:
 Alpha Orbitals:
       Occupied  (A') (A') (A') (A') (A') (A') (A') (A') (A') (A')
                 (A') (A") (A') (A") (A') (A') (A") (A') (A') (A")
                 (A")
       Virtual   (A") (A") (A') (A') (A") (A') (A') (A') (A') (A')
                 (A') (A') (A') (A')
 Beta  Orbitals:
       Occupied  (A') (A') (A') (A') (A') (A') (A') (A') (A') (A')
                 (A') (A") (A') (A") (A') (A') (A") (A') (A") (A")
       Virtual   (A") (A') (A") (A') (A') (A") (A') (A') (A') (A')
                 (A') (A') (A') (A') (A')
 The electronic state is 2-A'.
 Alpha  occ. eigenvalues --   -1.47371  -1.40591  -1.37907  -1.16694  -1.15453
 Alpha  occ. eigenvalues --   -0.88525  -0.86320  -0.67758  -0.62948  -0.62316
 Alpha  occ. eigenvalues --   -0.57613  -0.55896  -0.51754  -0.50784  -0.49368
 Alpha  occ. eigenvalues --   -0.46620  -0.45727  -0.44315  -0.39540  -0.38126
 Alpha  occ. eigenvalues --   -0.36453
 Alpha virt. eigenvalues --   -0.00467   0.00167   0.02625   0.04044   0.07926
 Alpha virt. eigenvalues --    0.12698   0.12795   0.12881   0.14533   0.15151
 Alpha virt. eigenvalues --    0.17008   0.17132   0.18246   0.18593
  Beta  occ. eigenvalues --   -1.46664  -1.40317  -1.37565  -1.16813  -1.14422
  Beta  occ. eigenvalues --   -0.88130  -0.83882  -0.67060  -0.62043  -0.61777
  Beta  occ. eigenvalues --   -0.57278  -0.55154  -0.50973  -0.49704  -0.49065
  Beta  occ. eigenvalues --   -0.45843  -0.44948  -0.44296  -0.38081  -0.37293
  Beta virt. eigenvalues --   -0.00796  -0.00742   0.01380   0.04448   0.05364
  Beta virt. eigenvalues --    0.08575   0.12049   0.12758   0.13572   0.14654
  Beta virt. eigenvalues --    0.15278   0.16917   0.17030   0.18827   0.20089
          Condensed to atoms (all electrons):
               1          2          3          4          5          6
     1  C    4.132320   0.000000   0.000000   0.000000   0.000000   0.000000
     2  C    0.000000   4.056589   0.000000   0.000000   0.000000   0.000000
     3  C    0.000000   0.000000   4.112521   0.000000   0.000000   0.000000
     4  C    0.000000   0.000000   0.000000   4.055959   0.000000   0.000000
     5  C    0.000000   0.000000   0.000000   0.000000   4.112520   0.000000
     6  C    0.000000   0.000000   0.000000   0.000000   0.000000   4.056589
     7  Cl   0.000000   0.000000   0.000000   0.000000   0.000000   0.000000
     8  H    0.000000   0.000000   0.000000   0.000000   0.000000   0.000000
     9  Cl   0.000000   0.000000   0.000000   0.000000   0.000000   0.000000
    10  H    0.000000   0.000000   0.000000   0.000000   0.000000   0.000000
    11  H    0.000000   0.000000   0.000000   0.000000   0.000000   0.000000
               7          8          9         10         11
     1  C    0.000000   0.000000   0.000000   0.000000   0.000000
     2  C    0.000000   0.000000   0.000000   0.000000   0.000000
     3  C    0.000000   0.000000   0.000000   0.000000   0.000000
     4  C    0.000000   0.000000   0.000000   0.000000   0.000000
     5  C    0.000000   0.000000   0.000000   0.000000   0.000000
     6  C    0.000000   0.000000   0.000000   0.000000   0.000000
     7  Cl   6.991681   0.000000   0.000000   0.000000   0.000000
     8  H    0.000000   0.836019   0.000000   0.000000   0.000000
     9  Cl   0.000000   0.000000   6.991681   0.000000   0.000000
    10  H    0.000000   0.000000   0.000000   0.827060   0.000000
    11  H    0.000000   0.000000   0.000000   0.000000   0.827061
          Atomic-Atomic Spin Densities.
               1          2          3          4          5          6
     1  C   -0.469211   0.000000   0.000000   0.000000   0.000000   0.000000
     2  C    0.000000   0.486936   0.000000   0.000000   0.000000   0.000000
     3  C    0.000000   0.000000  -0.498969   0.000000   0.000000   0.000000
     4  C    0.000000   0.000000   0.000000   1.370749   0.000000   0.000000
     5  C    0.000000   0.000000   0.000000   0.000000  -0.498968   0.000000
     6  C    0.000000   0.000000   0.000000   0.000000   0.000000   0.486936
     7  Cl   0.000000   0.000000   0.000000   0.000000   0.000000   0.000000
     8  H    0.000000   0.000000   0.000000   0.000000   0.000000   0.000000
     9  Cl   0.000000   0.000000   0.000000   0.000000   0.000000   0.000000
    10  H    0.000000   0.000000   0.000000   0.000000   0.000000   0.000000
    11  H    0.000000   0.000000   0.000000   0.000000   0.000000   0.000000
               7          8          9         10         11
     1  C    0.000000   0.000000   0.000000   0.000000   0.000000
     2  C    0.000000   0.000000   0.000000   0.000000   0.000000
     3  C    0.000000   0.000000   0.000000   0.000000   0.000000
     4  C    0.000000   0.000000   0.000000   0.000000   0.000000
     5  C    0.000000   0.000000   0.000000   0.000000   0.000000
     6  C    0.000000   0.000000   0.000000   0.000000   0.000000
     7  Cl   0.014546   0.000000   0.000000   0.000000   0.000000
     8  H    0.000000   0.027418   0.000000   0.000000   0.000000
     9  Cl   0.000000   0.000000   0.014546   0.000000   0.000000
    10  H    0.000000   0.000000   0.000000   0.033008   0.000000
    11  H    0.000000   0.000000   0.000000   0.000000   0.033007
 Mulliken charges and spin densities:
               1          2
     1  C   -0.132320  -0.469211
     2  C   -0.056589   0.486936
     3  C   -0.112521  -0.498969
     4  C   -0.055959   1.370749
     5  C   -0.112520  -0.498968
     6  C   -0.056589   0.486936
     7  Cl   0.008319   0.014546
     8  H    0.163981   0.027418
     9  Cl   0.008319   0.014546
    10  H    0.172940   0.033008
    11  H    0.172939   0.033007
 Sum of Mulliken charges =  -0.00000   1.00000
 Mulliken charges and spin densities with hydrogens summed into heavy atoms:
               1          2
     1  C    0.031661  -0.441792
     2  C   -0.056589   0.486936
     3  C    0.060419  -0.465961
     4  C   -0.055959   1.370749
     5  C    0.060419  -0.465961
     6  C   -0.056589   0.486936
     7  Cl   0.008319   0.014546
     9  Cl   0.008319   0.014546
 Charge=             -0.0000 electrons
 Dipole moment (field-independent basis, Debye):
    X=             -0.0853    Y=             -0.0000    Z=              0.0000  Tot=              0.0853
 N-N= 1.963936913829D+02 E-N=-2.717066447418D+02  KE=-9.055713518047D+01
 Symmetry A'   KE=-7.016845651928D+01
 Symmetry A"   KE=-2.038867866119D+01
 Symmetry A'   SP= 1.000000000000D+00
 Symmetry A"   SP= 2.275957200482D-15
 1\1\GINC-SH02-01N21\FOpt\UAM1\ZDO\C6H3Cl2(2)\JLAPIER\09-Dec-2025\0\\# 
 opt am1 SCF=XQC\\Neutral Radical (removed 5) 13_\\0,2\C,-3.2072767189,
 0.1983451387,0.\C,-2.0117325469,0.9398001224,0.\C,-0.7588882277,0.2841
 309042,0.\C,-0.838917964,-1.0836322164,0.\C,-1.940343346,-1.8985201835
 ,0.\C,-3.1743597095,-1.2080678884,0.\Cl,-4.6244646007,-2.0805962692,0.
 \H,-4.1758943075,0.7226515828,0.\Cl,-2.0740979605,2.6310188237,0.\H,0.
 1924339041,0.8301083177,0.\H,-1.8772985224,-2.993558332,0.\\Version=ES
 64L-G16RevB.01\State=2-A'\HF=0.0948761\S2=1.247185\S2-1=0.\S2A=0.96519
 1\RMSD=9.239e-09\RMSF=5.109e-05\Dipole=0.0294987,-0.0159623,0.\PG=CS [
 SG(C6H3Cl2)]\\@


 E PUR SI MUOVE    -- GALILEO GALILEI
 Job cpu time:       0 days  0 hours  0 minutes 11.5 seconds.
 Elapsed time:       0 days  0 hours  0 minutes 23.4 seconds.
 File lengths (MBytes):  RWF=     10 Int=      0 D2E=      0 Chk=      2 Scr=      1
 Normal termination of Gaussian 16 at Tue Dec  9 09:59:06 2025.
