 Entering Gaussian System, Link 0=g16
 Initial command:
 /share/software/user/restricted/gaussian/g16.B01/l1.exe "/home/users/jlapier/Chloroaromatics/Gau-14521.inp" -scrdir="/home/users/jlapier/Chloroaromatics/"
 Entering Link 1 = /share/software/user/restricted/gaussian/g16.B01/l1.exe PID=     14522.
  
 Copyright (c) 1988-2017, Gaussian, Inc.  All Rights Reserved.
  
 This is part of the Gaussian(R) 16 program.  It is based on
 the Gaussian(R) 09 system (copyright 2009, Gaussian, Inc.),
 the Gaussian(R) 03 system (copyright 2003, Gaussian, Inc.),
 the Gaussian(R) 98 system (copyright 1998, Gaussian, Inc.),
 the Gaussian(R) 94 system (copyright 1995, Gaussian, Inc.),
 the Gaussian 92(TM) system (copyright 1992, Gaussian, Inc.),
 the Gaussian 90(TM) system (copyright 1990, Gaussian, Inc.),
 the Gaussian 88(TM) system (copyright 1988, Gaussian, Inc.),
 the Gaussian 86(TM) system (copyright 1986, Carnegie Mellon
 University), and the Gaussian 82(TM) system (copyright 1983,
 Carnegie Mellon University). Gaussian is a federally registered
 trademark of Gaussian, Inc.
  
 This software contains proprietary and confidential information,
 including trade secrets, belonging to Gaussian, Inc.
  
 This software is provided under written license and may be
 used, copied, transmitted, or stored only in accord with that
 written license.
  
 The following legend is applicable only to US Government
 contracts under FAR:
  
                    RESTRICTED RIGHTS LEGEND
  
 Use, reproduction and disclosure by the US Government is
 subject to restrictions as set forth in subparagraphs (a)
 and (c) of the Commercial Computer Software - Restricted
 Rights clause in FAR 52.227-19.
  
 Gaussian, Inc.
 340 Quinnipiac St., Bldg. 40, Wallingford CT 06492
  
  
 ---------------------------------------------------------------
 Warning -- This program may not be used in any manner that
 competes with the business of Gaussian, Inc. or will provide
 assistance to any competitor of Gaussian, Inc.  The licensee
 of this program is prohibited from giving any competitor of
 Gaussian, Inc. access to this program.  By using this program,
 the user acknowledges that Gaussian, Inc. is engaged in the
 business of creating and licensing software in the field of
 computational chemistry and represents and warrants to the
 licensee that it is not a competitor of Gaussian, Inc. and that
 it will not use this program in any manner prohibited above.
 ---------------------------------------------------------------
  

 Cite this work as:
 Gaussian 16, Revision B.01,
 M. J. Frisch, G. W. Trucks, H. B. Schlegel, G. E. Scuseria, 
 M. A. Robb, J. R. Cheeseman, G. Scalmani, V. Barone, 
 G. A. Petersson, H. Nakatsuji, X. Li, M. Caricato, A. V. Marenich, 
 J. Bloino, B. G. Janesko, R. Gomperts, B. Mennucci, H. P. Hratchian, 
 J. V. Ortiz, A. F. Izmaylov, J. L. Sonnenberg, D. Williams-Young, 
 F. Ding, F. Lipparini, F. Egidi, J. Goings, B. Peng, A. Petrone, 
 T. Henderson, D. Ranasinghe, V. G. Zakrzewski, J. Gao, N. Rega, 
 G. Zheng, W. Liang, M. Hada, M. Ehara, K. Toyota, R. Fukuda, 
 J. Hasegawa, M. Ishida, T. Nakajima, Y. Honda, O. Kitao, H. Nakai, 
 T. Vreven, K. Throssell, J. A. Montgomery, Jr., J. E. Peralta, 
 F. Ogliaro, M. J. Bearpark, J. J. Heyd, E. N. Brothers, K. N. Kudin, 
 V. N. Staroverov, T. A. Keith, R. Kobayashi, J. Normand, 
 K. Raghavachari, A. P. Rendell, J. C. Burant, S. S. Iyengar, 
 J. Tomasi, M. Cossi, J. M. Millam, M. Klene, C. Adamo, R. Cammi, 
 J. W. Ochterski, R. L. Martin, K. Morokuma, O. Farkas, 
 J. B. Foresman, and D. J. Fox, Gaussian, Inc., Wallingford CT, 2016.
 
 ******************************************
 Gaussian 16:  ES64L-G16RevB.01 20-Dec-2017
                 9-Dec-2025 
 ******************************************
 %mem=2GB
 %nprocshare=1
 Will use up to    1 processors via shared memory.
 %chk=geometry_chks/13ClBz.chk
 -----------------
 # opt am1 SCF=XQC
 -----------------
 1/18=20,19=15,26=1,38=1/1,3;
 2/9=110,12=2,17=6,18=5,40=1/2;
 3/5=2,25=1,41=700000,71=1/1,2,3;
 4/35=1/1;
 5/5=2,8=3,13=1,35=1,38=5/2,8;
 6/7=2,8=2,9=2,10=2,28=1/1;
 7//1,2,3,16;
 1/18=20,19=15,26=1/3(2);
 2/9=110/2;
 99//99;
 2/9=110/2;
 3/5=2,25=1,41=700000,71=1,135=20/1,2,3;
 4/5=5,16=3,35=1/1;
 5/5=2,8=3,13=1,35=1,38=5/2,8;
 7//1,2,3,16;
 1/18=20,19=15,26=1/3(-5);
 2/9=110/2;
 6/7=2,8=2,9=2,10=2,19=2,28=1/1;
 99/9=1/99;
 ---------------------
 2-Chloro-Benzene (13)
 ---------------------
 Symbolic Z-matrix:
 Charge =  0 Multiplicity = 1
 C                    -3.20928   0.19943   0. 
 C                    -2.0115    0.93555   0. 
 C                    -0.77511   0.2663    0. 
 C                    -0.7365   -1.13907   0. 
 C                    -1.93429  -1.87519   0. 
 C                    -3.17067  -1.20594   0. 
 Cl                   -4.67483  -2.13035   0. 
 H                    -4.76193   1.03987   0. 
 Cl                   -2.05998   2.7004    0. 
 H                     0.72905   1.19071   0. 
 H                     0.81614  -1.97951   0. 
 H                    -1.8858   -3.64003   0. 
 
 Add virtual bond connecting atoms H12        and C5         Dist= 3.34D+00.
 Add virtual bond connecting atoms H11        and C4         Dist= 3.34D+00.
 Add virtual bond connecting atoms H10        and C3         Dist= 3.34D+00.
 Add virtual bond connecting atoms H8         and C1         Dist= 3.34D+00.

 GradGradGradGradGradGradGradGradGradGradGradGradGradGradGradGradGradGrad
 Berny optimization.
 Initialization pass.
                           ----------------------------
                           !    Initial Parameters    !
                           ! (Angstroms and Degrees)  !
 --------------------------                            --------------------------
 ! Name  Definition              Value          Derivative Info.                !
 --------------------------------------------------------------------------------
 ! R1    R(1,2)                  1.4059         estimate D2E/DX2                !
 ! R2    R(1,6)                  1.4059         estimate D2E/DX2                !
 ! R3    R(1,8)                  1.7655         estimate D2E/DX2                !
 ! R4    R(2,3)                  1.4059         estimate D2E/DX2                !
 ! R5    R(2,9)                  1.7655         estimate D2E/DX2                !
 ! R6    R(3,4)                  1.4059         estimate D2E/DX2                !
 ! R7    R(3,10)                 1.7655         estimate D2E/DX2                !
 ! R8    R(4,5)                  1.4059         estimate D2E/DX2                !
 ! R9    R(4,11)                 1.7655         estimate D2E/DX2                !
 ! R10   R(5,6)                  1.4059         estimate D2E/DX2                !
 ! R11   R(5,12)                 1.7655         estimate D2E/DX2                !
 ! R12   R(6,7)                  1.7655         estimate D2E/DX2                !
 ! A1    A(2,1,6)              119.9999         estimate D2E/DX2                !
 ! A2    A(2,1,8)              119.9999         estimate D2E/DX2                !
 ! A3    A(6,1,8)              120.0001         estimate D2E/DX2                !
 ! A4    A(1,2,3)              120.0            estimate D2E/DX2                !
 ! A5    A(1,2,9)              120.0001         estimate D2E/DX2                !
 ! A6    A(3,2,9)              119.9999         estimate D2E/DX2                !
 ! A7    A(2,3,4)              120.0001         estimate D2E/DX2                !
 ! A8    A(2,3,10)             120.0            estimate D2E/DX2                !
 ! A9    A(4,3,10)             119.9999         estimate D2E/DX2                !
 ! A10   A(3,4,5)              119.9997         estimate D2E/DX2                !
 ! A11   A(3,4,11)             120.0003         estimate D2E/DX2                !
 ! A12   A(5,4,11)             120.0            estimate D2E/DX2                !
 ! A13   A(4,5,6)              120.0            estimate D2E/DX2                !
 ! A14   A(4,5,12)             119.9996         estimate D2E/DX2                !
 ! A15   A(6,5,12)             120.0004         estimate D2E/DX2                !
 ! A16   A(1,6,5)              120.0003         estimate D2E/DX2                !
 ! A17   A(1,6,7)              119.9999         estimate D2E/DX2                !
 ! A18   A(5,6,7)              119.9998         estimate D2E/DX2                !
 ! D1    D(6,1,2,3)              0.0            estimate D2E/DX2                !
 ! D2    D(6,1,2,9)            180.0            estimate D2E/DX2                !
 ! D3    D(8,1,2,3)            180.0            estimate D2E/DX2                !
 ! D4    D(8,1,2,9)              0.0            estimate D2E/DX2                !
 ! D5    D(2,1,6,5)              0.0            estimate D2E/DX2                !
 ! D6    D(2,1,6,7)            180.0            estimate D2E/DX2                !
 ! D7    D(8,1,6,5)            180.0            estimate D2E/DX2                !
 ! D8    D(8,1,6,7)              0.0            estimate D2E/DX2                !
 ! D9    D(1,2,3,4)              0.0            estimate D2E/DX2                !
 ! D10   D(1,2,3,10)           180.0            estimate D2E/DX2                !
 ! D11   D(9,2,3,4)            180.0            estimate D2E/DX2                !
 ! D12   D(9,2,3,10)             0.0            estimate D2E/DX2                !
 ! D13   D(2,3,4,5)              0.0            estimate D2E/DX2                !
 ! D14   D(2,3,4,11)           180.0            estimate D2E/DX2                !
 ! D15   D(10,3,4,5)           180.0            estimate D2E/DX2                !
 ! D16   D(10,3,4,11)            0.0            estimate D2E/DX2                !
 ! D17   D(3,4,5,6)              0.0            estimate D2E/DX2                !
 ! D18   D(3,4,5,12)           180.0            estimate D2E/DX2                !
 ! D19   D(11,4,5,6)           180.0            estimate D2E/DX2                !
 ! D20   D(11,4,5,12)            0.0            estimate D2E/DX2                !
 ! D21   D(4,5,6,1)              0.0            estimate D2E/DX2                !
 ! D22   D(4,5,6,7)            180.0            estimate D2E/DX2                !
 ! D23   D(12,5,6,1)           180.0            estimate D2E/DX2                !
 ! D24   D(12,5,6,7)             0.0            estimate D2E/DX2                !
 --------------------------------------------------------------------------------
 Trust Radius=3.00D-01 FncErr=1.00D-07 GrdErr=1.00D-07 EigMax=2.50D+02 EigMin=1.00D-04
 Number of steps in this run=     64 maximum allowed number of steps=    100.
 GradGradGradGradGradGradGradGradGradGradGradGradGradGradGradGradGradGrad

                          Input orientation:                          
 ---------------------------------------------------------------------
 Center     Atomic      Atomic             Coordinates (Angstroms)
 Number     Number       Type             X           Y           Z
 ---------------------------------------------------------------------
      1          6           0       -3.209280    0.199430    0.000000
      2          6           0       -2.011500    0.935550    0.000000
      3          6           0       -0.775110    0.266300    0.000000
      4          6           0       -0.736500   -1.139070    0.000000
      5          6           0       -1.934290   -1.875190    0.000000
      6          6           0       -3.170670   -1.205940    0.000000
      7         17           0       -4.674830   -2.130350    0.000000
      8          1           0       -4.761930    1.039870    0.000000
      9         17           0       -2.059980    2.700400    0.000000
     10          1           0        0.729050    1.190710    0.000000
     11          1           0        0.816140   -1.979510    0.000000
     12          1           0       -1.885800   -3.640030    0.000000
 ---------------------------------------------------------------------
                    Distance matrix (angstroms):
                    1          2          3          4          5
     1  C    0.000000
     2  C    1.405898   0.000000
     3  C    2.435088   1.405900   0.000000
     4  C    2.811801   2.435092   1.405900   0.000000
     5  C    2.435087   2.811800   2.435093   1.405907   0.000000
     6  C    1.405900   2.435088   2.811796   2.435088   1.405892
     7  Cl   2.752401   4.061166   4.577308   4.061167   2.752393
     8  H    1.765520   2.752408   4.061175   4.577321   4.061173
     9  Cl   2.752406   1.765516   2.752405   4.061173   4.577316
    10  H    4.061167   2.752403   1.765512   2.752401   4.061173
    11  H    4.577312   4.061173   2.752406   1.765511   2.752408
    12  H    4.061164   4.577306   4.061163   2.752397   1.765506
                    6          7          8          9         10
     6  C    0.000000
     7  Cl   1.765512   0.000000
     8  H    2.752412   3.171416   0.000000
     9  Cl   4.061173   5.493049   3.171418   0.000000
    10  H    4.577308   6.342819   5.493051   3.171412   0.000000
    11  H    4.061165   5.493041   6.342832   5.493052   3.171416
    12  H    2.752396   3.171407   5.493049   6.342822   5.493040
                   11         12
    11  H    0.000000
    12  H    3.171404   0.000000
 Stoichiometry    C6H4Cl2
 Framework group  CS[SG(C6H4Cl2)]
 Deg. of freedom    21
 Full point group                 CS      NOp   2
 Largest Abelian subgroup         CS      NOp   2
 Largest concise Abelian subgroup C1      NOp   1
                         Standard orientation:                         
 ---------------------------------------------------------------------
 Center     Atomic      Atomic             Coordinates (Angstroms)
 Number     Number       Type             X           Y           Z
 ---------------------------------------------------------------------
      1          6           0       -0.000001    0.720189    0.000000
      2          6           0        1.217543    0.017241    0.000000
      3          6           0        1.217543   -1.388660    0.000000
      4          6           0       -0.000001   -2.091612    0.000000
      5          6           0       -1.217550   -1.388655    0.000000
      6          6           0       -1.217545    0.017237    0.000000
      7         17           0       -2.746523    0.899993    0.000000
      8          1           0       -0.000000    2.485709    0.000000
      9         17           0        2.746526    0.899996    0.000000
     10          1           0        2.746521   -2.271416    0.000000
     11          1           0       -0.000006   -3.857123    0.000000
     12          1           0       -2.746519   -2.271414    0.000000
 ---------------------------------------------------------------------
 Rotational constants (GHZ):           2.6201415           0.8231885           0.6263908
 Standard basis: VSTO-6G (5D, 7F)
 There are    28 symmetry adapted cartesian basis functions of A'  symmetry.
 There are     8 symmetry adapted cartesian basis functions of A"  symmetry.
 There are    28 symmetry adapted basis functions of A'  symmetry.
 There are     8 symmetry adapted basis functions of A"  symmetry.
    36 basis functions,   216 primitive gaussians,    36 cartesian basis functions
    21 alpha electrons       21 beta electrons
       nuclear repulsion energy       197.1144110427 Hartrees.
 Integral buffers will be    131072 words long.
 Regular integral format.
 Two-electron integral symmetry is turned off.
 Do NDO integrals.
 One-electron integrals computed using PRISM.
 NBasis=    36 RedAO= T EigKep=  1.00D+00  NBF=    28     8
 NBsUse=    36 1.00D-06 EigRej= -1.00D+00 NBFU=    28     8
 Simple Huckel Guess.
 Initial guess orbital symmetries:
       Occupied  (A') (A') (A') (A') (A') (A') (A') (A') (A') (A")
                 (A') (A') (A') (A") (A') (A') (A") (A') (A') (A")
                 (A")
       Virtual   (A') (A") (A') (A") (A') (A') (A") (A') (A') (A')
                 (A') (A') (A') (A') (A')
 The electronic state of the initial guess is 1-A'.
 Keep J ints in memory in canonical form, NReq=862905.
 Overlap will be assumed to be unity.
 Requested convergence on RMS density matrix=1.00D-08 within  32 cycles.
 Requested convergence on MAX density matrix=1.00D-06.
 Requested convergence on             energy=1.00D-06.
 No special actions if energy rises.
 Fock symm off for IB=2 I1=    1 I=   29 J=    2 Cut=1.00D-07 Err=4.40D-03
 Fock matrix is not symmetric: symmetry in diagonalization turned off.
 SCF Done:  E(RAM1) =  0.504176147838     A.U. after   14 cycles
            NFock= 13  Conv=0.61D-08     -V/T= 1.0055
 QCSCF skips out because SCF is already converged.

 **********************************************************************

            Population analysis using the SCF Density.

 **********************************************************************

 Orbital symmetries:
       Occupied  (A') (A') (A') (A') (A') (A') (A') (A') (A') (A')
                 (A") (A') (A") (A') (A") (A') (A') (A') (A') (A")
                 (A")
       Virtual   (A') (A') (A") (A") (A') (A') (A') (A') (A") (A')
                 (A') (A') (A') (A') (A')
 The electronic state is 1-A'.
 Alpha  occ. eigenvalues --   -1.40826  -1.36636  -1.34250  -1.10130  -1.08835
 Alpha  occ. eigenvalues --   -0.81131  -0.80160  -0.62149  -0.58696  -0.52773
 Alpha  occ. eigenvalues --   -0.52248  -0.48281  -0.47360  -0.44800  -0.42961
 Alpha  occ. eigenvalues --   -0.42895  -0.42640  -0.38583  -0.37195  -0.34774
 Alpha  occ. eigenvalues --   -0.34204
 Alpha virt. eigenvalues --   -0.00559   0.00785   0.01124   0.01741   0.01938
 Alpha virt. eigenvalues --    0.02289   0.04896   0.06050   0.10243   0.16261
 Alpha virt. eigenvalues --    0.16451   0.18413   0.18703   0.19618   0.20855
          Condensed to atoms (all electrons):
               1          2          3          4          5          6
     1  C    4.139522   0.000000   0.000000   0.000000   0.000000   0.000000
     2  C    0.000000   4.055018   0.000000   0.000000   0.000000   0.000000
     3  C    0.000000   0.000000   4.129638   0.000000   0.000000   0.000000
     4  C    0.000000   0.000000   0.000000   4.148727   0.000000   0.000000
     5  C    0.000000   0.000000   0.000000   0.000000   4.129637   0.000000
     6  C    0.000000   0.000000   0.000000   0.000000   0.000000   4.055019
     7  Cl   0.000000   0.000000   0.000000   0.000000   0.000000   0.000000
     8  H    0.000000   0.000000   0.000000   0.000000   0.000000   0.000000
     9  Cl   0.000000   0.000000   0.000000   0.000000   0.000000   0.000000
    10  H    0.000000   0.000000   0.000000   0.000000   0.000000   0.000000
    11  H    0.000000   0.000000   0.000000   0.000000   0.000000   0.000000
    12  H    0.000000   0.000000   0.000000   0.000000   0.000000   0.000000
               7          8          9         10         11         12
     1  C    0.000000   0.000000   0.000000   0.000000   0.000000   0.000000
     2  C    0.000000   0.000000   0.000000   0.000000   0.000000   0.000000
     3  C    0.000000   0.000000   0.000000   0.000000   0.000000   0.000000
     4  C    0.000000   0.000000   0.000000   0.000000   0.000000   0.000000
     5  C    0.000000   0.000000   0.000000   0.000000   0.000000   0.000000
     6  C    0.000000   0.000000   0.000000   0.000000   0.000000   0.000000
     7  Cl   7.048965   0.000000   0.000000   0.000000   0.000000   0.000000
     8  H    0.000000   0.784292   0.000000   0.000000   0.000000   0.000000
     9  Cl   0.000000   0.000000   7.048966   0.000000   0.000000   0.000000
    10  H    0.000000   0.000000   0.000000   0.813115   0.000000   0.000000
    11  H    0.000000   0.000000   0.000000   0.000000   0.833986   0.000000
    12  H    0.000000   0.000000   0.000000   0.000000   0.000000   0.813114
 Mulliken charges:
               1
     1  C   -0.139522
     2  C   -0.055018
     3  C   -0.129638
     4  C   -0.148727
     5  C   -0.129637
     6  C   -0.055019
     7  Cl  -0.048965
     8  H    0.215708
     9  Cl  -0.048966
    10  H    0.186885
    11  H    0.166014
    12  H    0.186886
 Sum of Mulliken charges =  -0.00000
 Mulliken charges with hydrogens summed into heavy atoms:
               1
     1  C    0.076186
     2  C   -0.055018
     3  C    0.057247
     4  C    0.017286
     5  C    0.057248
     6  C   -0.055019
     7  Cl  -0.048965
     9  Cl  -0.048966
 Charge=              0.0000 electrons
 Dipole moment (field-independent basis, Debye):
    X=             -0.0000    Y=             -2.0216    Z=              0.0000  Tot=              2.0216
 N-N= 1.971144110427D+02 E-N=-2.737012462763D+02  KE=-9.088866452772D+01
 Symmetry A'   KE=-7.044108304291D+01
 Symmetry A"   KE=-2.044758148480D+01
 Calling FoFJK, ICntrl=      2127 FMM=F ISym2X=1 I1Cent= 0 IOpClX= 0 NMat=1 NMatS=1 NMatT=0.
 ***** Axes restored to original set *****
 -------------------------------------------------------------------
 Center     Atomic                   Forces (Hartrees/Bohr)
 Number     Number              X              Y              Z
 -------------------------------------------------------------------
      1        6          -0.065761737    0.035598114    0.000000000
      2        6          -0.000908258    0.012498838    0.000000000
      3        6           0.071881087    0.021416627    0.000000000
      4        6           0.058574016   -0.031708476    0.000000000
      5        6           0.021381121   -0.071895146    0.000000000
      6        6          -0.010966064   -0.006071795   -0.000000000
      7       17           0.030610755    0.019134245    0.000000000
      8        1           0.102938215   -0.055719937   -0.000000000
      9       17           0.000717450   -0.036094584    0.000000000
     10        1          -0.100453050   -0.060664431   -0.000000000
     11        1          -0.103878464    0.056229196   -0.000000000
     12        1          -0.004135071    0.117277349   -0.000000000
 -------------------------------------------------------------------
 Cartesian Forces:  Max     0.117277349 RMS     0.046962145

 GradGradGradGradGradGradGradGradGradGradGradGradGradGradGradGradGradGrad
 Berny optimization.
 FormGI is forming the generalized inverse of G from B-inverse, IUseBI=4.
 Internal  Forces:  Max     0.118120522 RMS     0.035283229
 Search for a local minimum.
 Step number   1 out of a maximum of   64
 All quantities printed in internal units (Hartrees-Bohrs-Radians)
 Mixed Optimization -- RFO/linear search
 Second derivative matrix not updated -- first step.
 ITU=  0
     Eigenvalues ---    0.02011   0.02011   0.02011   0.02011   0.02011
     Eigenvalues ---    0.02011   0.02011   0.02011   0.02011   0.06524
     Eigenvalues ---    0.06524   0.06524   0.06524   0.16000   0.16000
     Eigenvalues ---    0.16000   0.16000   0.22000   0.23477   0.23492
     Eigenvalues ---    0.25000   0.25000   0.29033   0.29033   0.40781
     Eigenvalues ---    0.40971   0.44656   0.44657   0.44657   0.44657
 RFO step:  Lambda=-2.15853923D-01 EMin= 2.01065826D-02
 Linear search not attempted -- first point.
 Maximum step size (   0.300) exceeded in Quadratic search.
    -- Step size scaled by   0.351
 Iteration  1 RMS(Cart)=  0.04702236 RMS(Int)=  0.00000999
 Iteration  2 RMS(Cart)=  0.00001650 RMS(Int)=  0.00000353
 Iteration  3 RMS(Cart)=  0.00000000 RMS(Int)=  0.00000353
 ClnCor:  largest displacement from symmetrization is 4.10D-09 for atom     8.
 Variable       Old X    -DE/DX   Delta X   Delta X   Delta X     New X
                                 (Linear)    (Quad)   (Total)
    R1        2.65676  -0.03372   0.00000  -0.01763  -0.01763   2.63913
    R2        2.65677  -0.03372   0.00000  -0.01763  -0.01763   2.63913
    R3        3.33635  -0.11705   0.00000  -0.14615  -0.14615   3.19020
    R4        2.65677  -0.03220   0.00000  -0.01706  -0.01706   2.63971
    R5        3.33634  -0.03610   0.00000  -0.02503  -0.02503   3.31131
    R6        2.65677  -0.04945   0.00000  -0.02644  -0.02643   2.63033
    R7        3.33633  -0.11735   0.00000  -0.14652  -0.14652   3.18982
    R8        2.65678  -0.04945   0.00000  -0.02644  -0.02643   2.63035
    R9        3.33633  -0.11812   0.00000  -0.14748  -0.14748   3.18885
   R10        2.65675  -0.03219   0.00000  -0.01706  -0.01706   2.63969
   R11        3.33632  -0.11735   0.00000  -0.14652  -0.14652   3.18980
   R12        3.33633  -0.03610   0.00000  -0.02503  -0.02503   3.31130
    A1        2.09439   0.00281   0.00000   0.00290   0.00288   2.09728
    A2        2.09439  -0.00140   0.00000  -0.00145  -0.00144   2.09295
    A3        2.09440  -0.00140   0.00000  -0.00145  -0.00144   2.09295
    A4        2.09439  -0.00625   0.00000  -0.00446  -0.00446   2.08993
    A5        2.09440   0.00267   0.00000   0.00188   0.00189   2.09628
    A6        2.09439   0.00358   0.00000   0.00257   0.00258   2.09697
    A7        2.09440   0.00286   0.00000   0.00183   0.00184   2.09624
    A8        2.09440  -0.00295   0.00000  -0.00234  -0.00234   2.09205
    A9        2.09439   0.00009   0.00000   0.00050   0.00050   2.09489
   A10        2.09439   0.00396   0.00000   0.00235   0.00236   2.09675
   A11        2.09440  -0.00198   0.00000  -0.00117  -0.00118   2.09322
   A12        2.09440  -0.00198   0.00000  -0.00117  -0.00118   2.09322
   A13        2.09439   0.00286   0.00000   0.00183   0.00184   2.09623
   A14        2.09439   0.00009   0.00000   0.00050   0.00050   2.09489
   A15        2.09440  -0.00295   0.00000  -0.00234  -0.00234   2.09206
   A16        2.09440  -0.00625   0.00000  -0.00446  -0.00446   2.08994
   A17        2.09439   0.00267   0.00000   0.00188   0.00189   2.09628
   A18        2.09439   0.00358   0.00000   0.00257   0.00258   2.09697
    D1        0.00000   0.00000   0.00000   0.00000   0.00000   0.00000
    D2        3.14159  -0.00000   0.00000  -0.00000   0.00000   3.14159
    D3        3.14159   0.00000   0.00000   0.00000   0.00000   3.14159
    D4        0.00000   0.00000   0.00000   0.00000   0.00000   0.00000
    D5        0.00000  -0.00000   0.00000   0.00000   0.00000   0.00000
    D6        3.14159  -0.00000   0.00000   0.00000   0.00000   3.14159
    D7        3.14159  -0.00000   0.00000  -0.00000   0.00000   3.14159
    D8        0.00000  -0.00000   0.00000  -0.00000   0.00000   0.00000
    D9        0.00000  -0.00000   0.00000  -0.00000   0.00000   0.00000
   D10        3.14159  -0.00000   0.00000  -0.00000   0.00000   3.14159
   D11        3.14159   0.00000   0.00000   0.00000   0.00000   3.14159
   D12        0.00000  -0.00000   0.00000   0.00000   0.00000   0.00000
   D13        0.00000  -0.00000   0.00000  -0.00000   0.00000   0.00000
   D14        3.14159  -0.00000   0.00000  -0.00000   0.00000   3.14159
   D15        3.14159   0.00000   0.00000   0.00000   0.00000   3.14159
   D16        0.00000   0.00000   0.00000   0.00000   0.00000   0.00000
   D17        0.00000   0.00000   0.00000   0.00000   0.00000   0.00000
   D18        3.14159  -0.00000   0.00000  -0.00000   0.00000   3.14159
   D19        3.14159   0.00000   0.00000   0.00000   0.00000   3.14159
   D20        0.00000  -0.00000   0.00000  -0.00000   0.00000   0.00000
   D21        0.00000  -0.00000   0.00000  -0.00000   0.00000   0.00000
   D22        3.14159  -0.00000   0.00000  -0.00000   0.00000   3.14159
   D23        3.14159   0.00000   0.00000   0.00000   0.00000   3.14159
   D24        0.00000   0.00000   0.00000   0.00000   0.00000   0.00000
         Item               Value     Threshold  Converged?
 Maximum Force            0.118121     0.000450     NO 
 RMS     Force            0.035283     0.000300     NO 
 Maximum Displacement     0.164431     0.001800     NO 
 RMS     Displacement     0.047021     0.001200     NO 
 Predicted change in Energy=-7.217739D-02
 GradGradGradGradGradGradGradGradGradGradGradGradGradGradGradGradGradGrad

                          Input orientation:                          
 ---------------------------------------------------------------------
 Center     Atomic      Atomic             Coordinates (Angstroms)
 Number     Number       Type             X           Y           Z
 ---------------------------------------------------------------------
      1          6           0       -3.194857    0.191623    0.000000
      2          6           0       -2.006082    0.924573    0.000000
      3          6           0       -0.779646    0.255914    0.000000
      4          6           0       -0.743061   -1.135519    0.000000
      5          6           0       -1.928073   -1.865714    0.000000
      6          6           0       -3.158518   -1.204474    0.000000
      7         17           0       -4.650986   -2.122612    0.000000
      8          1           0       -4.679492    0.995248    0.000000
      9         17           0       -2.053420    2.676203    0.000000
     10          1           0        0.659057    1.138751    0.000000
     11          1           0        0.740944   -1.938806    0.000000
     12          1           0       -1.880567   -3.553017    0.000000
 ---------------------------------------------------------------------
                    Distance matrix (angstroms):
                    1          2          3          4          5
     1  C    0.000000
     2  C    1.396568   0.000000
     3  C    2.416067   1.396872   0.000000
     4  C    2.787940   2.416444   1.391913   0.000000
     5  C    2.416066   2.791377   2.412506   1.391919   0.000000
     6  C    1.396570   2.420939   2.791373   2.416441   1.396865
     7  Cl   2.734227   4.034954   4.543640   4.030661   2.735005
     8  H    1.688181   2.674344   3.969310   4.476121   3.969308
     9  Cl   2.734231   1.752270   2.735014   4.030665   4.543646
    10  H    3.968590   2.673732   1.687978   2.671749   3.964852
    11  H    4.475406   3.968008   2.670016   1.687466   2.670017
    12  H    3.968588   4.479349   3.964843   2.671744   1.687972
                    6          7          8          9         10
     6  C    0.000000
     7  Cl   1.752267   0.000000
     8  H    2.674348   3.117990   0.000000
     9  Cl   4.034959   5.456737   3.117991   0.000000
    10  H    4.479351   6.231617   5.340478   3.117898   0.000000
    11  H    3.968003   5.395062   6.163587   5.395070   3.078647
    12  H    2.673726   3.117897   5.340477   6.231618   5.335015
                   11         12
    11  H    0.000000
    12  H    3.078635   0.000000
 Stoichiometry    C6H4Cl2
 Framework group  CS[SG(C6H4Cl2)]
 Deg. of freedom    21
 Full point group                 CS      NOp   2
 Largest Abelian subgroup         CS      NOp   2
 Largest concise Abelian subgroup C1      NOp   1
                         Standard orientation:                         
 ---------------------------------------------------------------------
 Center     Atomic      Atomic             Coordinates (Angstroms)
 Number     Number       Type             X           Y           Z
 ---------------------------------------------------------------------
      1          6           0        0.000000    0.713347    0.000000
      2          6           0        1.210469    0.016809    0.000000
      3          6           0        1.206250   -1.380057    0.000000
      4          6           0       -0.000002   -2.074593    0.000000
      5          6           0       -1.206257   -1.380052    0.000000
      6          6           0       -1.210470    0.016807    0.000000
      7         17           0       -2.728366    0.892267    0.000000
      8          1           0        0.000002    2.401528    0.000000
      9         17           0        2.728370    0.892265    0.000000
     10          1           0        2.667508   -2.225039    0.000000
     11          1           0       -0.000007   -3.762059    0.000000
     12          1           0       -2.667507   -2.225036    0.000000
 ---------------------------------------------------------------------
 Rotational constants (GHZ):           2.6765072           0.8352747           0.6366053
 Standard basis: VSTO-6G (5D, 7F)
 There are    28 symmetry adapted cartesian basis functions of A'  symmetry.
 There are     8 symmetry adapted cartesian basis functions of A"  symmetry.
 There are    28 symmetry adapted basis functions of A'  symmetry.
 There are     8 symmetry adapted basis functions of A"  symmetry.
    36 basis functions,   216 primitive gaussians,    36 cartesian basis functions
    21 alpha electrons       21 beta electrons
       nuclear repulsion energy       198.3813075331 Hartrees.
 Integral buffers will be    131072 words long.
 Regular integral format.
 Two-electron integral symmetry is turned off.
 Do NDO integrals.
 One-electron integrals computed using PRISM.
 NBasis=    36 RedAO= T EigKep=  1.00D+00  NBF=    28     8
 NBsUse=    36 1.00D-06 EigRej= -1.00D+00 NBFU=    28     8
 Initial guess from the checkpoint file:  "geometry_chks/13ClBz.chk"
 B after Tr=     0.000000   -0.000000    0.000000
         Rot=    1.000000    0.000000    0.000000    0.000000 Ang=   0.00 deg.
 Initial guess orbital symmetries:
       Occupied  (A') (A') (A') (A') (A') (A') (A') (A') (A') (A')
                 (A") (A') (A") (A') (A") (A') (A') (A') (A') (A")
                 (A")
       Virtual   (A') (A') (A") (A") (A') (A') (A') (A') (A") (A')
                 (A') (A') (A') (A') (A')
 Keep J ints in memory in canonical form, NReq=862905.
 Overlap will be assumed to be unity.
 Requested convergence on RMS density matrix=1.00D-08 within  32 cycles.
 Requested convergence on MAX density matrix=1.00D-06.
 Requested convergence on             energy=1.00D-06.
 No special actions if energy rises.
 Fock symm off for IB=2 I1=    1 I=   29 J=    6 Cut=1.00D-07 Err=1.00D-03
 Fock matrix is not symmetric: symmetry in diagonalization turned off.
 SCF Done:  E(RAM1) =  0.428463525056     A.U. after   11 cycles
            NFock= 10  Conv=0.60D-08     -V/T= 1.0047
 QCSCF skips out because SCF is already converged.
 Calling FoFJK, ICntrl=      2127 FMM=F ISym2X=1 I1Cent= 0 IOpClX= 0 NMat=1 NMatS=1 NMatT=0.
 ***** Axes restored to original set *****
 -------------------------------------------------------------------
 Center     Atomic                   Forces (Hartrees/Bohr)
 Number     Number              X              Y              Z
 -------------------------------------------------------------------
      1        6          -0.082742401    0.044788827    0.000000000
      2        6          -0.001224676    0.019677291    0.000000000
      3        6           0.087899237    0.036538873    0.000000000
      4        6           0.079079222   -0.042807811    0.000000000
      5        6           0.017477126   -0.093574759    0.000000000
      6        6          -0.017148514   -0.009731879    0.000000000
      7       17           0.024860236    0.015595130    0.000000000
      8        1           0.106054874   -0.057407009   -0.000000000
      9       17           0.000536212   -0.029344109    0.000000000
     10        1          -0.103537018   -0.062551385   -0.000000000
     11        1          -0.107012748    0.057925737   -0.000000000
     12        1          -0.004241550    0.120891097   -0.000000000
 -------------------------------------------------------------------
 Cartesian Forces:  Max     0.120891097 RMS     0.051687379

 GradGradGradGradGradGradGradGradGradGradGradGradGradGradGradGradGradGrad
 Berny optimization.
 Using GEDIIS/GDIIS optimizer.
 FormGI is forming the generalized inverse of G from B-inverse, IUseBI=4.
 Internal  Forces:  Max     0.121684507 RMS     0.034304783
 Search for a local minimum.
 Step number   2 out of a maximum of   64
 All quantities printed in internal units (Hartrees-Bohrs-Radians)
 Mixed Optimization -- RFO/linear search
 Update second derivatives using D2CorX and points    1    2
 DE= -7.57D-02 DEPred=-7.22D-02 R= 1.05D+00
 TightC=F SS=  1.41D+00  RLast= 3.00D-01 DXNew= 5.0454D-01 9.0000D-01
 Trust test= 1.05D+00 RLast= 3.00D-01 DXMaxT set to 5.05D-01
 ITU=  1  0
 Use linear search instead of GDIIS.
     Eigenvalues ---    0.00022   0.02011   0.02011   0.02011   0.02011
     Eigenvalues ---    0.02011   0.02011   0.02011   0.02011   0.02011
     Eigenvalues ---    0.06524   0.06524   0.06524   0.16000   0.16000
     Eigenvalues ---    0.16000   0.16002   0.22000   0.23472   0.23488
     Eigenvalues ---    0.25000   0.25000   0.29033   0.29624   0.40756
     Eigenvalues ---    0.40931   0.44644   0.44656   0.44657   5.86615
 RFO could not converge Lambda in  999 iterations.
 Skip linear search -- no minimum in search direction.
 Steepest descent instead of Quadratic search.
 Iteration  1 RMS(Cart)=  0.02059448 RMS(Int)=  0.00000360
 Iteration  2 RMS(Cart)=  0.00000664 RMS(Int)=  0.00000124
 Iteration  3 RMS(Cart)=  0.00000000 RMS(Int)=  0.00000124
 ClnCor:  largest displacement from symmetrization is 4.21D-09 for atom     8.
 Variable       Old X    -DE/DX   Delta X   Delta X   Delta X     New X
                                 (Linear)    (Quad)   (Total)
    R1        2.63913  -0.01850   0.00000  -0.00925  -0.00925   2.62988
    R2        2.63913  -0.01850   0.00000  -0.00925  -0.00925   2.62988
    R3        3.19020  -0.12060   0.00000  -0.06030  -0.06030   3.12990
    R4        2.63971  -0.01724   0.00000  -0.00862  -0.00862   2.63109
    R5        3.31131  -0.02935   0.00000  -0.01467  -0.01467   3.29664
    R6        2.63033  -0.02996   0.00000  -0.01498  -0.01498   2.61535
    R7        3.18982  -0.12096   0.00000  -0.06048  -0.06048   3.12933
    R8        2.63035  -0.02997   0.00000  -0.01498  -0.01498   2.61536
    R9        3.18885  -0.12168   0.00000  -0.06084  -0.06084   3.12801
   R10        2.63969  -0.01723   0.00000  -0.00862  -0.00862   2.63108
   R11        3.18980  -0.12096   0.00000  -0.06048  -0.06048   3.12932
   R12        3.31130  -0.02935   0.00000  -0.01467  -0.01467   3.29663
    A1        2.09728   0.00312   0.00000   0.00156   0.00156   2.09884
    A2        2.09295  -0.00156   0.00000  -0.00078  -0.00078   2.09217
    A3        2.09295  -0.00156   0.00000  -0.00078  -0.00078   2.09218
    A4        2.08993  -0.00533   0.00000  -0.00267  -0.00267   2.08726
    A5        2.09628   0.00224   0.00000   0.00112   0.00112   2.09741
    A6        2.09697   0.00309   0.00000   0.00155   0.00155   2.09852
    A7        2.09624   0.00219   0.00000   0.00109   0.00109   2.09733
    A8        2.09205  -0.00243   0.00000  -0.00121  -0.00122   2.09084
    A9        2.09489   0.00024   0.00000   0.00012   0.00012   2.09501
   A10        2.09675   0.00317   0.00000   0.00159   0.00159   2.09834
   A11        2.09322  -0.00159   0.00000  -0.00079  -0.00080   2.09242
   A12        2.09322  -0.00159   0.00000  -0.00079  -0.00080   2.09242
   A13        2.09623   0.00219   0.00000   0.00109   0.00109   2.09733
   A14        2.09489   0.00024   0.00000   0.00012   0.00012   2.09501
   A15        2.09206  -0.00243   0.00000  -0.00121  -0.00122   2.09085
   A16        2.08994  -0.00534   0.00000  -0.00267  -0.00267   2.08727
   A17        2.09628   0.00224   0.00000   0.00112   0.00112   2.09740
   A18        2.09697   0.00309   0.00000   0.00155   0.00155   2.09852
    D1        0.00000   0.00000   0.00000   0.00000   0.00000   0.00000
    D2        3.14159  -0.00000   0.00000  -0.00000   0.00000   3.14159
    D3        3.14159   0.00000   0.00000   0.00000   0.00000   3.14159
    D4        0.00000   0.00000   0.00000   0.00000   0.00000   0.00000
    D5        0.00000  -0.00000   0.00000  -0.00000   0.00000   0.00000
    D6        3.14159   0.00000   0.00000   0.00000   0.00000   3.14159
    D7        3.14159  -0.00000   0.00000  -0.00000   0.00000   3.14159
    D8        0.00000  -0.00000   0.00000  -0.00000   0.00000   0.00000
    D9        0.00000  -0.00000   0.00000  -0.00000   0.00000   0.00000
   D10        3.14159  -0.00000   0.00000  -0.00000   0.00000   3.14159
   D11        3.14159   0.00000   0.00000   0.00000   0.00000   3.14159
   D12        0.00000  -0.00000   0.00000  -0.00000   0.00000   0.00000
   D13        0.00000  -0.00000   0.00000  -0.00000   0.00000   0.00000
   D14        3.14159  -0.00000   0.00000  -0.00000   0.00000   3.14159
   D15        3.14159   0.00000   0.00000   0.00000   0.00000   3.14159
   D16        0.00000   0.00000   0.00000   0.00000   0.00000   0.00000
   D17        0.00000   0.00000   0.00000   0.00000   0.00000   0.00000
   D18        3.14159  -0.00000   0.00000  -0.00000   0.00000   3.14159
   D19        3.14159   0.00000   0.00000   0.00000   0.00000   3.14159
   D20        0.00000  -0.00000   0.00000  -0.00000   0.00000   0.00000
   D21        0.00000  -0.00000   0.00000  -0.00000   0.00000   0.00000
   D22        3.14159  -0.00000   0.00000  -0.00000   0.00000   3.14159
   D23        3.14159   0.00000   0.00000   0.00000   0.00000   3.14159
   D24        0.00000   0.00000   0.00000   0.00000   0.00000   0.00000
         Item               Value     Threshold  Converged?
 Maximum Force            0.121685     0.000450     NO 
 RMS     Force            0.034305     0.000300     NO 
 Maximum Displacement     0.071229     0.001800     NO 
 RMS     Displacement     0.020594     0.001200     NO 
 Predicted change in Energy=-3.143471D-02
 GradGradGradGradGradGradGradGradGradGradGradGradGradGradGradGradGradGrad

                          Input orientation:                          
 ---------------------------------------------------------------------
 Center     Atomic      Atomic             Coordinates (Angstroms)
 Number     Number       Type             X           Y           Z
 ---------------------------------------------------------------------
      1          6           0       -3.188067    0.187947    0.000000
      2          6           0       -2.004028    0.919250    0.000000
      3          6           0       -0.782857    0.250465    0.000000
      4          6           0       -0.747582   -1.133072    0.000000
      5          6           0       -1.925266   -1.860045    0.000000
      6          6           0       -3.152939   -1.203283    0.000000
      7         17           0       -4.638480   -2.117862    0.000000
      8          1           0       -4.644641    0.976383    0.000000
      9         17           0       -2.050558    2.663134    0.000000
     10          1           0        0.629151    1.115610    0.000000
     11          1           0        0.708109   -1.921033    0.000000
     12          1           0       -1.877543   -3.515324    0.000000
 ---------------------------------------------------------------------
                    Distance matrix (angstroms):
                    1          2          3          4          5
     1  C    0.000000
     2  C    1.391672   0.000000
     3  C    2.406022   1.392312   0.000000
     4  C    2.775078   2.406384   1.383986   0.000000
     5  C    2.406022   2.780411   2.399865   1.383991   0.000000
     6  C    1.391674   2.413533   2.780408   2.406382   1.392306
     7  Cl   2.724052   4.020496   4.524909   4.013590   2.725436
     8  H    1.656273   2.641231   3.929419   4.431351   3.929418
     9  Cl   2.724055   1.744505   2.725443   4.013593   4.524915
    10  H    3.928321   2.640490   1.655972   2.636658   3.921680
    11  H    4.430348   3.927199   2.634081   1.655270   2.634081
    12  H    3.928319   4.436378   3.921671   2.636653   1.655967
                    6          7          8          9         10
     6  C    0.000000
     7  Cl   1.744502   0.000000
     8  H    2.641235   3.094252   0.000000
     9  Cl   4.020501   5.436476   3.094252   0.000000
    10  H    4.436380   6.180880   5.275629   3.094458   0.000000
    11  H    3.927194   5.350211   6.086621   5.350217   3.037669
    12  H    2.640486   3.094458   5.275629   6.180881   5.265840
                   11         12
    11  H    0.000000
    12  H    3.037658   0.000000
 Stoichiometry    C6H4Cl2
 Framework group  CS[SG(C6H4Cl2)]
 Deg. of freedom    21
 Full point group                 CS      NOp   2
 Largest Abelian subgroup         CS      NOp   2
 Largest concise Abelian subgroup C1      NOp   1
                         Standard orientation:                         
 ---------------------------------------------------------------------
 Center     Atomic      Atomic             Coordinates (Angstroms)
 Number     Number       Type             X           Y           Z
 ---------------------------------------------------------------------
      1          6           0        0.000000    0.710134    0.000000
      2          6           0        1.206766    0.016977    0.000000
      3          6           0        1.199929   -1.375318    0.000000
      4          6           0       -0.000001   -2.064944    0.000000
      5          6           0       -1.199935   -1.375315    0.000000
      6          6           0       -1.206768    0.016975    0.000000
      7         17           0       -2.718236    0.888037    0.000000
      8          1           0        0.000002    2.366407    0.000000
      9         17           0        2.718240    0.888036    0.000000
     10          1           0        2.632921   -2.205245    0.000000
     11          1           0       -0.000006   -3.720214    0.000000
     12          1           0       -2.632919   -2.205245    0.000000
 ---------------------------------------------------------------------
 Rotational constants (GHZ):           2.7055878           0.8419658           0.6421361
 Standard basis: VSTO-6G (5D, 7F)
 There are    28 symmetry adapted cartesian basis functions of A'  symmetry.
 There are     8 symmetry adapted cartesian basis functions of A"  symmetry.
 There are    28 symmetry adapted basis functions of A'  symmetry.
 There are     8 symmetry adapted basis functions of A"  symmetry.
    36 basis functions,   216 primitive gaussians,    36 cartesian basis functions
    21 alpha electrons       21 beta electrons
       nuclear repulsion energy       199.0260137597 Hartrees.
 Integral buffers will be    131072 words long.
 Regular integral format.
 Two-electron integral symmetry is turned off.
 Do NDO integrals.
 One-electron integrals computed using PRISM.
 NBasis=    36 RedAO= T EigKep=  1.00D+00  NBF=    28     8
 NBsUse=    36 1.00D-06 EigRej= -1.00D+00 NBFU=    28     8
 Initial guess from the checkpoint file:  "geometry_chks/13ClBz.chk"
 B after Tr=     0.000000    0.000000    0.000000
         Rot=    1.000000   -0.000000   -0.000000   -0.000000 Ang=  -0.00 deg.
 Initial guess orbital symmetries:
       Occupied  (A') (A') (A') (A') (A') (A') (A') (A') (A') (A')
                 (A") (A') (A") (A') (A') (A") (A') (A') (A') (A")
                 (A")
       Virtual   (A') (A") (A") (A') (A') (A') (A') (A') (A") (A')
                 (A') (A') (A') (A') (A')
 Keep J ints in memory in canonical form, NReq=862905.
 Overlap will be assumed to be unity.
 Requested convergence on RMS density matrix=1.00D-08 within  32 cycles.
 Requested convergence on MAX density matrix=1.00D-06.
 Requested convergence on             energy=1.00D-06.
 No special actions if energy rises.
 Fock symm off for IB=2 I1=    1 I=   29 J=    6 Cut=1.00D-07 Err=5.15D-04
 Fock matrix is not symmetric: symmetry in diagonalization turned off.
 SCF Done:  E(RAM1) =  0.396968833887     A.U. after   11 cycles
            NFock= 10  Conv=0.61D-08     -V/T= 1.0044
 QCSCF skips out because SCF is already converged.
 Calling FoFJK, ICntrl=      2127 FMM=F ISym2X=1 I1Cent= 0 IOpClX= 0 NMat=1 NMatS=1 NMatT=0.
 ***** Axes restored to original set *****
 -------------------------------------------------------------------
 Center     Atomic                   Forces (Hartrees/Bohr)
 Number     Number              X              Y              Z
 -------------------------------------------------------------------
      1        6          -0.090857367    0.049180891    0.000000000
      2        6          -0.001291866    0.023380861    0.000000000
      3        6           0.095556208    0.044865984   -0.000000000
      4        6           0.089849311   -0.048637525    0.000000000
      5        6           0.014690985   -0.104538520    0.000000000
      6        6          -0.020285525   -0.011700671   -0.000000000
      7       17           0.021351265    0.013422934    0.000000000
      8        1           0.106720875   -0.057767537   -0.000000000
      9       17           0.000436190   -0.025218070    0.000000000
     10        1          -0.104218737   -0.062905926   -0.000000000
     11        1          -0.107633830    0.058261906   -0.000000000
     12        1          -0.004317508    0.121655673   -0.000000000
 -------------------------------------------------------------------
 Cartesian Forces:  Max     0.121655673 RMS     0.054035149

 GradGradGradGradGradGradGradGradGradGradGradGradGradGradGradGradGradGrad
 Berny optimization.
 Using GEDIIS/GDIIS optimizer.
 FormGI is forming the generalized inverse of G from B-inverse, IUseBI=4.
 Internal  Forces:  Max     0.122390731 RMS     0.033826597
 Search for a local minimum.
 Step number   3 out of a maximum of   64
 All quantities printed in internal units (Hartrees-Bohrs-Radians)
 Mixed Optimization -- RFO/linear search
 Update second derivatives using D2CorX and points    1    2    3
 DE= -3.15D-02 DEPred=-3.14D-02 R= 1.00D+00
 TightC=F SS=  1.41D+00  RLast= 1.26D-01 DXNew= 8.4853D-01 3.7813D-01
 Trust test= 1.00D+00 RLast= 1.26D-01 DXMaxT set to 5.05D-01
 ITU=  1  1  0
 Use linear search instead of GDIIS.
     Eigenvalues ---    0.00186   0.02011   0.02011   0.02011   0.02011
     Eigenvalues ---    0.02011   0.02011   0.02011   0.02011   0.02011
     Eigenvalues ---    0.06524   0.06524   0.06524   0.15999   0.16000
     Eigenvalues ---    0.16000   0.16000   0.21992   0.23295   0.23468
     Eigenvalues ---    0.25000   0.25000   0.28101   0.29033   0.40580
     Eigenvalues ---    0.40909   0.44579   0.44656   0.44657   1.11736
 RFO step:  Lambda=-1.46115299D-02 EMin= 1.85982602D-03
 Quartic linear search produced a step of  2.00000.
 Maximum step size (   0.505) exceeded in Quadratic search.
    -- Step size scaled by   0.642
 Iteration  1 RMS(Cart)=  0.06119035 RMS(Int)=  0.04715917
 Iteration  2 RMS(Cart)=  0.04664718 RMS(Int)=  0.00000483
 Iteration  3 RMS(Cart)=  0.00000155 RMS(Int)=  0.00000476
 Iteration  4 RMS(Cart)=  0.00000000 RMS(Int)=  0.00000476
 ClnCor:  largest displacement from symmetrization is 1.05D-08 for atom     8.
 Variable       Old X    -DE/DX   Delta X   Delta X   Delta X     New X
                                 (Linear)    (Quad)   (Total)
    R1        2.62988  -0.01002  -0.01850   0.00093  -0.01758   2.61230
    R2        2.62988  -0.01002  -0.01850   0.00093  -0.01758   2.61230
    R3        3.12990  -0.12135  -0.12060  -0.25138  -0.37197   2.75793
    R4        2.63109  -0.00912  -0.01724  -0.00104  -0.01828   2.61281
    R5        3.29664  -0.02522  -0.02935  -0.00070  -0.03005   3.26659
    R6        2.61535  -0.01859  -0.02996   0.00612  -0.02383   2.59152
    R7        3.12933  -0.12173  -0.12096  -0.25208  -0.37304   2.75629
    R8        2.61536  -0.01859  -0.02996   0.00612  -0.02383   2.59153
    R9        3.12801  -0.12239  -0.12168  -0.25334  -0.37502   2.75299
   R10        2.63108  -0.00912  -0.01723  -0.00104  -0.01827   2.61280
   R11        3.12932  -0.12173  -0.12096  -0.25208  -0.37304   2.75628
   R12        3.29663  -0.02522  -0.02935  -0.00070  -0.03004   3.26659
    A1        2.09884   0.00355   0.00312   0.00267   0.00577   2.10461
    A2        2.09217  -0.00178  -0.00156  -0.00133  -0.00289   2.08929
    A3        2.09218  -0.00178  -0.00156  -0.00134  -0.00289   2.08929
    A4        2.08726  -0.00485  -0.00534  -0.00056  -0.00591   2.08135
    A5        2.09741   0.00204   0.00224   0.00027   0.00251   2.09992
    A6        2.09852   0.00281   0.00309   0.00030   0.00340   2.10191
    A7        2.09733   0.00176   0.00219  -0.00022   0.00198   2.09931
    A8        2.09084  -0.00215  -0.00243  -0.00124  -0.00367   2.08717
    A9        2.09501   0.00038   0.00024   0.00145   0.00169   2.09671
   A10        2.09834   0.00262   0.00318  -0.00111   0.00209   2.10043
   A11        2.09242  -0.00131  -0.00159   0.00055  -0.00104   2.09138
   A12        2.09242  -0.00131  -0.00159   0.00055  -0.00104   2.09138
   A13        2.09733   0.00176   0.00219  -0.00022   0.00198   2.09931
   A14        2.09501   0.00038   0.00024   0.00145   0.00169   2.09670
   A15        2.09085  -0.00215  -0.00243  -0.00124  -0.00367   2.08717
   A16        2.08727  -0.00485  -0.00534  -0.00056  -0.00591   2.08136
   A17        2.09740   0.00204   0.00224   0.00027   0.00251   2.09992
   A18        2.09852   0.00282   0.00310   0.00030   0.00340   2.10191
    D1        0.00000   0.00000   0.00000   0.00000   0.00000   0.00000
    D2        3.14159  -0.00000   0.00000  -0.00000   0.00000   3.14159
    D3        3.14159   0.00000   0.00000   0.00000   0.00000   3.14159
    D4        0.00000   0.00000   0.00000   0.00000   0.00000   0.00000
    D5        0.00000   0.00000   0.00000   0.00000   0.00000   0.00000
    D6        3.14159   0.00000   0.00000   0.00000   0.00000   3.14159
    D7        3.14159  -0.00000   0.00000  -0.00000   0.00000   3.14159
    D8        0.00000  -0.00000   0.00000  -0.00000   0.00000   0.00000
    D9        0.00000  -0.00000   0.00000  -0.00000   0.00000   0.00000
   D10        3.14159  -0.00000   0.00000  -0.00000   0.00000   3.14159
   D11        3.14159   0.00000   0.00000   0.00000   0.00000   3.14159
   D12        0.00000  -0.00000   0.00000  -0.00000   0.00000   0.00000
   D13        0.00000   0.00000   0.00000   0.00000   0.00000   0.00000
   D14        3.14159  -0.00000   0.00000  -0.00000   0.00000   3.14159
   D15        3.14159   0.00000   0.00000   0.00000   0.00000   3.14159
   D16        0.00000   0.00000   0.00000   0.00000   0.00000   0.00000
   D17        0.00000   0.00000   0.00000   0.00000   0.00000   0.00000
   D18        3.14159  -0.00000   0.00000  -0.00000   0.00000   3.14159
   D19        3.14159   0.00000   0.00000   0.00000   0.00000   3.14159
   D20        0.00000  -0.00000   0.00000  -0.00000   0.00000   0.00000
   D21        0.00000  -0.00000   0.00000  -0.00000   0.00000   0.00000
   D22        3.14159  -0.00000   0.00000  -0.00000   0.00000   3.14159
   D23        3.14159   0.00000   0.00000   0.00000   0.00000   3.14159
   D24        0.00000   0.00000   0.00000   0.00000   0.00000   0.00000
         Item               Value     Threshold  Converged?
 Maximum Force            0.122391     0.000450     NO 
 RMS     Force            0.033827     0.000300     NO 
 Maximum Displacement     0.380299     0.001800     NO 
 RMS     Displacement     0.107425     0.001200     NO 
 Predicted change in Energy=-1.845627D-01
 GradGradGradGradGradGradGradGradGradGradGradGradGradGradGradGradGradGrad

                          Input orientation:                          
 ---------------------------------------------------------------------
 Center     Atomic      Atomic             Coordinates (Angstroms)
 Number     Number       Type             X           Y           Z
 ---------------------------------------------------------------------
      1          6           0       -3.163109    0.174438    0.000000
      2          6           0       -1.989087    0.904242    0.000000
      3          6           0       -0.778414    0.236438    0.000000
      4          6           0       -0.744891   -1.134528    0.000000
      5          6           0       -1.911091   -1.856096    0.000000
      6          6           0       -3.132205   -1.207587    0.000000
      7         17           0       -4.604544   -2.113284    0.000000
      8          1           0       -4.446578    0.869173    0.000000
      9         17           0       -2.035834    2.632215    0.000000
     10          1           0        0.464778    0.999255    0.000000
     11          1           0        0.536275   -1.828019    0.000000
     12          1           0       -1.870001   -3.314078    0.000000
 ---------------------------------------------------------------------
                    Distance matrix (angstroms):
                    1          2          3          4          5
     1  C    0.000000
     2  C    1.382368   0.000000
     3  C    2.385501   1.382640   0.000000
     4  C    2.749758   2.388432   1.371376   0.000000
     5  C    2.385502   2.761440   2.379424   1.371380   0.000000
     6  C    1.382370   2.401362   2.761438   2.388431   1.382636
     7  Cl   2.703962   3.993254   4.490041   3.981819   2.705704
     8  H    1.459434   2.457740   3.722335   4.209192   3.722336
     9  Cl   2.703963   1.728605   2.705708   3.981819   4.490044
    10  H    3.720469   2.455704   1.458566   2.452821   3.714537
    11  H    4.206575   3.720579   2.447527   1.456818   2.447528
    12  H    3.720467   4.220001   3.714529   2.452817   1.458561
                    6          7          8          9         10
     6  C    0.000000
     7  Cl   1.728604   0.000000
     8  H    2.457744   2.986638   0.000000
     9  Cl   3.993258   5.396113   2.986638   0.000000
    10  H    4.220004   5.948607   4.913078   2.986573   0.000000
    11  H    3.720575   5.148728   5.666010   5.148731   2.828178
    12  H    2.455701   2.986576   4.913079   5.948606   4.904696
                   11         12
    11  H    0.000000
    12  H    2.828168   0.000000
 Stoichiometry    C6H4Cl2
 Framework group  CS[SG(C6H4Cl2)]
 Deg. of freedom    21
 Full point group                 CS      NOp   2
 Largest Abelian subgroup         CS      NOp   2
 Largest concise Abelian subgroup C1      NOp   1
                         Standard orientation:                         
 ---------------------------------------------------------------------
 Center     Atomic      Atomic             Coordinates (Angstroms)
 Number     Number       Type             X           Y           Z
 ---------------------------------------------------------------------
      1          6           0       -0.000000    0.700014    0.000000
      2          6           0        1.200680    0.014954   -0.000000
      3          6           0        1.189710   -1.367643   -0.000000
      4          6           0        0.000001   -2.049744   -0.000000
      5          6           0       -1.189713   -1.367642    0.000000
      6          6           0       -1.200682    0.014951    0.000000
      7         17           0       -2.698056    0.878630    0.000000
      8          1           0        0.000001    2.159448    0.000000
      9         17           0        2.698057    0.878630   -0.000000
     10          1           0        2.452351   -2.097818   -0.000000
     11          1           0       -0.000002   -3.506562   -0.000000
     12          1           0       -2.452345   -2.097821    0.000000
 ---------------------------------------------------------------------
 Rotational constants (GHZ):           2.7953598           0.8568600           0.6558291
 Standard basis: VSTO-6G (5D, 7F)
 There are    28 symmetry adapted cartesian basis functions of A'  symmetry.
 There are     8 symmetry adapted cartesian basis functions of A"  symmetry.
 There are    28 symmetry adapted basis functions of A'  symmetry.
 There are     8 symmetry adapted basis functions of A"  symmetry.
    36 basis functions,   216 primitive gaussians,    36 cartesian basis functions
    21 alpha electrons       21 beta electrons
       nuclear repulsion energy       201.2063594550 Hartrees.
 Integral buffers will be    131072 words long.
 Regular integral format.
 Two-electron integral symmetry is turned off.
 Do NDO integrals.
 One-electron integrals computed using PRISM.
 NBasis=    36 RedAO= T EigKep=  1.00D+00  NBF=    28     8
 NBsUse=    36 1.00D-06 EigRej= -1.00D+00 NBFU=    28     8
 Initial guess from the checkpoint file:  "geometry_chks/13ClBz.chk"
 B after Tr=    -0.000000    0.000000    0.000000
         Rot=    1.000000    0.000000   -0.000000   -0.000000 Ang=  -0.00 deg.
 Initial guess orbital symmetries:
       Occupied  (A') (A') (A') (A') (A') (A') (A') (A') (A') (A')
                 (A") (A') (A") (A') (A') (A") (A') (A') (A') (A")
                 (A")
       Virtual   (A") (A') (A") (A') (A') (A') (A') (A') (A") (A')
                 (A') (A') (A') (A') (A')
 Keep J ints in memory in canonical form, NReq=862905.
 Overlap will be assumed to be unity.
 Requested convergence on RMS density matrix=1.00D-08 within  32 cycles.
 Requested convergence on MAX density matrix=1.00D-06.
 Requested convergence on             energy=1.00D-06.
 No special actions if energy rises.
 Fock symm off for IB=2 I1=    1 I=   29 J=    7 Cut=1.00D-07 Err=4.75D-03
 Fock matrix is not symmetric: symmetry in diagonalization turned off.
 SCF Done:  E(RAM1) =  0.215567106210     A.U. after   11 cycles
            NFock= 10  Conv=0.71D-08     -V/T= 1.0024
 QCSCF skips out because SCF is already converged.
 Calling FoFJK, ICntrl=      2127 FMM=F ISym2X=1 I1Cent= 0 IOpClX= 0 NMat=1 NMatS=1 NMatT=0.
 ***** Axes restored to original set *****
 -------------------------------------------------------------------
 Center     Atomic                   Forces (Hartrees/Bohr)
 Number     Number              X              Y              Z
 -------------------------------------------------------------------
      1        6          -0.107157382    0.058002983    0.000000000
      2        6          -0.002085988    0.028707728    0.000000000
      3        6           0.108319238    0.061274879    0.000000000
      4        6           0.106708059   -0.057763035    0.000000000
      5        6           0.007929931   -0.124195970    0.000000000
      6        6          -0.025179254   -0.013948225   -0.000000000
      7       17           0.013978453    0.008909805    0.000000000
      8        1           0.100667116   -0.054490721   -0.000000000
      9       17           0.000183407   -0.016576341   -0.000000000
     10        1          -0.098210884   -0.059869841   -0.000000000
     11        1          -0.101578185    0.054983968   -0.000000000
     12        1          -0.003574510    0.114964771   -0.000000000
 -------------------------------------------------------------------
 Cartesian Forces:  Max     0.124195970 RMS     0.056680382

 GradGradGradGradGradGradGradGradGradGradGradGradGradGradGradGradGradGrad
 Berny optimization.
 Using GEDIIS/GDIIS optimizer.
 FormGI is forming the generalized inverse of G from B-inverse, IUseBI=4.
 Internal  Forces:  Max     0.115504824 RMS     0.031623959
 Search for a local minimum.
 Step number   4 out of a maximum of   64
 All quantities printed in internal units (Hartrees-Bohrs-Radians)
 Mixed Optimization -- RFO/linear search
 Update second derivatives using D2CorX and points    3    4
 DE= -1.81D-01 DEPred=-1.85D-01 R= 9.83D-01
 TightC=F SS=  1.41D+00  RLast= 7.50D-01 DXNew= 8.4853D-01 2.2485D+00
 Trust test= 9.83D-01 RLast= 7.50D-01 DXMaxT set to 8.49D-01
 ITU=  1  1  1  0
 Use linear search instead of GDIIS.
 Linear search step of   1.152 exceeds DXMaxT=   0.849 but not scaled.
 Quartic linear search produced a step of  1.53671.
 Iteration  1 RMS(Cart)=  0.06577430 RMS(Int)=  0.10168530
 Iteration  2 RMS(Cart)=  0.05386086 RMS(Int)=  0.04725339
 Iteration  3 RMS(Cart)=  0.04673371 RMS(Int)=  0.00000907
 Iteration  4 RMS(Cart)=  0.00000025 RMS(Int)=  0.00000907
 ClnCor:  largest displacement from symmetrization is 4.60D-09 for atom    11.
 Variable       Old X    -DE/DX   Delta X   Delta X   Delta X     New X
                                 (Linear)    (Quad)   (Total)
    R1        2.61230   0.00943  -0.02702   0.00000  -0.02703   2.58526
    R2        2.61230   0.00943  -0.02702   0.00000  -0.02703   2.58527
    R3        2.75793  -0.11447  -0.57161   0.00000  -0.57161   2.18632
    R4        2.61281   0.01115  -0.02809   0.00000  -0.02809   2.58473
    R5        3.26659  -0.01658  -0.04617   0.00000  -0.04617   3.22042
    R6        2.59152   0.00758  -0.03662   0.00000  -0.03661   2.55492
    R7        2.75629  -0.11502  -0.57326   0.00000  -0.57326   2.18303
    R8        2.59153   0.00758  -0.03662   0.00000  -0.03661   2.55492
    R9        2.75299  -0.11550  -0.57630   0.00000  -0.57630   2.17669
   R10        2.61280   0.01115  -0.02808   0.00000  -0.02808   2.58472
   R11        2.75628  -0.11502  -0.57326   0.00000  -0.57326   2.18302
   R12        3.26659  -0.01657  -0.04617   0.00000  -0.04617   3.22042
    A1        2.10461   0.00114   0.00887   0.00000   0.00884   2.11345
    A2        2.08929  -0.00057  -0.00443   0.00000  -0.00442   2.08487
    A3        2.08929  -0.00057  -0.00444   0.00000  -0.00442   2.08487
    A4        2.08135  -0.00112  -0.00908   0.00000  -0.00910   2.07226
    A5        2.09992   0.00013   0.00386   0.00000   0.00387   2.10379
    A6        2.10191   0.00099   0.00522   0.00000   0.00522   2.10714
    A7        2.09931  -0.00010   0.00304   0.00000   0.00306   2.10237
    A8        2.08717  -0.00041  -0.00564   0.00000  -0.00565   2.08152
    A9        2.09671   0.00051   0.00260   0.00000   0.00259   2.09930
   A10        2.10043   0.00129   0.00321   0.00000   0.00324   2.10367
   A11        2.09138  -0.00065  -0.00161   0.00000  -0.00162   2.08976
   A12        2.09138  -0.00065  -0.00161   0.00000  -0.00162   2.08976
   A13        2.09931  -0.00010   0.00304   0.00000   0.00306   2.10237
   A14        2.09670   0.00051   0.00260   0.00000   0.00259   2.09929
   A15        2.08717  -0.00041  -0.00564   0.00000  -0.00565   2.08152
   A16        2.08136  -0.00112  -0.00908   0.00000  -0.00910   2.07226
   A17        2.09992   0.00013   0.00386   0.00000   0.00387   2.10379
   A18        2.10191   0.00099   0.00522   0.00000   0.00523   2.10714
    D1       -0.00000   0.00000   0.00000   0.00000   0.00000   0.00000
    D2        3.14159  -0.00000   0.00000   0.00000   0.00000   3.14159
    D3        3.14159   0.00000   0.00000   0.00000   0.00000   3.14159
    D4        0.00000   0.00000   0.00000   0.00000   0.00000   0.00000
    D5        0.00000  -0.00000   0.00000   0.00000   0.00000   0.00000
    D6        3.14159   0.00000   0.00000   0.00000   0.00000   3.14159
    D7        3.14159  -0.00000   0.00000   0.00000   0.00000   3.14159
    D8       -0.00000  -0.00000   0.00000   0.00000   0.00000   0.00000
    D9        0.00000  -0.00000   0.00000   0.00000   0.00000   0.00000
   D10        3.14159  -0.00000   0.00000   0.00000   0.00000   3.14159
   D11        3.14159   0.00000   0.00000   0.00000   0.00000   3.14159
   D12       -0.00000  -0.00000   0.00000   0.00000   0.00000   0.00000
   D13       -0.00000  -0.00000   0.00000   0.00000   0.00000   0.00000
   D14        3.14159  -0.00000   0.00000   0.00000   0.00000   3.14159
   D15        3.14159   0.00000   0.00000   0.00000   0.00000   3.14159
   D16        0.00000   0.00000   0.00000   0.00000  -0.00000   0.00000
   D17        0.00000   0.00000   0.00000   0.00000  -0.00000   0.00000
   D18        3.14159  -0.00000   0.00000   0.00000   0.00000   3.14159
   D19        3.14159   0.00000   0.00000   0.00000   0.00000   3.14159
   D20       -0.00000   0.00000   0.00000   0.00000   0.00000   0.00000
   D21       -0.00000  -0.00000   0.00000   0.00000   0.00000   0.00000
   D22        3.14159  -0.00000   0.00000   0.00000   0.00000   3.14159
   D23        3.14159   0.00000   0.00000   0.00000   0.00000   3.14159
   D24        0.00000   0.00000   0.00000   0.00000  -0.00000   0.00000
         Item               Value     Threshold  Converged?
 Maximum Force            0.115505     0.000450     NO 
 RMS     Force            0.031624     0.000300     NO 
 Maximum Displacement     0.584538     0.001800     NO 
 RMS     Displacement     0.165085     0.001200     NO 
 Predicted change in Energy=-2.478876D-01
 GradGradGradGradGradGradGradGradGradGradGradGradGradGradGradGradGradGrad

                          Input orientation:                          
 ---------------------------------------------------------------------
 Center     Atomic      Atomic             Coordinates (Angstroms)
 Number     Number       Type             X           Y           Z
 ---------------------------------------------------------------------
      1          6           0       -3.124892    0.153752   -0.000000
      2          6           0       -1.966223    0.881132    0.000000
      3          6           0       -0.771666    0.214913    0.000000
      4          6           0       -0.740806   -1.136739    0.000000
      5          6           0       -1.889378   -1.849976    0.000000
      6          6           0       -3.100354   -1.214094    0.000000
      7         17           0       -4.552375   -2.106193   -0.000000
      8          1           0       -4.142347    0.704495   -0.000000
      9         17           0       -2.013244    2.584655   -0.000000
     10          1           0        0.212375    0.820036    0.000000
     11          1           0        0.272167   -1.685057    0.000000
     12          1           0       -1.857957   -3.004754    0.000000
 ---------------------------------------------------------------------
                    Distance matrix (angstroms):
                    1          2          3          4          5
     1  C    0.000000
     2  C    1.368062   0.000000
     3  C    2.354021   1.367778   0.000000
     4  C    2.710947   2.360816   1.352005   0.000000
     5  C    2.354022   2.732189   2.347988   1.352008   0.000000
     6  C    1.368066   2.382483   2.732188   2.360816   1.367776
     7  Cl   2.673024   3.951239   4.436361   3.932925   2.675295
     8  H    1.156950   2.183280   3.406051   3.867896   3.406052
     9  Cl   2.673023   1.704171   2.675293   3.932922   4.436361
    10  H    3.403128   2.179455   1.155210   2.176585   3.397989
    11  H    3.862800   3.405249   2.167827   1.151853   2.167827
    12  H    3.403128   3.887394   3.397983   2.176581   1.155205
                    6          7          8          9         10
     6  C    0.000000
     7  Cl   1.704173   0.000000
     8  H    2.183284   2.840438   0.000000
     9  Cl   3.951240   5.333970   2.840436   0.000000
    10  H    3.887397   5.591570   4.356254   2.840292   0.000000
    11  H    3.405247   4.842888   5.019750   4.842886   2.505806
    12  H    2.179453   2.840300   4.356256   5.591565   4.349171
                   11         12
    11  H    0.000000
    12  H    2.505799   0.000000
 Stoichiometry    C6H4Cl2
 Framework group  CS[SG(C6H4Cl2)]
 Deg. of freedom    21
 Full point group                 CS      NOp   2
 Largest Abelian subgroup         CS      NOp   2
 Largest concise Abelian subgroup C1      NOp   1
                         Standard orientation:                         
 ---------------------------------------------------------------------
 Center     Atomic      Atomic             Coordinates (Angstroms)
 Number     Number       Type             X           Y           Z
 ---------------------------------------------------------------------
      1          6           0        0.000000    0.684578   -0.000000
      2          6           0        1.191241    0.011867    0.000000
      3          6           0        1.173995   -1.355802    0.000000
      4          6           0        0.000003   -2.026369    0.000000
      5          6           0       -1.173993   -1.355804    0.000000
      6          6           0       -1.191242    0.011863   -0.000000
      7         17           0       -2.666986    0.864145   -0.000000
      8          1           0       -0.000001    1.841528   -0.000000
      9         17           0        2.666984    0.864148    0.000000
     10          1           0        2.174591   -1.933138    0.000000
     11          1           0        0.000003   -3.178222    0.000000
     12          1           0       -2.174581   -1.933146    0.000000
 ---------------------------------------------------------------------
 Rotational constants (GHZ):           2.9373246           0.8802659           0.6772928
 Standard basis: VSTO-6G (5D, 7F)
 There are    28 symmetry adapted cartesian basis functions of A'  symmetry.
 There are     8 symmetry adapted cartesian basis functions of A"  symmetry.
 There are    28 symmetry adapted basis functions of A'  symmetry.
 There are     8 symmetry adapted basis functions of A"  symmetry.
    36 basis functions,   216 primitive gaussians,    36 cartesian basis functions
    21 alpha electrons       21 beta electrons
       nuclear repulsion energy       204.9651390818 Hartrees.
 Integral buffers will be    131072 words long.
 Regular integral format.
 Two-electron integral symmetry is turned off.
 Do NDO integrals.
 One-electron integrals computed using PRISM.
 NBasis=    36 RedAO= T EigKep=  1.00D+00  NBF=    28     8
 NBsUse=    36 1.00D-06 EigRej= -1.00D+00 NBFU=    28     8
 Initial guess from the checkpoint file:  "geometry_chks/13ClBz.chk"
 B after Tr=    -0.000000   -0.000000   -0.000000
         Rot=    1.000000    0.000000   -0.000000   -0.000000 Ang=  -0.00 deg.
 Initial guess orbital symmetries:
       Occupied  (A') (A') (A') (A') (A') (A') (A') (A') (A') (A')
                 (A") (A') (A') (A") (A') (A") (A') (A') (A') (A")
                 (A")
       Virtual   (A") (A") (A') (A') (A') (A') (A') (A') (A") (A')
                 (A') (A') (A') (A') (A')
 Keep J ints in memory in canonical form, NReq=862905.
 Overlap will be assumed to be unity.
 Requested convergence on RMS density matrix=1.00D-08 within  32 cycles.
 Requested convergence on MAX density matrix=1.00D-06.
 Requested convergence on             energy=1.00D-06.
 No special actions if energy rises.
 Fock symm off for IB=2 I1=    1 I=   29 J=    5 Cut=1.00D-07 Err=7.02D-03
 Fock matrix is not symmetric: symmetry in diagonalization turned off.
 SCF Done:  E(RAM1) =  0.298263554079E-01 A.U. after   11 cycles
            NFock= 10  Conv=0.94D-08     -V/T= 1.0003
 QCSCF skips out because SCF is already converged.
 Calling FoFJK, ICntrl=      2127 FMM=F ISym2X=1 I1Cent= 0 IOpClX= 0 NMat=1 NMatS=1 NMatT=0.
 ***** Axes restored to original set *****
 -------------------------------------------------------------------
 Center     Atomic                   Forces (Hartrees/Bohr)
 Number     Number              X              Y              Z
 -------------------------------------------------------------------
      1        6          -0.076978246    0.041665504    0.000000000
      2        6          -0.003562430    0.038903584    0.000000000
      3        6           0.071361943    0.058318042    0.000000000
      4        6           0.075681510   -0.040968189    0.000000000
      5        6          -0.009804924   -0.091633710    0.000000000
      6        6          -0.034522333   -0.018286939   -0.000000000
      7       17           0.001121180    0.001052864   -0.000000000
      8        1           0.025957800   -0.014051066   -0.000000000
      9       17          -0.000268628   -0.001513439   -0.000000000
     10        1          -0.024499021   -0.016059105   -0.000000000
     11        1          -0.024536303    0.013281486   -0.000000000
     12        1           0.000049451    0.029290968   -0.000000000
 -------------------------------------------------------------------
 Cartesian Forces:  Max     0.091633710 RMS     0.032692584

 GradGradGradGradGradGradGradGradGradGradGradGradGradGradGradGradGradGrad
 Berny optimization.
 Using GEDIIS/GDIIS optimizer.
 FormGI is forming the generalized inverse of G from B-inverse, IUseBI=4.
 Internal  Forces:  Max     0.060538792 RMS     0.019418730
 Search for a local minimum.
 Step number   5 out of a maximum of   64
 All quantities printed in internal units (Hartrees-Bohrs-Radians)
 Mixed Optimization -- RFO/linear search
 Update second derivatives using D2CorX and points    4    5
 ITU=  0  1  1  1  0
 Use linear search instead of GDIIS.
     Eigenvalues ---    0.02011   0.02011   0.02011   0.02011   0.02011
     Eigenvalues ---    0.02011   0.02011   0.02011   0.02011   0.06523
     Eigenvalues ---    0.06524   0.06524   0.14718   0.16000   0.16000
     Eigenvalues ---    0.16000   0.16008   0.21992   0.23454   0.23543
     Eigenvalues ---    0.25000   0.25000   0.27910   0.29033   0.40469
     Eigenvalues ---    0.40822   0.44573   0.44656   0.44657   1.15479
 RFO step:  Lambda=-2.07281310D-02 EMin= 2.01065814D-02
 Quartic linear search produced a step of  0.13773.
 Iteration  1 RMS(Cart)=  0.02302477 RMS(Int)=  0.00018828
 Iteration  2 RMS(Cart)=  0.00018348 RMS(Int)=  0.00001035
 Iteration  3 RMS(Cart)=  0.00000004 RMS(Int)=  0.00001035
 ClnCor:  largest displacement from symmetrization is 1.62D-10 for atom    10.
 Variable       Old X    -DE/DX   Delta X   Delta X   Delta X     New X
                                 (Linear)    (Quad)   (Total)
    R1        2.58526   0.04685  -0.00372   0.04102   0.03728   2.62254
    R2        2.58527   0.04685  -0.00372   0.04102   0.03728   2.62255
    R3        2.18632  -0.02952  -0.07873  -0.04519  -0.12392   2.06240
    R4        2.58473   0.05009  -0.00387   0.04844   0.04457   2.62929
    R5        3.22042  -0.00151  -0.00636  -0.01985  -0.02621   3.19421
    R6        2.55492   0.06054  -0.00504   0.06516   0.06014   2.61505
    R7        2.18303  -0.02928  -0.07896  -0.04011  -0.11907   2.06396
    R8        2.55492   0.06054  -0.00504   0.06516   0.06014   2.61506
    R9        2.17669  -0.02790  -0.07938  -0.02437  -0.10374   2.07295
   R10        2.58472   0.05009  -0.00387   0.04844   0.04457   2.62929
   R11        2.18302  -0.02928  -0.07896  -0.04009  -0.11904   2.06398
   R12        3.22042  -0.00151  -0.00636  -0.01985  -0.02621   3.19421
    A1        2.11345  -0.00410   0.00122  -0.03231  -0.03112   2.08233
    A2        2.08487   0.00205  -0.00061   0.01616   0.01556   2.10043
    A3        2.08487   0.00205  -0.00061   0.01615   0.01556   2.10043
    A4        2.07226   0.00739  -0.00125   0.03169   0.03042   2.10268
    A5        2.10379  -0.00419   0.00053  -0.01765  -0.01711   2.08668
    A6        2.10714  -0.00319   0.00072  -0.01404  -0.01331   2.09383
    A7        2.10237  -0.00438   0.00042  -0.01406  -0.01362   2.08874
    A8        2.08152   0.00312  -0.00078   0.01243   0.01164   2.09316
    A9        2.09930   0.00127   0.00036   0.00163   0.00198   2.10128
   A10        2.10367  -0.00191   0.00045  -0.00294  -0.00247   2.10120
   A11        2.08976   0.00096  -0.00022   0.00147   0.00123   2.09099
   A12        2.08976   0.00096  -0.00022   0.00147   0.00123   2.09099
   A13        2.10237  -0.00438   0.00042  -0.01406  -0.01362   2.08874
   A14        2.09929   0.00127   0.00036   0.00163   0.00198   2.10128
   A15        2.08152   0.00312  -0.00078   0.01243   0.01164   2.09316
   A16        2.07226   0.00739  -0.00125   0.03169   0.03042   2.10268
   A17        2.10379  -0.00419   0.00053  -0.01765  -0.01711   2.08668
   A18        2.10714  -0.00319   0.00072  -0.01404  -0.01331   2.09383
    D1       -0.00000   0.00000   0.00000   0.00000   0.00000   0.00000
    D2        3.14159  -0.00000   0.00000   0.00000   0.00000   3.14159
    D3        3.14159   0.00000   0.00000   0.00000   0.00000   3.14159
    D4       -0.00000   0.00000   0.00000   0.00000   0.00000   0.00000
    D5        0.00000   0.00000   0.00000  -0.00000   0.00000   0.00000
    D6        3.14159   0.00000   0.00000   0.00000   0.00000   3.14159
    D7        3.14159  -0.00000   0.00000  -0.00000   0.00000   3.14159
    D8        0.00000  -0.00000   0.00000  -0.00000  -0.00000   0.00000
    D9        0.00000  -0.00000   0.00000  -0.00000   0.00000   0.00000
   D10        3.14159  -0.00000   0.00000  -0.00000   0.00000   3.14159
   D11        3.14159   0.00000   0.00000   0.00000   0.00000   3.14159
   D12        0.00000  -0.00000   0.00000   0.00000  -0.00000   0.00000
[...]
 Step number  12 out of a maximum of   64
 All quantities printed in internal units (Hartrees-Bohrs-Radians)
 Mixed Optimization -- En-DIIS/RFO-DIIS
 Swapping is turned off.
 Update second derivatives using D2CorX and points    5    6    8    7    9
                                                     10   11   12
 DE= -7.57D-06 DEPred=-7.55D-06 R= 1.00D+00
 TightC=F SS=  1.41D+00  RLast= 6.43D-03 DXNew= 3.5676D-01 1.9292D-02
 Trust test= 1.00D+00 RLast= 6.43D-03 DXMaxT set to 2.12D-01
 ITU=  1  1 -1  1 -1  0  1  0  1  1  1  0
     Eigenvalues ---    0.02011   0.02011   0.02011   0.02011   0.02011
     Eigenvalues ---    0.02011   0.02011   0.02011   0.02011   0.06524
     Eigenvalues ---    0.15650   0.16000   0.16000   0.16000   0.21501
     Eigenvalues ---    0.21993   0.23486   0.24998   0.25000   0.29033
     Eigenvalues ---    0.29838   0.32769   0.36166   0.36515   0.40911
     Eigenvalues ---    0.44519   0.44656   0.44657   0.46238   0.80338
 En-DIIS/RFO-DIIS/Sim-DIIS IScMMF=       -3 using points:    12   11   10    9
 RFO step:  Lambda=-5.20076910D-08.
 DidBck=F Rises=F RFO-DIIS coefs:    0.92770    0.03401    0.01472    0.02356
 Iteration  1 RMS(Cart)=  0.00008131 RMS(Int)=  0.00000000
 Iteration  2 RMS(Cart)=  0.00000000 RMS(Int)=  0.00000000
 ClnCor:  largest displacement from symmetrization is 3.26D-13 for atom     8.
 Variable       Old X    -DE/DX   Delta X   Delta X   Delta X     New X
                                 (Linear)    (Quad)   (Total)
    R1        2.64209  -0.00009  -0.00005  -0.00011  -0.00016   2.64193
    R2        2.64209  -0.00009  -0.00005  -0.00011  -0.00016   2.64193
    R3        2.08075  -0.00000  -0.00009   0.00010   0.00001   2.08076
    R4        2.64302  -0.00002  -0.00001   0.00000  -0.00001   2.64301
    R5        3.21142  -0.00004  -0.00002  -0.00009  -0.00011   3.21130
    R6        2.63425   0.00001  -0.00000   0.00008   0.00007   2.63432
    R7        2.07965  -0.00002  -0.00007   0.00001  -0.00006   2.07959
    R8        2.63425   0.00001  -0.00000   0.00008   0.00007   2.63432
    R9        2.07996  -0.00002   0.00005  -0.00013  -0.00007   2.07989
   R10        2.64302  -0.00002  -0.00001   0.00000  -0.00001   2.64301
   R11        2.07964  -0.00001  -0.00007   0.00003  -0.00004   2.07960
   R12        3.21142  -0.00004  -0.00002  -0.00009  -0.00011   3.21130
    A1        2.07470   0.00000   0.00002  -0.00004  -0.00002   2.07468
    A2        2.10424  -0.00000  -0.00001   0.00002   0.00001   2.10425
    A3        2.10424  -0.00000  -0.00001   0.00002   0.00001   2.10425
    A4        2.10931   0.00003  -0.00000   0.00007   0.00007   2.10938
    A5        2.08416  -0.00002  -0.00001  -0.00007  -0.00008   2.08409
    A6        2.08972  -0.00000   0.00001  -0.00000   0.00000   2.08972
    A7        2.08395  -0.00001  -0.00000  -0.00002  -0.00002   2.08393
    A8        2.10070   0.00001  -0.00001   0.00003   0.00002   2.10072
    A9        2.09854   0.00000   0.00001  -0.00001  -0.00000   2.09854
   A10        2.10515  -0.00003  -0.00001  -0.00006  -0.00007   2.10508
   A11        2.08902   0.00001   0.00001   0.00003   0.00004   2.08905
   A12        2.08902   0.00001   0.00001   0.00003   0.00004   2.08905
   A13        2.08395  -0.00001  -0.00000  -0.00002  -0.00002   2.08393
   A14        2.09854   0.00000   0.00001  -0.00001  -0.00000   2.09854
   A15        2.10070   0.00001  -0.00001   0.00003   0.00002   2.10072
   A16        2.10931   0.00003  -0.00000   0.00007   0.00007   2.10938
   A17        2.08416  -0.00002  -0.00001  -0.00007  -0.00007   2.08409
   A18        2.08972  -0.00000   0.00001  -0.00000   0.00000   2.08972
    D1        0.00000  -0.00000   0.00000  -0.00000   0.00000   0.00000
    D2        3.14159  -0.00000   0.00000  -0.00000   0.00000   3.14159
    D3        3.14159   0.00000   0.00000   0.00000   0.00000   3.14159
    D4       -0.00000   0.00000   0.00000   0.00000   0.00000   0.00000
    D5        0.00000  -0.00000   0.00000  -0.00000  -0.00000   0.00000
    D6        3.14159   0.00000   0.00000   0.00000   0.00000   3.14159
    D7        3.14159  -0.00000   0.00000  -0.00000   0.00000   3.14159
    D8       -0.00000  -0.00000   0.00000  -0.00000   0.00000   0.00000
    D9        0.00000   0.00000   0.00000   0.00000  -0.00000   0.00000
   D10        3.14159  -0.00000   0.00000  -0.00000   0.00000   3.14159
   D11        3.14159   0.00000   0.00000   0.00000   0.00000   3.14159
   D12       -0.00000  -0.00000   0.00000  -0.00000   0.00000   0.00000
   D13       -0.00000   0.00000   0.00000   0.00000   0.00000   0.00000
   D14        3.14159  -0.00000   0.00000  -0.00000   0.00000   3.14159
   D15        3.14159   0.00000   0.00000   0.00000   0.00000   3.14159
   D16        0.00000   0.00000   0.00000   0.00000   0.00000   0.00000
   D17        0.00000  -0.00000   0.00000  -0.00000   0.00000   0.00000
   D18        3.14159  -0.00000   0.00000  -0.00000   0.00000   3.14159
   D19        3.14159   0.00000   0.00000   0.00000   0.00000   3.14159
   D20       -0.00000  -0.00000   0.00000  -0.00000   0.00000   0.00000
   D21       -0.00000   0.00000   0.00000   0.00000   0.00000   0.00000
   D22        3.14159  -0.00000   0.00000  -0.00000   0.00000   3.14159
   D23        3.14159   0.00000   0.00000   0.00000   0.00000   3.14159
   D24        0.00000   0.00000   0.00000   0.00000   0.00000   0.00000
         Item               Value     Threshold  Converged?
 Maximum Force            0.000087     0.000450     YES
 RMS     Force            0.000021     0.000300     YES
 Maximum Displacement     0.000361     0.001800     YES
 RMS     Displacement     0.000081     0.001200     YES
 Predicted change in Energy=-2.788608D-08
 Optimization completed.
    -- Stationary point found.
                           ----------------------------
                           !   Optimized Parameters   !
                           ! (Angstroms and Degrees)  !
 --------------------------                            --------------------------
 ! Name  Definition              Value          Derivative Info.                !
 --------------------------------------------------------------------------------
 ! R1    R(1,2)                  1.3981         -DE/DX =   -0.0001              !
 ! R2    R(1,6)                  1.3981         -DE/DX =   -0.0001              !
 ! R3    R(1,8)                  1.1011         -DE/DX =    0.0                 !
 ! R4    R(2,3)                  1.3986         -DE/DX =    0.0                 !
 ! R5    R(2,9)                  1.6994         -DE/DX =    0.0                 !
 ! R6    R(3,4)                  1.394          -DE/DX =    0.0                 !
 ! R7    R(3,10)                 1.1005         -DE/DX =    0.0                 !
 ! R8    R(4,5)                  1.394          -DE/DX =    0.0                 !
 ! R9    R(4,11)                 1.1007         -DE/DX =    0.0                 !
 ! R10   R(5,6)                  1.3986         -DE/DX =    0.0                 !
 ! R11   R(5,12)                 1.1005         -DE/DX =    0.0                 !
 ! R12   R(6,7)                  1.6994         -DE/DX =    0.0                 !
 ! A1    A(2,1,6)              118.8716         -DE/DX =    0.0                 !
 ! A2    A(2,1,8)              120.5642         -DE/DX =    0.0                 !
 ! A3    A(6,1,8)              120.5642         -DE/DX =    0.0                 !
 ! A4    A(1,2,3)              120.8543         -DE/DX =    0.0                 !
 ! A5    A(1,2,9)              119.4138         -DE/DX =    0.0                 !
 ! A6    A(3,2,9)              119.7319         -DE/DX =    0.0                 !
 ! A7    A(2,3,4)              119.4016         -DE/DX =    0.0                 !
 ! A8    A(2,3,10)             120.3611         -DE/DX =    0.0                 !
 ! A9    A(4,3,10)             120.2373         -DE/DX =    0.0                 !
 ! A10   A(3,4,5)              120.6164         -DE/DX =    0.0                 !
 ! A11   A(3,4,11)             119.6918         -DE/DX =    0.0                 !
 ! A12   A(5,4,11)             119.6918         -DE/DX =    0.0                 !
 ! A13   A(4,5,6)              119.4016         -DE/DX =    0.0                 !
 ! A14   A(4,5,12)             120.2373         -DE/DX =    0.0                 !
 ! A15   A(6,5,12)             120.3611         -DE/DX =    0.0                 !
 ! A16   A(1,6,5)              120.8543         -DE/DX =    0.0                 !
 ! A17   A(1,6,7)              119.4138         -DE/DX =    0.0                 !
 ! A18   A(5,6,7)              119.7319         -DE/DX =    0.0                 !
 ! D1    D(6,1,2,3)              0.0            -DE/DX =    0.0                 !
 ! D2    D(6,1,2,9)            180.0            -DE/DX =    0.0                 !
 ! D3    D(8,1,2,3)            180.0            -DE/DX =    0.0                 !
 ! D4    D(8,1,2,9)              0.0            -DE/DX =    0.0                 !
 ! D5    D(2,1,6,5)              0.0            -DE/DX =    0.0                 !
 ! D6    D(2,1,6,7)            180.0            -DE/DX =    0.0                 !
 ! D7    D(8,1,6,5)            180.0            -DE/DX =    0.0                 !
 ! D8    D(8,1,6,7)              0.0            -DE/DX =    0.0                 !
 ! D9    D(1,2,3,4)              0.0            -DE/DX =    0.0                 !
 ! D10   D(1,2,3,10)           180.0            -DE/DX =    0.0                 !
 ! D11   D(9,2,3,4)            180.0            -DE/DX =    0.0                 !
 ! D12   D(9,2,3,10)             0.0            -DE/DX =    0.0                 !
 ! D13   D(2,3,4,5)              0.0            -DE/DX =    0.0                 !
 ! D14   D(2,3,4,11)           180.0            -DE/DX =    0.0                 !
 ! D15   D(10,3,4,5)           180.0            -DE/DX =    0.0                 !
 ! D16   D(10,3,4,11)            0.0            -DE/DX =    0.0                 !
 ! D17   D(3,4,5,6)              0.0            -DE/DX =    0.0                 !
 ! D18   D(3,4,5,12)           180.0            -DE/DX =    0.0                 !
 ! D19   D(11,4,5,6)           180.0            -DE/DX =    0.0                 !
 ! D20   D(11,4,5,12)            0.0            -DE/DX =    0.0                 !
 ! D21   D(4,5,6,1)              0.0            -DE/DX =    0.0                 !
 ! D22   D(4,5,6,7)            180.0            -DE/DX =    0.0                 !
 ! D23   D(12,5,6,1)           180.0            -DE/DX =    0.0                 !
 ! D24   D(12,5,6,7)             0.0            -DE/DX =    0.0                 !
 --------------------------------------------------------------------------------
 GradGradGradGradGradGradGradGradGradGradGradGradGradGradGradGradGradGrad

                          Input orientation:                          
 ---------------------------------------------------------------------
 Center     Atomic      Atomic             Coordinates (Angstroms)
 Number     Number       Type             X           Y           Z
 ---------------------------------------------------------------------
      1          6           0       -3.166282    0.176156    0.000000
      2          6           0       -1.967967    0.896444    0.000000
      3          6           0       -0.734620    0.236895    0.000000
      4          6           0       -0.703836   -1.156751    0.000000
      5          6           0       -1.887525   -1.893011   -0.000000
      6          6           0       -3.114129   -1.221004   -0.000000
      7         17           0       -4.562313   -2.110246   -0.000000
      8          1           0       -4.134608    0.700304    0.000000
      9         17           0       -2.015287    2.595194    0.000000
     10          1           0        0.203685    0.811948    0.000000
     11          1           0        0.264123   -1.680702    0.000000
     12          1           0       -1.855942   -2.993057   -0.000000
 ---------------------------------------------------------------------
                    Distance matrix (angstroms):
                    1          2          3          4          5
     1  C    0.000000
     2  C    1.398133   0.000000
     3  C    2.432421   1.398624   0.000000
     4  C    2.800050   2.411148   1.393986   0.000000
     5  C    2.432421   2.790615   2.421918   1.393986   0.000000
     6  C    1.398133   2.407753   2.790615   2.411148   1.398624
     7  Cl   2.678906   3.971250   4.490023   3.974544   2.683595
     8  H    1.101084   2.175501   3.431423   3.901134   3.431423
     9  Cl   2.678906   1.699409   2.683595   3.974544   4.490023
    10  H    3.429419   2.173295   1.100501   2.167803   3.419059
    11  H    3.900718   3.409385   2.162097   1.100668   2.162097
    12  H    3.429417   3.891114   3.419057   2.167802   1.100499
                    6          7          8          9         10
     6  C    0.000000
     7  Cl   1.699409   0.000000
     8  H    2.175501   2.842908   0.000000
     9  Cl   3.971250   5.350562   2.842909   0.000000
    10  H    3.891116   5.590524   4.339729   2.846718   0.000000
    11  H    3.409385   4.845513   5.001802   4.845513   2.493383
    12  H    2.173294   2.846718   4.339728   5.590523   4.326676
                   11         12
    11  H    0.000000
    12  H    2.493381   0.000000
 Stoichiometry    C6H4Cl2
 Framework group  CS[SG(C6H4Cl2)]
 Deg. of freedom    21
 Full point group                 CS      NOp   2
 Largest Abelian subgroup         CS      NOp   2
 Largest concise Abelian subgroup C1      NOp   1
                         Standard orientation:                         
 ---------------------------------------------------------------------
 Center     Atomic      Atomic             Coordinates (Angstroms)
 Number     Number       Type             X           Y           Z
 ---------------------------------------------------------------------
      1          6           0        0.730154    0.000000    0.000000
      2          6           0        0.019199   -1.203876    0.000000
      3          6           0       -1.379407   -1.210959    0.000000
      4          6           0       -2.069896   -0.000000   -0.000000
      5          6           0       -1.379407    1.210959   -0.000000
      6          6           0        0.019199    1.203877   -0.000000
      7         17           0        0.869469    2.675281   -0.000000
      8          1           0        1.831238    0.000000    0.000000
      9         17           0        0.869469   -2.675281    0.000000
     10          1           0       -1.930837   -2.163339    0.000000
     11          1           0       -3.170564    0.000000   -0.000000
     12          1           0       -1.930837    2.163337   -0.000000
 ---------------------------------------------------------------------
 Rotational constants (GHZ):           2.8542484           0.8713967           0.6675844

 **********************************************************************

            Population analysis using the SCF Density.

 **********************************************************************

 Orbital symmetries:
       Occupied  (A') (A') (A') (A') (A') (A') (A') (A') (A') (A')
                 (A') (A") (A') (A") (A') (A') (A") (A') (A') (A")
                 (A")
       Virtual   (A") (A") (A') (A') (A") (A') (A') (A') (A') (A')
                 (A') (A') (A') (A') (A')
 The electronic state is 1-A'.
 Alpha  occ. eigenvalues --   -1.46967  -1.39652  -1.37215  -1.17111  -1.15602
 Alpha  occ. eigenvalues --   -0.87820  -0.87307  -0.68814  -0.62369  -0.61553
 Alpha  occ. eigenvalues --   -0.56663  -0.54947  -0.54729  -0.49544  -0.48145
 Alpha  occ. eigenvalues --   -0.47526  -0.44543  -0.44088  -0.43802  -0.36748
 Alpha  occ. eigenvalues --   -0.35579
 Alpha virt. eigenvalues --   -0.00579  -0.00217   0.03606   0.05143   0.08409
 Alpha virt. eigenvalues --    0.12733   0.13358   0.13678   0.14649   0.15584
 Alpha virt. eigenvalues --    0.16332   0.17647   0.17961   0.18568   0.19748
          Condensed to atoms (all electrons):
               1          2          3          4          5          6
     1  C    4.121093   0.000000   0.000000   0.000000   0.000000   0.000000
     2  C    0.000000   4.054222   0.000000   0.000000   0.000000   0.000000
     3  C    0.000000   0.000000   4.124636   0.000000   0.000000   0.000000
     4  C    0.000000   0.000000   0.000000   4.113206   0.000000   0.000000
     5  C    0.000000   0.000000   0.000000   0.000000   4.124636   0.000000
     6  C    0.000000   0.000000   0.000000   0.000000   0.000000   4.054222
     7  Cl   0.000000   0.000000   0.000000   0.000000   0.000000   0.000000
     8  H    0.000000   0.000000   0.000000   0.000000   0.000000   0.000000
     9  Cl   0.000000   0.000000   0.000000   0.000000   0.000000   0.000000
    10  H    0.000000   0.000000   0.000000   0.000000   0.000000   0.000000
    11  H    0.000000   0.000000   0.000000   0.000000   0.000000   0.000000
    12  H    0.000000   0.000000   0.000000   0.000000   0.000000   0.000000
               7          8          9         10         11         12
     1  C    0.000000   0.000000   0.000000   0.000000   0.000000   0.000000
     2  C    0.000000   0.000000   0.000000   0.000000   0.000000   0.000000
     3  C    0.000000   0.000000   0.000000   0.000000   0.000000   0.000000
     4  C    0.000000   0.000000   0.000000   0.000000   0.000000   0.000000
     5  C    0.000000   0.000000   0.000000   0.000000   0.000000   0.000000
     6  C    0.000000   0.000000   0.000000   0.000000   0.000000   0.000000
     7  Cl   7.007296   0.000000   0.000000   0.000000   0.000000   0.000000
     8  H    0.000000   0.838175   0.000000   0.000000   0.000000   0.000000
     9  Cl   0.000000   0.000000   7.007296   0.000000   0.000000   0.000000
    10  H    0.000000   0.000000   0.000000   0.849056   0.000000   0.000000
    11  H    0.000000   0.000000   0.000000   0.000000   0.857105   0.000000
    12  H    0.000000   0.000000   0.000000   0.000000   0.000000   0.849057
 Mulliken charges:
               1
     1  C   -0.121093
     2  C   -0.054222
     3  C   -0.124636
     4  C   -0.113206
     5  C   -0.124636
     6  C   -0.054222
     7  Cl  -0.007296
     8  H    0.161825
     9  Cl  -0.007296
    10  H    0.150944
    11  H    0.142895
    12  H    0.150943
 Sum of Mulliken charges =  -0.00000
 Mulliken charges with hydrogens summed into heavy atoms:
               1
     1  C    0.040732
     2  C   -0.054222
     3  C    0.026307
     4  C    0.029690
     5  C    0.026307
     6  C   -0.054222
     7  Cl  -0.007296
     9  Cl  -0.007296
 Charge=              0.0000 electrons
 Dipole moment (field-independent basis, Debye):
    X=             -1.2330    Y=             -0.0000    Z=              0.0000  Tot=              1.2330
 N-N= 2.038210001368D+02 E-N=-2.853329670917D+02  KE=-9.146871234543D+01
 Symmetry A'   KE=-7.103700325263D+01
 Symmetry A"   KE=-2.043170909280D+01
 1\1\GINC-SH02-01N20\FOpt\RAM1\ZDO\C6H4Cl2\JLAPIER\09-Dec-2025\0\\# opt
  am1 SCF=XQC\\2-Chloro-Benzene (13)\\0,1\C,-3.1662822057,0.176155825,0
 .\C,-1.9679666599,0.8964442997,0.\C,-0.7346197677,0.236894736,0.\C,-0.
 7038364411,-1.1567511363,0.\C,-1.887524961,-1.8930109377,0.\C,-3.11412
 85682,-1.2210042355,0.\Cl,-4.5623134393,-2.1102463411,0.\H,-4.13460771
 06,0.7003043088,0.\Cl,-2.0152865162,2.5951943591,0.\H,0.2036850739,0.8
 119480898,0.\H,0.264122976,-1.6807019847,0.\H,-1.8559417835,-2.9930569
 895,0.\\Version=ES64L-G16RevB.01\State=1-A'\HF=0.0129155\RMSD=3.572e-0
 9\RMSF=2.556e-05\Dipole=0.4266277,-0.2309303,0.\PG=CS [SG(C6H4Cl2)]\\@


 REPARTEE - WHAT YOU THINK OF AFTER YOU BECOME A DEPARTEE.
 Job cpu time:       0 days  0 hours  0 minutes 10.9 seconds.
 Elapsed time:       0 days  0 hours  0 minutes 26.3 seconds.
 File lengths (MBytes):  RWF=     10 Int=      0 D2E=      0 Chk=      2 Scr=      1
 Normal termination of Gaussian 16 at Tue Dec  9 09:59:11 2025.
