 Entering Gaussian System, Link 0=g16
 Initial command:
 /share/software/user/restricted/gaussian/g16.B01/l1.exe "/home/users/jlapier/Chloroaromatics/Gau-27246.inp" -scrdir="/home/users/jlapier/Chloroaromatics/"
 Entering Link 1 = /share/software/user/restricted/gaussian/g16.B01/l1.exe PID=     27247.
  
 Copyright (c) 1988-2017, Gaussian, Inc.  All Rights Reserved.
  
 This is part of the Gaussian(R) 16 program.  It is based on
 the Gaussian(R) 09 system (copyright 2009, Gaussian, Inc.),
 the Gaussian(R) 03 system (copyright 2003, Gaussian, Inc.),
 the Gaussian(R) 98 system (copyright 1998, Gaussian, Inc.),
 the Gaussian(R) 94 system (copyright 1995, Gaussian, Inc.),
 the Gaussian 92(TM) system (copyright 1992, Gaussian, Inc.),
 the Gaussian 90(TM) system (copyright 1990, Gaussian, Inc.),
 the Gaussian 88(TM) system (copyright 1988, Gaussian, Inc.),
 the Gaussian 86(TM) system (copyright 1986, Carnegie Mellon
 University), and the Gaussian 82(TM) system (copyright 1983,
 Carnegie Mellon University). Gaussian is a federally registered
 trademark of Gaussian, Inc.
  
 This software contains proprietary and confidential information,
 including trade secrets, belonging to Gaussian, Inc.
  
 This software is provided under written license and may be
 used, copied, transmitted, or stored only in accord with that
 written license.
  
 The following legend is applicable only to US Government
 contracts under FAR:
  
                    RESTRICTED RIGHTS LEGEND
  
 Use, reproduction and disclosure by the US Government is
 subject to restrictions as set forth in subparagraphs (a)
 and (c) of the Commercial Computer Software - Restricted
 Rights clause in FAR 52.227-19.
  
 Gaussian, Inc.
 340 Quinnipiac St., Bldg. 40, Wallingford CT 06492
  
  
 ---------------------------------------------------------------
 Warning -- This program may not be used in any manner that
 competes with the business of Gaussian, Inc. or will provide
 assistance to any competitor of Gaussian, Inc.  The licensee
 of this program is prohibited from giving any competitor of
 Gaussian, Inc. access to this program.  By using this program,
 the user acknowledges that Gaussian, Inc. is engaged in the
 business of creating and licensing software in the field of
 computational chemistry and represents and warrants to the
 licensee that it is not a competitor of Gaussian, Inc. and that
 it will not use this program in any manner prohibited above.
 ---------------------------------------------------------------
  

 Cite this work as:
 Gaussian 16, Revision B.01,
 M. J. Frisch, G. W. Trucks, H. B. Schlegel, G. E. Scuseria, 
 M. A. Robb, J. R. Cheeseman, G. Scalmani, V. Barone, 
 G. A. Petersson, H. Nakatsuji, X. Li, M. Caricato, A. V. Marenich, 
 J. Bloino, B. G. Janesko, R. Gomperts, B. Mennucci, H. P. Hratchian, 
 J. V. Ortiz, A. F. Izmaylov, J. L. Sonnenberg, D. Williams-Young, 
 F. Ding, F. Lipparini, F. Egidi, J. Goings, B. Peng, A. Petrone, 
 T. Henderson, D. Ranasinghe, V. G. Zakrzewski, J. Gao, N. Rega, 
 G. Zheng, W. Liang, M. Hada, M. Ehara, K. Toyota, R. Fukuda, 
 J. Hasegawa, M. Ishida, T. Nakajima, Y. Honda, O. Kitao, H. Nakai, 
 T. Vreven, K. Throssell, J. A. Montgomery, Jr., J. E. Peralta, 
 F. Ogliaro, M. J. Bearpark, J. J. Heyd, E. N. Brothers, K. N. Kudin, 
 V. N. Staroverov, T. A. Keith, R. Kobayashi, J. Normand, 
 K. Raghavachari, A. P. Rendell, J. C. Burant, S. S. Iyengar, 
 J. Tomasi, M. Cossi, J. M. Millam, M. Klene, C. Adamo, R. Cammi, 
 J. W. Ochterski, R. L. Martin, K. Morokuma, O. Farkas, 
 J. B. Foresman, and D. J. Fox, Gaussian, Inc., Wallingford CT, 2016.
 
 ******************************************
 Gaussian 16:  ES64L-G16RevB.01 20-Dec-2017
                 9-Dec-2025 
 ******************************************
 %mem=2GB
 %nprocshare=1
 Will use up to    1 processors via shared memory.
 %chk=geometry_chks/13ClBzAnionRadical.chk
 -----------------
 # opt am1 SCF=XQC
 -----------------
 1/18=20,19=15,26=1,38=1/1,3;
 2/9=110,12=2,17=6,18=5,40=1/2;
 3/5=2,25=1,41=700000,71=1/1,2,3;
 4/35=1/1;
 5/5=2,8=3,13=1,35=1,38=5/2,8;
 6/7=2,8=2,9=2,10=2,28=1/1;
 7//1,2,3,16;
 1/18=20,19=15,26=1/3(2);
 2/9=110/2;
 99//99;
 2/9=110/2;
 3/5=2,25=1,41=700000,71=1,135=20/1,2,3;
 4/5=5,16=3,35=1/1;
 5/5=2,8=3,13=1,35=1,38=5/2,8;
 7//1,2,3,16;
 1/18=20,19=15,26=1/3(-5);
 2/9=110/2;
 6/7=2,8=2,9=2,10=2,19=2,28=1/1;
 99/9=1/99;
 -----------------------------------
 2-Chloro-Benzene Anion Radical (13)
 -----------------------------------
 Symbolic Z-matrix:
 Charge = -1 Multiplicity = 2
 C                    -3.20928   0.19943   0. 
 C                    -2.0115    0.93555   0. 
 C                    -0.77511   0.2663    0. 
 C                    -0.7365   -1.13907   0. 
 C                    -1.93429  -1.87519   0. 
 C                    -3.17067  -1.20594   0. 
 Cl                   -4.67483  -2.13035   0. 
 H                    -4.76193   1.03987   0. 
 Cl                    0.81614  -1.97951   0. 
 H                    -1.8858   -3.64003   0. 
 H                    -2.05998   2.7004    0. 
 H                     0.72905   1.19071   0. 
 
 Add virtual bond connecting atoms H10        and C5         Dist= 3.34D+00.
 Add virtual bond connecting atoms H12        and C3         Dist= 3.34D+00.
 Add virtual bond connecting atoms H11        and C2         Dist= 3.34D+00.
 Add virtual bond connecting atoms H8         and C1         Dist= 3.34D+00.

 GradGradGradGradGradGradGradGradGradGradGradGradGradGradGradGradGradGrad
 Berny optimization.
 Initialization pass.
                           ----------------------------
                           !    Initial Parameters    !
                           ! (Angstroms and Degrees)  !
 --------------------------                            --------------------------
 ! Name  Definition              Value          Derivative Info.                !
 --------------------------------------------------------------------------------
 ! R1    R(1,2)                  1.4059         estimate D2E/DX2                !
 ! R2    R(1,6)                  1.4059         estimate D2E/DX2                !
 ! R3    R(1,8)                  1.7655         estimate D2E/DX2                !
 ! R4    R(2,3)                  1.4059         estimate D2E/DX2                !
 ! R5    R(2,11)                 1.7655         estimate D2E/DX2                !
 ! R6    R(3,4)                  1.4059         estimate D2E/DX2                !
 ! R7    R(3,12)                 1.7655         estimate D2E/DX2                !
 ! R8    R(4,5)                  1.4059         estimate D2E/DX2                !
 ! R9    R(4,9)                  1.7655         estimate D2E/DX2                !
 ! R10   R(5,6)                  1.4059         estimate D2E/DX2                !
 ! R11   R(5,10)                 1.7655         estimate D2E/DX2                !
 ! R12   R(6,7)                  1.7655         estimate D2E/DX2                !
 ! A1    A(2,1,6)              119.9999         estimate D2E/DX2                !
 ! A2    A(2,1,8)              119.9999         estimate D2E/DX2                !
 ! A3    A(6,1,8)              120.0001         estimate D2E/DX2                !
 ! A4    A(1,2,3)              120.0            estimate D2E/DX2                !
 ! A5    A(1,2,11)             120.0001         estimate D2E/DX2                !
 ! A6    A(3,2,11)             119.9999         estimate D2E/DX2                !
 ! A7    A(2,3,4)              120.0001         estimate D2E/DX2                !
 ! A8    A(2,3,12)             120.0            estimate D2E/DX2                !
 ! A9    A(4,3,12)             119.9999         estimate D2E/DX2                !
 ! A10   A(3,4,5)              119.9997         estimate D2E/DX2                !
 ! A11   A(3,4,9)              120.0003         estimate D2E/DX2                !
 ! A12   A(5,4,9)              120.0            estimate D2E/DX2                !
 ! A13   A(4,5,6)              120.0            estimate D2E/DX2                !
 ! A14   A(4,5,10)             119.9996         estimate D2E/DX2                !
 ! A15   A(6,5,10)             120.0004         estimate D2E/DX2                !
 ! A16   A(1,6,5)              120.0003         estimate D2E/DX2                !
 ! A17   A(1,6,7)              119.9999         estimate D2E/DX2                !
 ! A18   A(5,6,7)              119.9998         estimate D2E/DX2                !
 ! D1    D(6,1,2,3)              0.0            estimate D2E/DX2                !
 ! D2    D(6,1,2,11)           180.0            estimate D2E/DX2                !
 ! D3    D(8,1,2,3)            180.0            estimate D2E/DX2                !
 ! D4    D(8,1,2,11)             0.0            estimate D2E/DX2                !
 ! D5    D(2,1,6,5)              0.0            estimate D2E/DX2                !
 ! D6    D(2,1,6,7)            180.0            estimate D2E/DX2                !
 ! D7    D(8,1,6,5)            180.0            estimate D2E/DX2                !
 ! D8    D(8,1,6,7)              0.0            estimate D2E/DX2                !
 ! D9    D(1,2,3,4)              0.0            estimate D2E/DX2                !
 ! D10   D(1,2,3,12)           180.0            estimate D2E/DX2                !
 ! D11   D(11,2,3,4)           180.0            estimate D2E/DX2                !
 ! D12   D(11,2,3,12)            0.0            estimate D2E/DX2                !
 ! D13   D(2,3,4,5)              0.0            estimate D2E/DX2                !
 ! D14   D(2,3,4,9)            180.0            estimate D2E/DX2                !
 ! D15   D(12,3,4,5)           180.0            estimate D2E/DX2                !
 ! D16   D(12,3,4,9)             0.0            estimate D2E/DX2                !
 ! D17   D(3,4,5,6)              0.0            estimate D2E/DX2                !
 ! D18   D(3,4,5,10)           180.0            estimate D2E/DX2                !
 ! D19   D(9,4,5,6)            180.0            estimate D2E/DX2                !
 ! D20   D(9,4,5,10)             0.0            estimate D2E/DX2                !
 ! D21   D(4,5,6,1)              0.0            estimate D2E/DX2                !
 ! D22   D(4,5,6,7)            180.0            estimate D2E/DX2                !
 ! D23   D(10,5,6,1)           180.0            estimate D2E/DX2                !
 ! D24   D(10,5,6,7)             0.0            estimate D2E/DX2                !
 --------------------------------------------------------------------------------
 Trust Radius=3.00D-01 FncErr=1.00D-07 GrdErr=1.00D-07 EigMax=2.50D+02 EigMin=1.00D-04
 Number of steps in this run=     64 maximum allowed number of steps=    100.
 GradGradGradGradGradGradGradGradGradGradGradGradGradGradGradGradGradGrad

                          Input orientation:                          
 ---------------------------------------------------------------------
 Center     Atomic      Atomic             Coordinates (Angstroms)
 Number     Number       Type             X           Y           Z
 ---------------------------------------------------------------------
      1          6           0       -3.209280    0.199430    0.000000
      2          6           0       -2.011500    0.935550    0.000000
      3          6           0       -0.775110    0.266300    0.000000
      4          6           0       -0.736500   -1.139070    0.000000
      5          6           0       -1.934290   -1.875190    0.000000
      6          6           0       -3.170670   -1.205940    0.000000
      7         17           0       -4.674830   -2.130350    0.000000
      8          1           0       -4.761930    1.039870    0.000000
      9         17           0        0.816140   -1.979510    0.000000
     10          1           0       -1.885800   -3.640030    0.000000
     11          1           0       -2.059980    2.700400    0.000000
     12          1           0        0.729050    1.190710    0.000000
 ---------------------------------------------------------------------
                    Distance matrix (angstroms):
                    1          2          3          4          5
     1  C    0.000000
     2  C    1.405898   0.000000
     3  C    2.435088   1.405900   0.000000
     4  C    2.811801   2.435092   1.405900   0.000000
     5  C    2.435087   2.811800   2.435093   1.405907   0.000000
     6  C    1.405900   2.435088   2.811796   2.435088   1.405892
     7  Cl   2.752401   4.061166   4.577308   4.061167   2.752393
     8  H    1.765520   2.752408   4.061175   4.577321   4.061173
     9  Cl   4.577312   4.061173   2.752406   1.765511   2.752408
    10  H    4.061164   4.577306   4.061163   2.752397   1.765506
    11  H    2.752406   1.765516   2.752405   4.061173   4.577316
    12  H    4.061167   2.752403   1.765512   2.752401   4.061173
                    6          7          8          9         10
     6  C    0.000000
     7  Cl   1.765512   0.000000
     8  H    2.752412   3.171416   0.000000
     9  Cl   4.061165   5.493041   6.342832   0.000000
    10  H    2.752396   3.171407   5.493049   3.171404   0.000000
    11  H    4.061173   5.493049   3.171418   5.493052   6.342822
    12  H    4.577308   6.342819   5.493051   3.171416   5.493040
                   11         12
    11  H    0.000000
    12  H    3.171412   0.000000
 Stoichiometry    C6H4Cl2(1-,2)
 Framework group  CS[SG(C6H4Cl2)]
 Deg. of freedom    21
 Full point group                 CS      NOp   2
 Largest Abelian subgroup         CS      NOp   2
 Largest concise Abelian subgroup C1      NOp   1
                         Standard orientation:                         
 ---------------------------------------------------------------------
 Center     Atomic      Atomic             Coordinates (Angstroms)
 Number     Number       Type             X           Y           Z
 ---------------------------------------------------------------------
      1          6           0       -1.388662   -1.217544    0.000000
      2          6           0       -2.091612   -0.000002    0.000000
      3          6           0       -1.388662    1.217544    0.000000
      4          6           0        0.017239    1.217546    0.000000
      5          6           0        0.720189   -0.000006    0.000000
      6          6           0        0.017239   -1.217542    0.000000
      7         17           0        0.899994   -2.746520    0.000000
      8          1           0       -2.271422   -2.746530    0.000000
      9         17           0        0.899999    2.746522    0.000000
     10          1           0        2.485695    0.000001    0.000000
     11          1           0       -3.857127    0.000001    0.000000
     12          1           0       -2.271417    2.746522    0.000000
 ---------------------------------------------------------------------
 Rotational constants (GHZ):           2.6201340           0.8231905           0.6263916
 Standard basis: VSTO-6G (5D, 7F)
 There are    28 symmetry adapted cartesian basis functions of A'  symmetry.
 There are     8 symmetry adapted cartesian basis functions of A"  symmetry.
 There are    28 symmetry adapted basis functions of A'  symmetry.
 There are     8 symmetry adapted basis functions of A"  symmetry.
    36 basis functions,   216 primitive gaussians,    36 cartesian basis functions
    22 alpha electrons       21 beta electrons
       nuclear repulsion energy       197.1144359954 Hartrees.
 Integral buffers will be    131072 words long.
 Regular integral format.
 Two-electron integral symmetry is turned off.
 Do NDO integrals.
 One-electron integrals computed using PRISM.
 NBasis=    36 RedAO= T EigKep=  1.00D+00  NBF=    28     8
 NBsUse=    36 1.00D-06 EigRej= -1.00D+00 NBFU=    28     8
 Simple Huckel Guess.
 Initial guess orbital symmetries:
 Alpha Orbitals:
       Occupied  (A') (A') (A') (A') (A') (A') (A') (A') (A') (A")
                 (A') (A') (A') (A") (A') (A') (A") (A') (A') (A")
                 (A") (A')
       Virtual   (A") (A') (A") (A') (A') (A") (A') (A') (A') (A')
                 (A') (A') (A') (A')
 Beta  Orbitals:
       Occupied  (A') (A') (A') (A') (A') (A') (A') (A') (A') (A")
                 (A') (A') (A') (A") (A') (A') (A") (A') (A') (A")
                 (A")
       Virtual   (A') (A") (A') (A") (A') (A') (A") (A') (A') (A')
                 (A') (A') (A') (A') (A')
 The electronic state of the initial guess is 2-A'.
 Initial guess <Sx>= 0.0000 <Sy>= 0.0000 <Sz>= 0.5000 <S**2>= 0.7500 S= 0.5000
 Keep J ints in memory in canonical form, NReq=862905.
 Overlap will be assumed to be unity.
 Requested convergence on RMS density matrix=1.00D-08 within  32 cycles.
 Requested convergence on MAX density matrix=1.00D-06.
 Requested convergence on             energy=1.00D-06.
 No special actions if energy rises.
 Fock symm off for IB=2 I1=    1 I=   29 J=   23 Cut=1.00D-07 Err=4.34D-03
 Fock matrix is not symmetric: symmetry in diagonalization turned off.
 Rare condition: small coef for last iteration:  0.000D+00
 Rare condition: small coef for last iteration:  0.000D+00
 >>>>>>>>>> Convergence criterion not met.
 SCF Done:  E(UAM1) =  0.464692314332     A.U. after   33 cycles
            NFock= 32  Conv=0.13D-04     -V/T= 1.0051
 <Sx>= 0.0000 <Sy>= 0.0000 <Sz>= 0.5000 <S**2>= 1.7379 S= 0.9099
 <L.S>=  0.00000000000    
 Annihilation of the first spin contaminant:
 S**2 before annihilation     1.7379,   after     2.0531
 Keep J ints in memory in canonical form, NReq=863305.
 LinEq1:  Iter=  0 NonCon=     1 RMS=5.09D-06 Max=4.62D-05 NDo=     1
 AX will form     1 AO Fock derivatives at one time.
 LinEq1:  Iter=  1 NonCon=     1 RMS=6.33D-07 Max=5.49D-06 NDo=     1
 LinEq1:  Iter=  2 NonCon=     1 RMS=2.05D-07 Max=2.00D-06 NDo=     1
 LinEq1:  Iter=  3 NonCon=     1 RMS=6.73D-08 Max=5.77D-07 NDo=     1
 LinEq1:  Iter=  4 NonCon=     1 RMS=1.49D-08 Max=1.13D-07 NDo=     1
 LinEq1:  Iter=  5 NonCon=     1 RMS=3.75D-09 Max=2.72D-08 NDo=     1
 LinEq1:  Iter=  6 NonCon=     1 RMS=1.12D-09 Max=7.98D-09 NDo=     1
 LinEq1:  Iter=  7 NonCon=     0 RMS=2.93D-10 Max=3.09D-09 NDo=     1
 Linear equations converged to 5.277D-10 5.277D-09 after     7 iterations.
 LinEq1:  Iter=  0 NonCon=     1 RMS=3.84D-06 Max=3.91D-05 NDo=     1
 LinEq1:  Iter=  1 NonCon=     1 RMS=1.51D-06 Max=1.45D-05 NDo=     1
 LinEq1:  Iter=  2 NonCon=     1 RMS=4.68D-07 Max=2.91D-06 NDo=     1
 LinEq1:  Iter=  3 NonCon=     1 RMS=1.22D-07 Max=7.85D-07 NDo=     1
 LinEq1:  Iter=  4 NonCon=     1 RMS=2.89D-08 Max=2.11D-07 NDo=     1
 LinEq1:  Iter=  5 NonCon=     1 RMS=7.86D-09 Max=5.99D-08 NDo=     1
 LinEq1:  Iter=  6 NonCon=     1 RMS=2.62D-09 Max=2.17D-08 NDo=     1
 LinEq1:  Iter=  7 NonCon=     1 RMS=6.87D-10 Max=7.17D-09 NDo=     1
 LinEq1:  Iter=  8 NonCon=     0 RMS=2.16D-10 Max=2.34D-09 NDo=     1
 Linear equations converged to 5.092D-10 5.092D-09 after     8 iterations.
 LinEq1:  Iter=  0 NonCon=     1 RMS=1.09D-06 Max=1.18D-05 NDo=     1
 LinEq1:  Iter=  1 NonCon=     1 RMS=4.42D-07 Max=4.76D-06 NDo=     1
 LinEq1:  Iter=  2 NonCon=     1 RMS=1.09D-07 Max=9.88D-07 NDo=     1
 LinEq1:  Iter=  3 NonCon=     1 RMS=3.16D-08 Max=2.16D-07 NDo=     1
 LinEq1:  Iter=  4 NonCon=     1 RMS=9.53D-09 Max=7.57D-08 NDo=     1
 LinEq1:  Iter=  5 NonCon=     1 RMS=2.52D-09 Max=1.89D-08 NDo=     1
 LinEq1:  Iter=  6 NonCon=     1 RMS=6.52D-10 Max=4.60D-09 NDo=     1
 LinEq1:  Iter=  7 NonCon=     1 RMS=1.70D-10 Max=1.44D-09 NDo=     1
 LinEq1:  Iter=  8 NonCon=     0 RMS=6.02D-11 Max=6.29D-10 NDo=     1
 Linear equations converged to 1.385D-10 1.385D-09 after     8 iterations.
 LinEq1:  Iter=  0 NonCon=     1 RMS=6.06D-07 Max=6.33D-06 NDo=     1
 LinEq1:  Iter=  1 NonCon=     1 RMS=2.56D-07 Max=2.26D-06 NDo=     1
 LinEq1:  Iter=  2 NonCon=     1 RMS=7.26D-08 Max=3.63D-07 NDo=     1
 LinEq1:  Iter=  3 NonCon=     1 RMS=1.71D-08 Max=1.22D-07 NDo=     1
 LinEq1:  Iter=  4 NonCon=     1 RMS=4.38D-09 Max=3.53D-08 NDo=     1
 LinEq1:  Iter=  5 NonCon=     1 RMS=1.28D-09 Max=1.04D-08 NDo=     1
 LinEq1:  Iter=  6 NonCon=     1 RMS=4.05D-10 Max=3.25D-09 NDo=     1
 LinEq1:  Iter=  7 NonCon=     1 RMS=1.03D-10 Max=1.13D-09 NDo=     1
 LinEq1:  Iter=  8 NonCon=     0 RMS=3.65D-11 Max=3.78D-10 NDo=     1
 Linear equations converged to 7.671D-11 7.671D-10 after     8 iterations.
 LinEq1:  Iter=  0 NonCon=     1 RMS=1.74D-07 Max=1.81D-06 NDo=     1
 LinEq1:  Iter=  1 NonCon=     1 RMS=7.10D-08 Max=7.75D-07 NDo=     1
 LinEq1:  Iter=  2 NonCon=     1 RMS=1.73D-08 Max=1.64D-07 NDo=     1
 LinEq1:  Iter=  3 NonCon=     1 RMS=4.99D-09 Max=4.01D-08 NDo=     1
 LinEq1:  Iter=  4 NonCon=     1 RMS=1.52D-09 Max=1.28D-08 NDo=     1
 LinEq1:  Iter=  5 NonCon=     1 RMS=4.01D-10 Max=2.98D-09 NDo=     1
 LinEq1:  Iter=  6 NonCon=     1 RMS=9.88D-11 Max=6.59D-10 NDo=     1
 LinEq1:  Iter=  7 NonCon=     1 RMS=2.42D-11 Max=1.96D-10 NDo=     1
 LinEq1:  Iter=  8 NonCon=     0 RMS=8.90D-12 Max=8.36D-11 NDo=     1
 Linear equations converged to 2.190D-11 2.190D-10 after     8 iterations.
 LinEq1:  Iter=  0 NonCon=     1 RMS=1.07D-07 Max=1.00D-06 NDo=     1
 LinEq1:  Iter=  1 NonCon=     1 RMS=4.38D-08 Max=3.87D-07 NDo=     1
 LinEq1:  Iter=  2 NonCon=     1 RMS=1.27D-08 Max=6.79D-08 NDo=     1
 LinEq1:  Iter=  3 NonCon=     1 RMS=3.10D-09 Max=1.98D-08 NDo=     1
 LinEq1:  Iter=  4 NonCon=     1 RMS=7.49D-10 Max=5.89D-09 NDo=     1
 LinEq1:  Iter=  5 NonCon=     1 RMS=1.99D-10 Max=1.65D-09 NDo=     1
 LinEq1:  Iter=  6 NonCon=     1 RMS=6.11D-11 Max=5.17D-10 NDo=     1
 LinEq1:  Iter=  7 NonCon=     1 RMS=1.68D-11 Max=1.67D-10 NDo=     1
 LinEq1:  Iter=  8 NonCon=     0 RMS=5.77D-12 Max=5.80D-11 NDo=     1
 Linear equations converged to 1.597D-11 1.597D-10 after     8 iterations.
 LinEq1:  Iter=  0 NonCon=     1 RMS=2.69D-08 Max=2.70D-07 NDo=     1
 LinEq1:  Iter=  1 NonCon=     1 RMS=1.02D-08 Max=1.05D-07 NDo=     1
 LinEq1:  Iter=  2 NonCon=     1 RMS=2.60D-09 Max=2.53D-08 NDo=     1
 LinEq1:  Iter=  3 NonCon=     1 RMS=7.75D-10 Max=6.53D-09 NDo=     1
 LinEq1:  Iter=  4 NonCon=     1 RMS=2.16D-10 Max=1.71D-09 NDo=     1
 LinEq1:  Iter=  5 NonCon=     1 RMS=5.14D-11 Max=3.40D-10 NDo=     1
 LinEq1:  Iter=  6 NonCon=     1 RMS=1.24D-11 Max=7.84D-11 NDo=     1
 LinEq1:  Iter=  7 NonCon=     0 RMS=2.98D-12 Max=2.24D-11 NDo=     1
 Linear equations converged to 3.622D-12 3.622D-11 after     7 iterations.
 SCF Done:  E(UAM1) =  0.464691864668     a.u. after    8 cycles
            Convg  =    0.1481D-06                    62 Fock formations.
              S**2 =  1.7376                  -V/T =  1.0051
 <Sx>= 0.0000 <Sy>= 0.0000 <Sz>= 0.5000 <S**2>= 1.7376 S= 0.9098
 <L.S>=  0.00000000000    
 Annihilation of the first spin contaminant:
 S**2 before annihilation     1.7376,   after     2.0514

 **********************************************************************

            Population analysis using the SCF Density.

 **********************************************************************

 Orbital symmetries:
 Alpha Orbitals:
       Occupied  (A') (A') (A') (A') (A') (A') (A') (A') (A') (A")
                 (A') (A") (A') (A') (A') (A") (A') (A') (A') (A")
                 (A") (A')
       Virtual   (A') (A') (A') (A") (A") (A') (A') (A") (A') (A')
                 (A') (A') (A') (A')
 Beta  Orbitals:
       Occupied  (A') (A') (A') (A') (A') (A') (A') (A') (A') (A')
                 (A") (A") (A') (A') (A') (A") (A') (A') (A") (A")
                 (A')
       Virtual   (A') (A") (A') (A") (A') (A') (A') (A") (A') (A')
                 (A') (A') (A') (A') (A')
 The electronic state is 2-A'.
 Alpha  occ. eigenvalues --   -1.25664  -1.23076  -1.19499  -0.94071  -0.91910
 Alpha  occ. eigenvalues --   -0.64092  -0.63786  -0.47388  -0.42566  -0.38013
 Alpha  occ. eigenvalues --   -0.37613  -0.34556  -0.32326  -0.30775  -0.29597
 Alpha  occ. eigenvalues --   -0.28364  -0.26683  -0.24106  -0.20709  -0.19525
 Alpha  occ. eigenvalues --   -0.17852  -0.06664
 Alpha virt. eigenvalues --    0.14908   0.16747   0.16828   0.17634   0.18854
 Alpha virt. eigenvalues --    0.19477   0.20929   0.28084   0.31825   0.31936
 Alpha virt. eigenvalues --    0.34123   0.35192   0.37504   0.40868
  Beta  occ. eigenvalues --   -1.25682  -1.23013  -1.19778  -0.94931  -0.91964
  Beta  occ. eigenvalues --   -0.65782  -0.64075  -0.46875  -0.42778  -0.38033
  Beta  occ. eigenvalues --   -0.37614  -0.34040  -0.33506  -0.31413  -0.29673
  Beta  occ. eigenvalues --   -0.28641  -0.26088  -0.21664  -0.19792  -0.19087
  Beta  occ. eigenvalues --   -0.15692
  Beta virt. eigenvalues --    0.13748   0.16478   0.18332   0.18831   0.19756
  Beta virt. eigenvalues --    0.20978   0.21818   0.27457   0.29726   0.31883
  Beta virt. eigenvalues --    0.31973   0.33894   0.34652   0.37060   0.39133
          Condensed to atoms (all electrons):
               1          2          3          4          5          6
     1  C    4.107052   0.000000   0.000000   0.000000   0.000000   0.000000
     2  C    0.000000   4.242959   0.000000   0.000000   0.000000   0.000000
     3  C    0.000000   0.000000   4.107047   0.000000   0.000000   0.000000
     4  C    0.000000   0.000000   0.000000   4.054761   0.000000   0.000000
     5  C    0.000000   0.000000   0.000000   0.000000   4.154154   0.000000
     6  C    0.000000   0.000000   0.000000   0.000000   0.000000   4.054754
     7  Cl   0.000000   0.000000   0.000000   0.000000   0.000000   0.000000
     8  H    0.000000   0.000000   0.000000   0.000000   0.000000   0.000000
     9  Cl   0.000000   0.000000   0.000000   0.000000   0.000000   0.000000
    10  H    0.000000   0.000000   0.000000   0.000000   0.000000   0.000000
    11  H    0.000000   0.000000   0.000000   0.000000   0.000000   0.000000
    12  H    0.000000   0.000000   0.000000   0.000000   0.000000   0.000000
               7          8          9         10         11         12
     1  C    0.000000   0.000000   0.000000   0.000000   0.000000   0.000000
     2  C    0.000000   0.000000   0.000000   0.000000   0.000000   0.000000
     3  C    0.000000   0.000000   0.000000   0.000000   0.000000   0.000000
     4  C    0.000000   0.000000   0.000000   0.000000   0.000000   0.000000
     5  C    0.000000   0.000000   0.000000   0.000000   0.000000   0.000000
     6  C    0.000000   0.000000   0.000000   0.000000   0.000000   0.000000
     7  Cl   7.130588   0.000000   0.000000   0.000000   0.000000   0.000000
     8  H    0.000000   0.971021   0.000000   0.000000   0.000000   0.000000
     9  Cl   0.000000   0.000000   7.130585   0.000000   0.000000   0.000000
    10  H    0.000000   0.000000   0.000000   0.905847   0.000000   0.000000
    11  H    0.000000   0.000000   0.000000   0.000000   1.170215   0.000000
    12  H    0.000000   0.000000   0.000000   0.000000   0.000000   0.971018
          Atomic-Atomic Spin Densities.
               1          2          3          4          5          6
     1  C   -0.795580   0.000000   0.000000   0.000000   0.000000   0.000000
     2  C    0.000000   0.403247   0.000000   0.000000   0.000000   0.000000
     3  C    0.000000   0.000000  -0.795570   0.000000   0.000000   0.000000
     4  C    0.000000   0.000000   0.000000   0.327929   0.000000   0.000000
     5  C    0.000000   0.000000   0.000000   0.000000  -0.095694   0.000000
     6  C    0.000000   0.000000   0.000000   0.000000   0.000000   0.327915
     7  Cl   0.000000   0.000000   0.000000   0.000000   0.000000   0.000000
     8  H    0.000000   0.000000   0.000000   0.000000   0.000000   0.000000
     9  Cl   0.000000   0.000000   0.000000   0.000000   0.000000   0.000000
    10  H    0.000000   0.000000   0.000000   0.000000   0.000000   0.000000
    11  H    0.000000   0.000000   0.000000   0.000000   0.000000   0.000000
    12  H    0.000000   0.000000   0.000000   0.000000   0.000000   0.000000
               7          8          9         10         11         12
     1  C    0.000000   0.000000   0.000000   0.000000   0.000000   0.000000
     2  C    0.000000   0.000000   0.000000   0.000000   0.000000   0.000000
     3  C    0.000000   0.000000   0.000000   0.000000   0.000000   0.000000
     4  C    0.000000   0.000000   0.000000   0.000000   0.000000   0.000000
     5  C    0.000000   0.000000   0.000000   0.000000   0.000000   0.000000
     6  C    0.000000   0.000000   0.000000   0.000000   0.000000   0.000000
     7  Cl  -0.000486   0.000000   0.000000   0.000000   0.000000   0.000000
     8  H    0.000000   0.578910   0.000000   0.000000   0.000000   0.000000
     9  Cl   0.000000   0.000000  -0.000487   0.000000   0.000000   0.000000
    10  H    0.000000   0.000000   0.000000  -0.277538   0.000000   0.000000
    11  H    0.000000   0.000000   0.000000   0.000000   0.748464   0.000000
    12  H    0.000000   0.000000   0.000000   0.000000   0.000000   0.578891
 Mulliken charges and spin densities:
               1          2
     1  C   -0.107052  -0.795580
     2  C   -0.242959   0.403247
     3  C   -0.107047  -0.795570
     4  C   -0.054761   0.327929
     5  C   -0.154154  -0.095694
     6  C   -0.054754   0.327915
     7  Cl  -0.130588  -0.000486
     8  H    0.028979   0.578910
     9  Cl  -0.130585  -0.000487
    10  H    0.094153  -0.277538
    11  H   -0.170215   0.748464
    12  H    0.028982   0.578891
 Sum of Mulliken charges =  -1.00000   1.00000
 Mulliken charges and spin densities with hydrogens summed into heavy atoms:
               1          2
     1  C   -0.078073  -0.216671
     2  C   -0.413173   1.151711
     3  C   -0.078065  -0.216680
     4  C   -0.054761   0.327929
     5  C   -0.060001  -0.373232
     6  C   -0.054754   0.327915
     7  Cl  -0.130588  -0.000486
     9  Cl  -0.130585  -0.000487
 Charge=             -1.0000 electrons
 Dipole moment (field-independent basis, Debye):
    X=              7.1188    Y=              0.0001    Z=              0.0000  Tot=              7.1188
 N-N= 1.971144359954D+02 E-N=-2.793929859128D+02  KE=-9.161695565077D+01
 Symmetry A'   KE=-7.118434391922D+01
 Symmetry A"   KE=-2.043261173156D+01
 Symmetry A'   SP= 1.000000000000D+00
 Symmetry A"   SP=-1.054711873394D-15
 Calling FoFJK, ICntrl=      2127 FMM=F ISym2X=1 I1Cent= 0 IOpClX= 1 NMat=1 NMatS=1 NMatT=0.
 ***** Axes restored to original set *****
 -------------------------------------------------------------------
 Center     Atomic                   Forces (Hartrees/Bohr)
 Number     Number              X              Y              Z
 -------------------------------------------------------------------
      1        6           0.001048040    0.035879547    0.000000000
      2        6           0.000262491   -0.009563603    0.000000000
      3        6          -0.003012517    0.035766569    0.000000000
      4        6           0.013482682   -0.004020903    0.000000000
      5        6           0.001896179   -0.068608627    0.000000000
      6        6          -0.013252137   -0.004752703    0.000000000
      7       17           0.022702112    0.011191450    0.000000000
      8        1           0.070947943   -0.038938462   -0.000000000
      9       17          -0.023283847    0.009928896    0.000000000
     10        1          -0.003032761    0.110375651   -0.000000000
     11        1           0.000947205   -0.034481685   -0.000000000
     12        1          -0.068705391   -0.042776129   -0.000000000
 -------------------------------------------------------------------
 Cartesian Forces:  Max     0.110375651 RMS     0.031419409

 GradGradGradGradGradGradGradGradGradGradGradGradGradGradGradGradGradGrad
 Berny optimization.
 FormGI is forming the generalized inverse of G from B-inverse, IUseBI=4.
 Internal  Forces:  Max     0.110417308 RMS     0.027022142
 Search for a local minimum.
 Step number   1 out of a maximum of   64
 All quantities printed in internal units (Hartrees-Bohrs-Radians)
 Mixed Optimization -- RFO/linear search
 Second derivative matrix not updated -- first step.
 ITU=  0
     Eigenvalues ---    0.02011   0.02011   0.02011   0.02011   0.02011
     Eigenvalues ---    0.02011   0.02011   0.02011   0.02011   0.06524
     Eigenvalues ---    0.06524   0.06524   0.06524   0.16000   0.16000
     Eigenvalues ---    0.16000   0.16000   0.22000   0.23477   0.23492
     Eigenvalues ---    0.25000   0.25000   0.29033   0.29033   0.40781
     Eigenvalues ---    0.40971   0.44656   0.44657   0.44657   0.44657
 RFO step:  Lambda=-1.47740461D-01 EMin= 2.01065826D-02
 Linear search not attempted -- first point.
 Maximum step size (   0.300) exceeded in Quadratic search.
    -- Step size scaled by   0.379
 Iteration  1 RMS(Cart)=  0.04872769 RMS(Int)=  0.00004388
 Iteration  2 RMS(Cart)=  0.00006535 RMS(Int)=  0.00000527
 Iteration  3 RMS(Cart)=  0.00000000 RMS(Int)=  0.00000527
 ClnCor:  largest displacement from symmetrization is 7.11D-11 for atom    11.
 Variable       Old X    -DE/DX   Delta X   Delta X   Delta X     New X
                                 (Linear)    (Quad)   (Total)
    R1        2.65676  -0.06005   0.00000  -0.03885  -0.03884   2.61792
    R2        2.65677  -0.02707   0.00000  -0.01725  -0.01725   2.63951
    R3        3.33635  -0.08093   0.00000  -0.14396  -0.14396   3.19239
    R4        2.65677  -0.06005   0.00000  -0.03885  -0.03884   2.61793
    R5        3.33634  -0.03449   0.00000  -0.06136  -0.06136   3.27498
    R6        2.65677  -0.02707   0.00000  -0.01725  -0.01725   2.63951
    R7        3.33633  -0.08093   0.00000  -0.14396  -0.14396   3.19237
    R8        2.65678  -0.03201   0.00000  -0.01984  -0.01984   2.63693
    R9        3.33633  -0.02520   0.00000  -0.02180  -0.02180   3.31454
   R10        2.65675  -0.03200   0.00000  -0.01983  -0.01984   2.63691
   R11        3.33632  -0.11042   0.00000  -0.19641  -0.19641   3.13992
   R12        3.33633  -0.02520   0.00000  -0.02179  -0.02179   3.31454
    A1        2.09439   0.01265   0.00000   0.01183   0.01183   2.10623
    A2        2.09439  -0.00554   0.00000  -0.00495  -0.00495   2.08944
    A3        2.09440  -0.00711   0.00000  -0.00688  -0.00688   2.08751
    A4        2.09439  -0.00422   0.00000  -0.00650  -0.00648   2.08792
    A5        2.09440   0.00211   0.00000   0.00325   0.00324   2.09764
    A6        2.09439   0.00211   0.00000   0.00325   0.00324   2.09763
    A7        2.09440   0.01266   0.00000   0.01183   0.01183   2.10623
    A8        2.09440  -0.00554   0.00000  -0.00495  -0.00495   2.08944
    A9        2.09439  -0.00711   0.00000  -0.00688  -0.00688   2.08751
   A10        2.09439  -0.01123   0.00000  -0.01009  -0.01010   2.08429
   A11        2.09440   0.00954   0.00000   0.00878   0.00879   2.10319
   A12        2.09440   0.00169   0.00000   0.00131   0.00131   2.09571
   A13        2.09439   0.00138   0.00000   0.00302   0.00301   2.09740
   A14        2.09439  -0.00069   0.00000  -0.00151  -0.00150   2.09289
   A15        2.09440  -0.00069   0.00000  -0.00151  -0.00150   2.09290
   A16        2.09440  -0.01124   0.00000  -0.01009  -0.01010   2.08430
   A17        2.09439   0.00954   0.00000   0.00878   0.00879   2.10318
   A18        2.09439   0.00170   0.00000   0.00131   0.00131   2.09570
    D1        0.00000  -0.00000   0.00000  -0.00000   0.00000   0.00000
    D2        3.14159  -0.00000   0.00000  -0.00000   0.00000   3.14159
    D3        3.14159   0.00000   0.00000   0.00000   0.00000   3.14159
    D4        0.00000  -0.00000   0.00000  -0.00000   0.00000   0.00000
    D5        0.00000  -0.00000   0.00000   0.00000   0.00000   0.00000
    D6        3.14159   0.00000   0.00000   0.00000   0.00000   3.14159
    D7        3.14159  -0.00000   0.00000  -0.00000   0.00000   3.14159
    D8        0.00000  -0.00000   0.00000  -0.00000   0.00000   0.00000
    D9        0.00000   0.00000   0.00000   0.00000   0.00000   0.00000
   D10        3.14159  -0.00000   0.00000  -0.00000   0.00000   3.14159
   D11        3.14159   0.00000   0.00000   0.00000   0.00000   3.14159
   D12        0.00000   0.00000   0.00000  -0.00000   0.00000   0.00000
   D13        0.00000   0.00000   0.00000   0.00000   0.00000   0.00000
   D14        3.14159  -0.00000   0.00000   0.00000   0.00000   3.14159
   D15        3.14159   0.00000   0.00000   0.00000   0.00000   3.14159
   D16        0.00000   0.00000   0.00000   0.00000   0.00000   0.00000
   D17        0.00000  -0.00000   0.00000  -0.00000   0.00000   0.00000
   D18        3.14159  -0.00000   0.00000  -0.00000   0.00000   3.14159
   D19        3.14159  -0.00000   0.00000  -0.00000   0.00000   3.14159
   D20        0.00000  -0.00000   0.00000  -0.00000   0.00000   0.00000
   D21        0.00000   0.00000   0.00000   0.00000   0.00000   0.00000
   D22        3.14159   0.00000   0.00000   0.00000   0.00000   3.14159
   D23        3.14159   0.00000   0.00000   0.00000   0.00000   3.14159
   D24        0.00000   0.00000   0.00000   0.00000   0.00000   0.00000
         Item               Value     Threshold  Converged?
 Maximum Force            0.110417     0.000450     NO 
 RMS     Force            0.027022     0.000300     NO 
 Maximum Displacement     0.216373     0.001800     NO 
 RMS     Displacement     0.048729     0.001200     NO 
 Predicted change in Energy=-5.201672D-02
 GradGradGradGradGradGradGradGradGradGradGradGradGradGradGradGradGradGrad

                          Input orientation:                          
 ---------------------------------------------------------------------
 Center     Atomic      Atomic             Coordinates (Angstroms)
 Number     Number       Type             X           Y           Z
 ---------------------------------------------------------------------
      1          6           0       -3.189083    0.194343    0.000000
      2          6           0       -2.011169    0.923521    0.000000
      3          6           0       -0.794997    0.260111    0.000000
      4          6           0       -0.744640   -1.135751    0.000000
      5          6           0       -1.934579   -1.864585    0.000000
      6          6           0       -3.162726   -1.202179    0.000000
      7         17           0       -4.656884   -2.120836    0.000000
      8          1           0       -4.673361    1.001062    0.000000
      9         17           0        0.797697   -1.970995    0.000000
     10          1           0       -1.888943   -3.525530    0.000000
     11          1           0       -2.058757    2.655914    0.000000
     12          1           0        0.642744    1.147096    0.000000
 ---------------------------------------------------------------------
                    Distance matrix (angstroms):
                    1          2          3          4          5
     1  C    0.000000
     2  C    1.385345   0.000000
     3  C    2.394989   1.385347   0.000000
     4  C    2.782886   2.417581   1.396770   0.000000
     5  C    2.411009   2.789158   2.411012   1.395405   0.000000
     6  C    1.396770   2.417577   2.782881   2.418998   1.395395
     7  Cl   2.741258   4.033351   4.536858   4.034359   2.734339
     8  H    1.689342   2.663321   3.948508   4.472228   3.963945
     9  Cl   4.536861   4.033356   2.741261   1.753978   2.734348
    10  H    3.940536   4.450730   3.940533   2.649618   1.661572
    11  H    2.708684   1.733046   2.708682   4.012932   4.522204
    12  H    3.948498   2.663314   1.689331   2.671370   3.963939
                    6          7          8          9         10
     6  C    0.000000
     7  Cl   1.753979   0.000000
     8  H    2.671383   3.121942   0.000000
     9  Cl   4.034357   5.456640   6.226203   0.000000
    10  H    2.649620   3.103976   5.314417   3.103968   0.000000
    11  H    4.012932   5.437610   3.094299   5.437612   6.183776
    12  H    4.472213   6.226189   5.318110   3.121939   5.314402
                   11         12
    11  H    0.000000
    12  H    3.094291   0.000000
 Stoichiometry    C6H4Cl2(1-,2)
 Framework group  CS[SG(C6H4Cl2)]
 Deg. of freedom    21
 Full point group                 CS      NOp   2
 Largest Abelian subgroup         CS      NOp   2
 Largest concise Abelian subgroup C1      NOp   1
                         Standard orientation:                         
 ---------------------------------------------------------------------
 Center     Atomic      Atomic             Coordinates (Angstroms)
 Number     Number       Type             X           Y           Z
 ---------------------------------------------------------------------
      1          6           0       -1.197503    1.379495   -0.000000
      2          6           0       -0.000014    2.076058   -0.000000
      3          6           0        1.197486    1.379508   -0.000000
      4          6           0        1.209501   -0.017209    0.000000
      5          6           0        0.000000   -0.713099    0.000000
      6          6           0       -1.209497   -0.017224    0.000000
      7         17           0       -2.728314   -0.894513    0.000000
      8          1           0       -2.659073    2.226661   -0.000000
      9         17           0        2.728326   -0.894484    0.000000
     10          1           0        0.000018   -2.374672    0.000000
     11          1           0       -0.000020    3.809105   -0.000000
     12          1           0        2.659037    2.226686   -0.000000
 ---------------------------------------------------------------------
 Rotational constants (GHZ):           2.6687693           0.8362020           0.6367043
 Standard basis: VSTO-6G (5D, 7F)
 There are    28 symmetry adapted cartesian basis functions of A'  symmetry.
 There are     8 symmetry adapted cartesian basis functions of A"  symmetry.
 There are    28 symmetry adapted basis functions of A'  symmetry.
 There are     8 symmetry adapted basis functions of A"  symmetry.
    36 basis functions,   216 primitive gaussians,    36 cartesian basis functions
    22 alpha electrons       21 beta electrons
       nuclear repulsion energy       198.4251647703 Hartrees.
 Integral buffers will be    131072 words long.
 Regular integral format.
 Two-electron integral symmetry is turned off.
 Do NDO integrals.
 One-electron integrals computed using PRISM.
 NBasis=    36 RedAO= T EigKep=  1.00D+00  NBF=    28     8
 NBsUse=    36 1.00D-06 EigRej= -1.00D+00 NBFU=    28     8
 Initial guess from the checkpoint file:  "geometry_chks/13ClBzAnionRadical.chk"
 B after Tr=    -0.000000    0.000000   -0.000000
         Rot=    0.707109   -0.000000    0.000000    0.707105 Ang=  90.00 deg.
 Initial guess orbital symmetries:
 Alpha Orbitals:
       Occupied  (A') (A') (A') (A') (A') (A') (A') (A') (A') (A")
                 (A') (A") (A') (A') (A') (A") (A') (A') (A') (A")
                 (A") (A')
       Virtual   (A') (A') (A') (A") (A") (A') (A') (A") (A') (A')
                 (A') (A') (A') (A')
 Beta  Orbitals:
       Occupied  (A') (A') (A') (A') (A') (A') (A') (A') (A') (A')
                 (A") (A") (A') (A') (A') (A") (A') (A') (A") (A")
                 (A')
       Virtual   (A') (A") (A') (A") (A') (A') (A') (A") (A') (A')
                 (A') (A') (A') (A') (A')
 Initial guess <Sx>= 0.0000 <Sy>= 0.0000 <Sz>= 0.5000 <S**2>= 1.7376 S= 0.9098
 Keep J ints in memory in canonical form, NReq=862905.
 Overlap will be assumed to be unity.
 Requested convergence on RMS density matrix=1.00D-08 within  32 cycles.
 Requested convergence on MAX density matrix=1.00D-06.
 Requested convergence on             energy=1.00D-06.
 No special actions if energy rises.
 Fock symm off for IB=2 I1=    1 I=   29 J=   18 Cut=1.00D-07 Err=5.69D-03
 Fock matrix is not symmetric: symmetry in diagonalization turned off.
 SCF Done:  E(UAM1) =  0.405204905379     A.U. after   26 cycles
            NFock= 25  Conv=0.95D-08     -V/T= 1.0044
 <Sx>= 0.0000 <Sy>= 0.0000 <Sz>= 0.5000 <S**2>= 1.2559 S= 0.7271
 <L.S>=  0.00000000000    
 Annihilation of the first spin contaminant:
 S**2 before annihilation     1.2559,   after     1.0527
 QCSCF skips out because SCF is already converged.
 Calling FoFJK, ICntrl=      2127 FMM=F ISym2X=1 I1Cent= 0 IOpClX= 1 NMat=1 NMatS=1 NMatT=0.
 ***** Axes restored to original set *****
 -------------------------------------------------------------------
 Center     Atomic                   Forces (Hartrees/Bohr)
 Number     Number              X              Y              Z
 -------------------------------------------------------------------
      1        6          -0.054943142    0.045527643    0.000000000
      2        6          -0.000562167    0.020471580    0.000000000
      3        6           0.052364251    0.048476084   -0.000000000
      4        6           0.019304132   -0.005620574    0.000000000
      5        6           0.002794106   -0.101385768    0.000000000
      6        6          -0.018975121   -0.006669528   -0.000000000
      7       17           0.016968363    0.007921475   -0.000000000
      8        1           0.093035489   -0.051146552   -0.000000000
      9       17          -0.017378493    0.006978353    0.000000000
     10        1          -0.003326191    0.121050536   -0.000000000
     11        1           0.000808282   -0.029424848   -0.000000000
     12        1          -0.090089509   -0.056178400   -0.000000000
 -------------------------------------------------------------------
 Cartesian Forces:  Max     0.121050536 RMS     0.040985899

 GradGradGradGradGradGradGradGradGradGradGradGradGradGradGradGradGradGrad
 Berny optimization.
 Using GEDIIS/GDIIS optimizer.
 FormGI is forming the generalized inverse of G from B-inverse, IUseBI=4.
 Internal  Forces:  Max     0.121096225 RMS     0.027626245
 Search for a local minimum.
 Step number   2 out of a maximum of   64
 All quantities printed in internal units (Hartrees-Bohrs-Radians)
 Mixed Optimization -- RFO/linear search
 Update second derivatives using D2CorX and points    1    2
 DE= -5.95D-02 DEPred=-5.20D-02 R= 1.14D+00
 TightC=F SS=  1.41D+00  RLast= 3.00D-01 DXNew= 5.0454D-01 9.0000D-01
 Trust test= 1.14D+00 RLast= 3.00D-01 DXMaxT set to 5.05D-01
 ITU=  1  0
 Use linear search instead of GDIIS.
     Eigenvalues ---   -0.86528   0.01255   0.02011   0.02011   0.02011
     Eigenvalues ---    0.02011   0.02011   0.02011   0.02011   0.02011
     Eigenvalues ---    0.02011   0.06524   0.06524   0.09695   0.16000
     Eigenvalues ---    0.16000   0.16000   0.16000   0.21995   0.23462
     Eigenvalues ---    0.23773   0.25000   0.25007   0.29033   0.29640
     Eigenvalues ---    0.40900   0.41089   0.44656   0.44657   0.44657
 RFO step:  Lambda=-8.70099427D-01 EMin=-8.65284199D-01
 I=     1 Eig=   -8.65D-01 Dot1= -3.79D-02
 I=     1 Stepn= -6.00D-01 RXN=   6.00D-01 EDone=F
 Mixed    1 eigenvectors in step.  Raw Step.Grad=  3.79D-02.
 RFO eigenvector is Hessian eigenvector with negative curvature.
 Taking step of  6.00D-01 in eigenvector direction(s).  Step.Grad= -4.65D-03.
 Skip linear search -- no minimum in search direction.
 Maximum step size (   0.505) exceeded in Quadratic search.
    -- Step size not scaled.
 Iteration  1 RMS(Cart)=  0.07317149 RMS(Int)=  0.01525325
 Iteration  2 RMS(Cart)=  0.01607136 RMS(Int)=  0.00038417
 Iteration  3 RMS(Cart)=  0.00011112 RMS(Int)=  0.00037471
 Iteration  4 RMS(Cart)=  0.00000002 RMS(Int)=  0.00037471
 ClnCor:  largest displacement from symmetrization is 1.61D-08 for atom    11.
 Variable       Old X    -DE/DX   Delta X   Delta X   Delta X     New X
                                 (Linear)    (Quad)   (Total)
    R1        2.61792  -0.02525   0.00000   0.26799   0.26854   2.88646
    R2        2.63951  -0.01104   0.00000   0.12254   0.12252   2.76204
    R3        3.19239  -0.10617   0.00000  -0.24465  -0.24465   2.94774
    R4        2.61793  -0.02525   0.00000   0.26798   0.26853   2.88646
    R5        3.27498  -0.02944   0.00000   0.05654   0.05654   3.33152
    R6        2.63951  -0.01104   0.00000   0.12255   0.12254   2.76205
    R7        3.19237  -0.10617   0.00000  -0.24465  -0.24465   2.94772
    R8        2.63693  -0.01301   0.00000   0.14370   0.14315   2.78008
    R9        3.31454  -0.01860   0.00000   0.06052   0.06052   3.37505
   R10        2.63691  -0.01300   0.00000   0.14368   0.14312   2.78004
   R11        3.13992  -0.12110   0.00000  -0.09226  -0.09226   3.04766
   R12        3.31454  -0.01860   0.00000   0.06051   0.06051   3.37505
    A1        2.10623   0.00992   0.00000  -0.02490  -0.02432   2.08191
    A2        2.08944  -0.00414   0.00000   0.01255   0.01226   2.10170
    A3        2.08751  -0.00577   0.00000   0.01235   0.01206   2.09958
    A4        2.08792  -0.00722   0.00000  -0.02118  -0.01997   2.06794
    A5        2.09764   0.00361   0.00000   0.01059   0.00999   2.10762
    A6        2.09763   0.00361   0.00000   0.01059   0.00999   2.10762
    A7        2.10623   0.00992   0.00000  -0.02491  -0.02433   2.08191
    A8        2.08944  -0.00414   0.00000   0.01255   0.01226   2.10171
    A9        2.08751  -0.00577   0.00000   0.01236   0.01206   2.09958
   A10        2.08429  -0.00726   0.00000   0.03509   0.03450   2.11879
   A11        2.10319   0.00717   0.00000  -0.02175  -0.02145   2.08173
   A12        2.09571   0.00008   0.00000  -0.01334  -0.01305   2.08266
   A13        2.09740   0.00190   0.00000   0.00080  -0.00038   2.09702
   A14        2.09289  -0.00095   0.00000  -0.00040   0.00019   2.09308
   A15        2.09290  -0.00095   0.00000  -0.00040   0.00019   2.09309
   A16        2.08430  -0.00726   0.00000   0.03510   0.03450   2.11880
   A17        2.10318   0.00717   0.00000  -0.02175  -0.02145   2.08173
   A18        2.09570   0.00008   0.00000  -0.01335  -0.01305   2.08265
    D1        0.00000  -0.00000   0.00000  -0.00000   0.00000   0.00000
    D2        3.14159  -0.00000   0.00000  -0.00000   0.00000   3.14159
    D3        3.14159   0.00000   0.00000   0.00000   0.00000   3.14159
    D4       -0.00000   0.00000   0.00000   0.00000   0.00000   0.00000
    D5       -0.00000   0.00000   0.00000   0.00000   0.00000   0.00000
    D6        3.14159   0.00000   0.00000   0.00000   0.00000   3.14159
    D7        3.14159  -0.00000   0.00000  -0.00000   0.00000   3.14159
    D8        0.00000  -0.00000   0.00000  -0.00000   0.00000   0.00000
    D9        0.00000  -0.00000   0.00000  -0.00000  -0.00000   0.00000
   D10        3.14159  -0.00000   0.00000   0.00000   0.00000   3.14159
   D11        3.14159   0.00000   0.00000  -0.00000   0.00000   3.14159
   D12       -0.00000   0.00000   0.00000   0.00000   0.00000   0.00000
   D13       -0.00000   0.00000   0.00000   0.00000   0.00000   0.00000
   D14        3.14159   0.00000   0.00000   0.00000   0.00000   3.14159
   D15        3.14159   0.00000   0.00000   0.00000   0.00000   3.14159
   D16        0.00000   0.00000   0.00000  -0.00000  -0.00000   0.00000
   D17       -0.00000  -0.00000   0.00000   0.00000   0.00000   0.00000
   D18        3.14159  -0.00000   0.00000   0.00000   0.00000   3.14159
   D19        3.14159   0.00000   0.00000   0.00000   0.00000   3.14159
   D20       -0.00000  -0.00000   0.00000   0.00000   0.00000   0.00000
   D21        0.00000  -0.00000   0.00000  -0.00000   0.00000   0.00000
   D22        3.14159  -0.00000   0.00000  -0.00000   0.00000   3.14159
   D23        3.14159   0.00000   0.00000  -0.00000   0.00000   3.14159
   D24       -0.00000  -0.00000   0.00000  -0.00000   0.00000   0.00000
         Item               Value     Threshold  Converged?
 Maximum Force            0.121096     0.000450     NO 
 RMS     Force            0.027626     0.000300     NO 
 Maximum Displacement     0.291327     0.001800     NO 
 RMS     Displacement     0.085455     0.001200     NO 
 Predicted change in Energy=-1.936085D-01
 GradGradGradGradGradGradGradGradGradGradGradGradGradGradGradGradGradGrad

                          Input orientation:                          
 ---------------------------------------------------------------------
 Center     Atomic      Atomic             Coordinates (Angstroms)
 Number     Number       Type             X           Y           Z
 ---------------------------------------------------------------------
      1          6           0       -3.305226    0.230871    0.000000
      2          6           0       -2.014581    1.047776    0.000000
      3          6           0       -0.681031    0.302967   -0.000000
      4          6           0       -0.678472   -1.158643   -0.000000
      5          6           0       -1.932863   -1.927282    0.000000
      6          6           0       -3.227533   -1.228670    0.000000
      7         17           0       -4.736817   -2.183582    0.000000
      8          1           0       -4.691987    0.945094    0.000000
      9         17           0        0.880961   -2.029260   -0.000000
     10          1           0       -1.888572   -3.539424   -0.000000
     11          1           0       -2.062994    2.810077    0.000000
     12          1           0        0.664417    1.092245   -0.000000
 ---------------------------------------------------------------------
                    Distance matrix (angstroms):
                    1          2          3          4          5
     1  C    0.000000
     2  C    1.527448   0.000000
     3  C    2.625185   1.527448   0.000000
     4  C    2.971630   2.579433   1.461612   0.000000
     5  C    2.557538   2.976180   2.557556   1.471157   0.000000
     6  C    1.461608   2.579430   2.971630   2.550023   1.471132
     7  Cl   2.806962   4.225192   4.757345   4.185770   2.815644
     8  H    1.559879   2.679374   4.062031   4.531448   3.982877
     9  Cl   4.757347   4.225200   2.806973   1.786002   2.815671
    10  H    4.027658   4.588930   4.027670   2.670666   1.612751
    11  H    2.862769   1.762966   2.862765   4.203290   4.739146
    12  H    4.062023   2.679367   1.559868   2.621039   3.982888
                    6          7          8          9         10
     6  C    0.000000
     7  Cl   1.786000   0.000000
     8  H    2.621045   3.128997   0.000000
     9  Cl   4.185770   5.619897   6.317004   0.000000
    10  H    2.670655   3.154490   5.288671   3.154506   0.000000
    11  H    4.203288   5.664447   3.223316   5.664455   6.351896
    12  H    4.531437   6.316990   5.358425   3.129007   5.288677
                   11         12
    11  H    0.000000
    12  H    3.223309   0.000000
 Stoichiometry    C6H4Cl2(1-,2)
 Framework group  CS[SG(C6H4Cl2)]
 Deg. of freedom    21
 Full point group                 CS      NOp   2
 Largest Abelian subgroup         CS      NOp   2
 Largest concise Abelian subgroup C1      NOp   1
                         Standard orientation:                         
 ---------------------------------------------------------------------
 Center     Atomic      Atomic             Coordinates (Angstroms)
 Number     Number       Type             X           Y           Z
 ---------------------------------------------------------------------
      1          6           0       -1.312614    1.439171   -0.000000
      2          6           0       -0.000035    2.220346   -0.000000
      3          6           0        1.312571    1.439217    0.000000
      4          6           0        1.275014   -0.021913    0.000000
      5          6           0        0.000000   -0.755834    0.000000
      6          6           0       -1.275009   -0.021953   -0.000000
      7         17           0       -2.809932   -0.935081   -0.000000
      8          1           0       -2.679251    2.191186   -0.000000
      9         17           0        2.809965   -0.935001    0.000000
     10          1           0        0.000028   -2.368584    0.000000
     11          1           0       -0.000063    3.983312   -0.000000
     12          1           0        2.679174    2.191271    0.000000
 ---------------------------------------------------------------------
 Rotational constants (GHZ):           2.4321161           0.7810522           0.5911952
 Standard basis: VSTO-6G (5D, 7F)
 There are    28 symmetry adapted cartesian basis functions of A'  symmetry.
 There are     8 symmetry adapted cartesian basis functions of A"  symmetry.
 There are    28 symmetry adapted basis functions of A'  symmetry.
 There are     8 symmetry adapted basis functions of A"  symmetry.
    36 basis functions,   216 primitive gaussians,    36 cartesian basis functions
    22 alpha electrons       21 beta electrons
       nuclear repulsion energy       193.7561688416 Hartrees.
 Integral buffers will be    131072 words long.
 Regular integral format.
 Two-electron integral symmetry is turned off.
 Do NDO integrals.
 One-electron integrals computed using PRISM.
 NBasis=    36 RedAO= T EigKep=  1.00D+00  NBF=    28     8
 NBsUse=    36 1.00D-06 EigRej= -1.00D+00 NBFU=    28     8
 Initial guess from the checkpoint file:  "geometry_chks/13ClBzAnionRadical.chk"
 B after Tr=     0.000000   -0.000000   -0.000000
         Rot=    1.000000   -0.000000   -0.000000   -0.000005 Ang=  -0.00 deg.
 Initial guess orbital symmetries:
 Alpha Orbitals:
       Occupied  (A') (A') (A') (A') (A') (A') (A') (A') (A') (A")
                 (A') (A") (A') (A') (A') (A") (A') (A') (A') (A")
                 (A") (A')
       Virtual   (A') (A') (A') (A") (A") (A') (A') (A") (A') (A')
                 (A') (A') (A') (A')
 Beta  Orbitals:
       Occupied  (A') (A') (A') (A') (A') (A') (A') (A') (A') (A')
                 (A") (A') (A") (A') (A') (A") (A') (A') (A") (A")
                 (A')
       Virtual   (A') (A") (A') (A") (A') (A') (A') (A") (A') (A')
                 (A') (A') (A') (A') (A')
 Initial guess <Sx>= 0.0000 <Sy>= 0.0000 <Sz>= 0.5000 <S**2>= 1.2559 S= 0.7271
 Keep J ints in memory in canonical form, NReq=862905.
 Overlap will be assumed to be unity.
 Requested convergence on RMS density matrix=1.00D-08 within  32 cycles.
 Requested convergence on MAX density matrix=1.00D-06.
 Requested convergence on             energy=1.00D-06.
 No special actions if energy rises.
 Fock symm off for IB=2 I1=    1 I=   29 J=   18 Cut=1.00D-07 Err=1.13D-02
 Fock matrix is not symmetric: symmetry in diagonalization turned off.
 SCF Done:  E(UAM1) =  0.413217449991     A.U. after   24 cycles
            NFock= 23  Conv=0.48D-08     -V/T= 1.0045
 <Sx>= 0.0000 <Sy>= 0.0000 <Sz>= 0.5000 <S**2>= 1.5408 S= 0.8382
 <L.S>=  0.00000000000    
 Annihilation of the first spin contaminant:
 S**2 before annihilation     1.5408,   after     1.3993
 QCSCF skips out because SCF is already converged.
 Calling FoFJK, ICntrl=      2127 FMM=F ISym2X=1 I1Cent= 0 IOpClX= 1 NMat=1 NMatS=1 NMatT=0.
 ***** Axes restored to original set *****
 -------------------------------------------------------------------
 Center     Atomic                   Forces (Hartrees/Bohr)
 Number     Number              X              Y              Z
 -------------------------------------------------------------------
      1        6           0.015355117    0.018290440    0.000000000
      2        6           0.001746374   -0.063586053    0.000000000
      3        6          -0.016335186    0.017413102    0.000000000
      4        6          -0.037766322    0.023999657    0.000000000
      5        6           0.000768641   -0.027507201    0.000000000
      6        6           0.036381439    0.026037327   -0.000000000
      7       17           0.032566598    0.016782985   -0.000000000
      8        1           0.111521853   -0.057309892   -0.000000000
      9       17          -0.033441824    0.014970999   -0.000000000
     10        1          -0.003353908    0.122079394   -0.000000000
     11        1           0.000764364   -0.027824476   -0.000000000
     12        1          -0.108207146   -0.063346281   -0.000000000
 -------------------------------------------------------------------
 Cartesian Forces:  Max     0.122079394 RMS     0.040744772

 GradGradGradGradGradGradGradGradGradGradGradGradGradGradGradGradGradGrad
 Berny optimization.
 Using GEDIIS/GDIIS optimizer.
 FormGI is forming the generalized inverse of G from B-inverse, IUseBI=4.
 Internal  Forces:  Max     0.125385544 RMS     0.045932972
 Search for a local minimum.
 Step number   3 out of a maximum of   64
 All quantities printed in internal units (Hartrees-Bohrs-Radians)
 Mixed Optimization -- RFO/linear search
 Update second derivatives using D2CorX and points    1    3    2
 ITU=  0  1  0
 Use linear search instead of GDIIS.
     Eigenvalues ---    0.00886   0.02011   0.02011   0.02011   0.02011
     Eigenvalues ---    0.02011   0.02011   0.02011   0.02011   0.02011
     Eigenvalues ---    0.06409   0.06524   0.06671   0.15995   0.16000
     Eigenvalues ---    0.16000   0.16000   0.21975   0.22382   0.23523
     Eigenvalues ---    0.24987   0.25000   0.28496   0.29033   0.35317
     Eigenvalues ---    0.41301   0.43988   0.44657   0.44657   0.65838
 RFO step:  Lambda=-1.98086974D-01 EMin= 8.85608700D-03
 Quartic linear search produced a step of -0.60928.
 Maximum step size (   0.505) exceeded in Quadratic search.
    -- Step size scaled by   0.550
 Iteration  1 RMS(Cart)=  0.09624965 RMS(Int)=  0.01001018
 Iteration  2 RMS(Cart)=  0.00961840 RMS(Int)=  0.00006390
 Iteration  3 RMS(Cart)=  0.00000021 RMS(Int)=  0.00006390
 ClnCor:  largest displacement from symmetrization is 1.43D-09 for atom    10.
 Variable       Old X    -DE/DX   Delta X   Delta X   Delta X     New X
                                 (Linear)    (Quad)   (Total)
    R1        2.88646  -0.11779  -0.16361  -0.03564  -0.19935   2.68711
    R2        2.76204  -0.08859  -0.07465  -0.01225  -0.08691   2.67513
    R3        2.94774  -0.12539   0.14906  -0.25202  -0.10296   2.84479
    R4        2.88646  -0.11779  -0.16361  -0.03564  -0.19934   2.68711
    R5        3.33152  -0.02783  -0.03445  -0.09667  -0.13112   3.20040
    R6        2.76205  -0.08860  -0.07466  -0.01225  -0.08691   2.67513
    R7        2.94772  -0.12539   0.14906  -0.25203  -0.10297   2.84476
    R8        2.78008  -0.09814  -0.08722  -0.01385  -0.10097   2.67912
    R9        3.37505  -0.03650  -0.03687  -0.03945  -0.07632   3.29874
   R10        2.78004  -0.09813  -0.08720  -0.01383  -0.10094   2.67910
   R11        3.04766  -0.12213   0.05621  -0.32967  -0.27346   2.77420
   R12        3.37505  -0.03649  -0.03687  -0.03944  -0.07631   3.29874
    A1        2.08191   0.01616   0.01482   0.02198   0.03670   2.11861
    A2        2.10170  -0.00825  -0.00747  -0.00882  -0.01624   2.08546
    A3        2.09958  -0.00791  -0.00735  -0.01316  -0.02046   2.07912
    A4        2.06794  -0.01624   0.01217  -0.01735  -0.00538   2.06256
    A5        2.10762   0.00812  -0.00608   0.00867   0.00269   2.11031
    A6        2.10762   0.00812  -0.00608   0.00867   0.00269   2.11031
    A7        2.08191   0.01616   0.01482   0.02198   0.03670   2.11861
    A8        2.10171  -0.00825  -0.00747  -0.00882  -0.01624   2.08546
    A9        2.09958  -0.00791  -0.00735  -0.01316  -0.02046   2.07911
   A10        2.11879  -0.00540  -0.02102  -0.01736  -0.03828   2.08051
   A11        2.08173   0.00815   0.01307   0.01647   0.02949   2.11123
   A12        2.08266  -0.00275   0.00795   0.00089   0.00879   2.09145
   A13        2.09702  -0.00529   0.00023   0.00811   0.00855   2.10556
   A14        2.09308   0.00265  -0.00012  -0.00406  -0.00427   2.08880
   A15        2.09309   0.00265  -0.00012  -0.00406  -0.00427   2.08882
   A16        2.11880  -0.00540  -0.02102  -0.01737  -0.03829   2.08052
   A17        2.08173   0.00815   0.01307   0.01647   0.02949   2.11122
   A18        2.08265  -0.00275   0.00795   0.00089   0.00879   2.09145
    D1       -0.00000  -0.00000   0.00000  -0.00000   0.00000   0.00000
    D2        3.14159  -0.00000   0.00000  -0.00000   0.00000   3.14159
    D3        3.14159   0.00000   0.00000   0.00000   0.00000   3.14159
    D4        0.00000  -0.00000   0.00000  -0.00000  -0.00000   0.00000
    D5        0.00000   0.00000   0.00000   0.00000   0.00000   0.00000
    D6        3.14159   0.00000   0.00000   0.00000   0.00000   3.14159
    D7        3.14159  -0.00000   0.00000  -0.00000   0.00000   3.14159
    D8       -0.00000  -0.00000   0.00000  -0.00000   0.00000   0.00000
    D9        0.00000   0.00000   0.00000   0.00000  -0.00000   0.00000
   D10        3.14159  -0.00000   0.00000  -0.00000   0.00000   3.14159
   D11        3.14159   0.00000   0.00000   0.00000   0.00000   3.14159
   D12        0.00000   0.00000   0.00000   0.00000   0.00000   0.00000
   D13        0.00000   0.00000   0.00000   0.00000   0.00000   0.00000
   D14        3.14159  -0.00000   0.00000   0.00000   0.00000   3.14159
   D15        3.14159   0.00000   0.00000   0.00000   0.00000   3.14159
   D16       -0.00000   0.00000   0.00000   0.00000   0.00000   0.00000
   D17        0.00000  -0.00000   0.00000  -0.00000   0.00000   0.00000
   D18        3.14159  -0.00000   0.00000  -0.00000   0.00000   3.14159
   D19        3.14159   0.00000   0.00000  -0.00000   0.00000   3.14159
   D20       -0.00000  -0.00000   0.00000  -0.00000   0.00000   0.00000
   D21       -0.00000  -0.00000   0.00000   0.00000   0.00000   0.00000
   D22        3.14159  -0.00000   0.00000  -0.00000   0.00000   3.14159
   D23        3.14159   0.00000   0.00000   0.00000   0.00000   3.14159
   D24       -0.00000   0.00000   0.00000   0.00000   0.00000   0.00000
         Item               Value     Threshold  Converged?
 Maximum Force            0.125386     0.000450     NO 
 RMS     Force            0.045933     0.000300     NO 
 Maximum Displacement     0.364733     0.001800     NO 
 RMS     Displacement     0.100969     0.001200     NO 
 Predicted change in Energy=-1.108151D-01
 GradGradGradGradGradGradGradGradGradGradGradGradGradGradGradGradGradGrad

                          Input orientation:                          
 ---------------------------------------------------------------------
 Center     Atomic      Atomic             Coordinates (Angstroms)
 Number     Number       Type             X           Y           Z
 ---------------------------------------------------------------------
      1          6           0       -3.211851    0.204337    0.000000
      2          6           0       -2.012392    0.968054    0.000000
      3          6           0       -0.772811    0.271342   -0.000000
      4          6           0       -0.722198   -1.143373   -0.000000
      5          6           0       -1.934184   -1.878926   -0.000000
      6          6           0       -3.184716   -1.211022    0.000000
      7         17           0       -4.664075   -2.137670    0.000000
      8          1           0       -4.540714    0.911685    0.000000
      9         17           0        0.805801   -1.987409   -0.000000
     10          1           0       -1.893864   -3.346415   -0.000000
     11          1           0       -2.058896    2.660996    0.000000
     12          1           0        0.515201    1.050571   -0.000000
 ---------------------------------------------------------------------
                    Distance matrix (angstroms):
                    1          2          3          4          5
     1  C    0.000000
     2  C    1.421959   0.000000
     3  C    2.439961   1.421960   0.000000
     4  C    2.831024   2.474413   1.415620   0.000000
     5  C    2.443853   2.848054   2.443858   1.417727   0.000000
     6  C    1.415619   2.474412   2.831022   2.463446   1.417718
     7  Cl   2.755712   4.083741   4.576600   4.065343   2.742125
     8  H    1.505396   2.528950   3.821928   4.336395   3.818574
     9  Cl   4.576601   4.083744   2.755715   1.745617   2.742132
    10  H    3.787470   4.316097   3.787470   2.495235   1.468043
    11  H    2.713757   1.693581   2.713754   4.032367   4.541634
    12  H    3.821914   2.528939   1.505381   2.518838   3.818565
                    6          7          8          9         10
     6  C    0.000000
     7  Cl   1.745617   0.000000
     8  H    2.518852   3.051849   0.000000
     9  Cl   4.065341   5.471939   6.081937   0.000000
    10  H    2.495236   3.022438   5.013705   3.022431   0.000000
    11  H    4.032367   5.460233   3.036363   5.460234   6.009677
    12  H    4.336379   6.081922   5.057822   3.051847   5.013689
                   11         12
    11  H    0.000000
    12  H    3.036354   0.000000
 Stoichiometry    C6H4Cl2(1-,2)
 Framework group  CS[SG(C6H4Cl2)]
 Deg. of freedom    21
 Full point group                 CS      NOp   2
 Largest Abelian subgroup         CS      NOp   2
 Largest concise Abelian subgroup C1      NOp   1
                         Standard orientation:                         
 ---------------------------------------------------------------------
 Center     Atomic      Atomic             Coordinates (Angstroms)
 Number     Number       Type             X           Y           Z
 ---------------------------------------------------------------------
      1          6           0       -1.219986    1.394941   -0.000000
      2          6           0       -0.000010    2.125437   -0.000000
      3          6           0        1.219975    1.394953    0.000000
      4          6           0        1.231725   -0.020618    0.000000
      5          6           0        0.000000   -0.722617    0.000000
      6          6           0       -1.231722   -0.020629   -0.000000
      7         17           0       -2.735965   -0.906310   -0.000000
      8          1           0       -2.528926    2.138508   -0.000000
      9         17           0        2.735974   -0.906289    0.000000
     10          1           0        0.000013   -2.190660    0.000000
     11          1           0       -0.000015    3.819017   -0.000000
     12          1           0        2.528895    2.138524    0.000000
 ---------------------------------------------------------------------
 Rotational constants (GHZ):           2.6186959           0.8304732           0.6305161
 Standard basis: VSTO-6G (5D, 7F)
 There are    28 symmetry adapted cartesian basis functions of A'  symmetry.
 There are     8 symmetry adapted cartesian basis functions of A"  symmetry.
 There are    28 symmetry adapted basis functions of A'  symmetry.
 There are     8 symmetry adapted basis functions of A"  symmetry.
    36 basis functions,   216 primitive gaussians,    36 cartesian basis functions
    22 alpha electrons       21 beta electrons
       nuclear repulsion energy       198.2236994075 Hartrees.
 Integral buffers will be    131072 words long.
 Regular integral format.
 Two-electron integral symmetry is turned off.
 Do NDO integrals.
 One-electron integrals computed using PRISM.
 NBasis=    36 RedAO= T EigKep=  1.00D+00  NBF=    28     8
 NBsUse=    36 1.00D-06 EigRej= -1.00D+00 NBFU=    28     8
 Lowest energy guess from the checkpoint file:  "geometry_chks/13ClBzAnionRadical.chk"
 B after Tr=     0.000000   -0.000000    0.000000
         Rot=    1.000000    0.000000    0.000000    0.000001 Ang=   0.00 deg.
 B after Tr=    -0.000000    0.000000    0.000000
         Rot=    1.000000   -0.000000   -0.000000    0.000005 Ang=   0.00 deg.
 Initial guess orbital symmetries:
 Alpha Orbitals:
       Occupied  (A') (A') (A") (A") (A') (A") (A') (A') (A') (A')
                 (A') (A') (A') (A') (A") (A") (A") (A") (A") (A")
                 (A") (A")
       Virtual   (A') (A') (A") (A") (A') (A") (A') (A') (A') (A')
                 (A') (A') (A') (A')
 Beta  Orbitals:
       Occupied  (A") (A') (A") (A') (A') (A") (A') (A') (A') (A')
                 (A') (A') (A') (A') (A') (A") (A") (A") (A") (A")
                 (A")
       Virtual   (A") (A') (A") (A') (A') (A") (A') (A') (A') (A')
                 (A') (A') (A') (A') (A')
 Initial guess <Sx>= 0.0000 <Sy>= 0.0000 <Sz>= 0.5000 <S**2>= 1.3200 S= 0.7530
 Keep J ints in memory in canonical form, NReq=862905.
 Overlap will be assumed to be unity.
 Requested convergence on RMS density matrix=1.00D-08 within  32 cycles.
 Requested convergence on MAX density matrix=1.00D-06.
 Requested convergence on             energy=1.00D-06.
 No special actions if energy rises.
 An orbital has undefined symmetry, so N**3 symmetry is turned off.
 SCF Done:  E(UAM1) =  0.283774056307     A.U. after   21 cycles
            NFock= 20  Conv=0.70D-08     -V/T= 1.0031
 <Sx>= 0.0000 <Sy>= 0.0000 <Sz>= 0.5000 <S**2>= 1.0015 S= 0.6187
 <L.S>=  0.00000000000    
 Annihilation of the first spin contaminant:
 S**2 before annihilation     1.0015,   after     0.7998
 QCSCF skips out because SCF is already converged.
 Calling FoFJK, ICntrl=      2127 FMM=F ISym2X=1 I1Cent= 0 IOpClX= 1 NMat=1 NMatS=1 NMatT=0.
 ***** Axes restored to original set *****
 -------------------------------------------------------------------
 Center     Atomic                   Forces (Hartrees/Bohr)
 Number     Number              X              Y              Z
 -------------------------------------------------------------------
      1        6          -0.053405245    0.040078830    0.000000000
      2        6           0.000282780   -0.010304074   -0.000000000
      3        6           0.051124918    0.042947824    0.000000000
      4        6          -0.016003301    0.010710950    0.000000000
      5        6           0.002269812   -0.082386232    0.000000000
      6        6           0.015385098    0.011574024   -0.000000000
      7       17           0.015155078    0.007537386    0.000000000
      8        1           0.106441767   -0.056545389   -0.000000000
      9       17          -0.015546617    0.006694308   -0.000000000
     10        1          -0.003238650    0.117864945   -0.000000000
     11        1           0.000710611   -0.025869263   -0.000000000
     12        1          -0.103176251   -0.062303306   -0.000000000
 -------------------------------------------------------------------
 Cartesian Forces:  Max     0.117864945 RMS     0.041081464

 GradGradGradGradGradGradGradGradGradGradGradGradGradGradGradGradGradGrad
 Berny optimization.
 Using GEDIIS/GDIIS optimizer.
 FormGI is forming the generalized inverse of G from B-inverse, IUseBI=4.
 Internal  Forces:  Max     0.120528921 RMS     0.032008334
 Search for a local minimum.
 Step number   4 out of a maximum of   64
 All quantities printed in internal units (Hartrees-Bohrs-Radians)
 Mixed Optimization -- RFO/linear search
 Update second derivatives using D2CorX and points    3    2    4
 DE= -1.21D-01 DEPred=-1.11D-01 R= 1.10D+00
 TightC=F SS=  1.41D+00  RLast= 6.32D-01 DXNew= 8.4853D-01 1.8947D+00
 Trust test= 1.10D+00 RLast= 6.32D-01 DXMaxT set to 8.49D-01
 ITU=  1  0  1  0
 Use linear search instead of GDIIS.
     Eigenvalues ---   -5.52967   0.00010   0.02011   0.02011   0.02011
     Eigenvalues ---    0.02011   0.02011   0.02011   0.02011   0.02011
     Eigenvalues ---    0.02011   0.05434   0.06524   0.06616   0.16000
     Eigenvalues ---    0.16000   0.16000   0.16008   0.22068   0.22789
     Eigenvalues ---    0.23463   0.25000   0.25015   0.28609   0.29033
     Eigenvalues ---    0.37624   0.40997   0.44127   0.44657   0.44657
 RFO step:  Lambda=-5.53314766D+00 EMin=-5.52966949D+00
 I=     1 Eig=   -5.53D+00 Dot1=  8.32D-02
 I=     1 Stepn=  6.00D-01 RXN=   6.00D-01 EDone=F
 Mixed    1 eigenvectors in step.  Raw Step.Grad=  8.32D-02.
 RFO eigenvector is Hessian eigenvector with negative curvature.
 Taking step of  6.00D-01 in eigenvector direction(s).  Step.Grad= -9.86D-03.
 Skip linear search -- no minimum in search direction.
 Iteration  1 RMS(Cart)=  0.10480139 RMS(Int)=  0.01013785
 Iteration  2 RMS(Cart)=  0.01429891 RMS(Int)=  0.00016156
 Iteration  3 RMS(Cart)=  0.00004112 RMS(Int)=  0.00015787
 Iteration  4 RMS(Cart)=  0.00000001 RMS(Int)=  0.00015787
 ClnCor:  largest displacement from symmetrization is 1.48D-08 for atom    10.
 Variable       Old X    -DE/DX   Delta X   Delta X   Delta X     New X
                                 (Linear)    (Quad)   (Total)
    R1        2.68711  -0.04953   0.00000  -0.21955  -0.21981   2.46730
    R2        2.67513  -0.03596   0.00000  -0.21813  -0.21812   2.45701
    R3        2.84479  -0.12053   0.00000  -0.12856  -0.12856   2.71622
    R4        2.68711  -0.04953   0.00000  -0.21955  -0.21980   2.46731
    R5        3.20040  -0.02588   0.00000   0.03050   0.03050   3.23090
    R6        2.67513  -0.03596   0.00000  -0.21813  -0.21813   2.45700
    R7        2.84476  -0.12053   0.00000  -0.12853  -0.12853   2.71623
    R8        2.67912  -0.04070   0.00000  -0.24329  -0.24304   2.43608
    R9        3.29874  -0.01685   0.00000   0.01471   0.01471   3.31345
   R10        2.67910  -0.04069   0.00000  -0.24331  -0.24306   2.43604
   R11        2.77420  -0.11791   0.00000   0.02894   0.02894   2.80314
   R12        3.29874  -0.01684   0.00000   0.01471   0.01471   3.31345
    A1        2.11861   0.00752   0.00000  -0.02089  -0.02113   2.09747
    A2        2.08546  -0.00390   0.00000   0.00174   0.00186   2.08732
    A3        2.07912  -0.00362   0.00000   0.01915   0.01927   2.09839
    A4        2.06256  -0.00773   0.00000  -0.00202  -0.00251   2.06005
    A5        2.11031   0.00387   0.00000   0.00101   0.00126   2.11157
    A6        2.11031   0.00387   0.00000   0.00101   0.00126   2.11157
    A7        2.11861   0.00752   0.00000  -0.02089  -0.02113   2.09748
    A8        2.08546  -0.00390   0.00000   0.00174   0.00186   2.08732
    A9        2.07911  -0.00362   0.00000   0.01915   0.01927   2.09839
   A10        2.08051  -0.00140   0.00000   0.05111   0.05136   2.13187
   A11        2.11123   0.00343   0.00000  -0.03291  -0.03303   2.07820
   A12        2.09145  -0.00204   0.00000  -0.01821  -0.01833   2.07312
   A13        2.10556  -0.00452   0.00000  -0.05844  -0.05795   2.04762
   A14        2.08880   0.00226   0.00000   0.02922   0.02897   2.11778
   A15        2.08882   0.00226   0.00000   0.02922   0.02897   2.11779
   A16        2.08052  -0.00140   0.00000   0.05112   0.05136   2.13188
   A17        2.11122   0.00343   0.00000  -0.03291  -0.03303   2.07819
   A18        2.09145  -0.00204   0.00000  -0.01821  -0.01834   2.07311
    D1        0.00000  -0.00000   0.00000   0.00000  -0.00000   0.00000
    D2        3.14159  -0.00000   0.00000   0.00000   0.00000   3.14159
    D3        3.14159   0.00000   0.00000  -0.00000   0.00000   3.14159
    D4       -0.00000   0.00000   0.00000  -0.00000   0.00000   0.00000
    D5        0.00000   0.00000   0.00000  -0.00000   0.00000   0.00000
    D6        3.14159   0.00000   0.00000  -0.00000   0.00000   3.14159
    D7        3.14159  -0.00000   0.00000  -0.00000   0.00000   3.14159
    D8        0.00000  -0.00000   0.00000  -0.00000  -0.00000   0.00000
    D9       -0.00000   0.00000   0.00000   0.00000   0.00000   0.00000
   D10        3.14159  -0.00000   0.00000  -0.00000   0.00000   3.14159
   D11        3.14159   0.00000   0.00000   0.00000   0.00000   3.14159
   D12        0.00000  -0.00000   0.00000  -0.00000   0.00000   0.00000
   D13       -0.00000   0.00000   0.00000  -0.00000   0.00000   0.00000
   D14        3.14159  -0.00000   0.00000  -0.00000   0.00000   3.14159
   D15        3.14159   0.00000   0.00000   0.00000   0.00000   3.14159
   D16        0.00000   0.00000   0.00000  -0.00000  -0.00000   0.00000
   D17        0.00000  -0.00000   0.00000   0.00000  -0.00000   0.00000
   D18        3.14159  -0.00000   0.00000  -0.00000   0.00000   3.14159
   D19        3.14159   0.00000   0.00000   0.00000   0.00000   3.14159
   D20       -0.00000  -0.00000   0.00000  -0.00000   0.00000   0.00000
   D21       -0.00000   0.00000   0.00000   0.00000   0.00000   0.00000
   D22        3.14159  -0.00000   0.00000   0.00000   0.00000   3.14159
   D23        3.14159   0.00000   0.00000   0.00000   0.00000   3.14159
   D24        0.00000   0.00000   0.00000   0.00000  -0.00000   0.00000
         Item               Value     Threshold  Converged?
 Maximum Force            0.120529     0.000450     NO 
 RMS     Force            0.032008     0.000300     NO 
 Maximum Displacement     0.302173     0.001800     NO 
 RMS     Displacement     0.117181     0.001200     NO 
 Predicted change in Energy=-1.078523D+00
 GradGradGradGradGradGradGradGradGradGradGradGradGradGradGradGradGradGrad

[...]
   A16        2.11025  -0.00007  -0.00053   0.00005  -0.00048   2.10977
   A17        2.04251   0.00017   0.00065   0.00031   0.00097   2.04348
   A18        2.13042  -0.00010  -0.00012  -0.00036  -0.00049   2.12994
    D1        0.00000  -0.00000   0.00000  -0.00000   0.00000   0.00000
    D2        3.14159  -0.00000   0.00000  -0.00000   0.00000   3.14159
    D3        3.14159   0.00000   0.00000   0.00000   0.00000   3.14159
    D4       -0.00000   0.00000   0.00000   0.00000   0.00000   0.00000
    D5       -0.00000   0.00000   0.00000   0.00000   0.00000   0.00000
    D6        3.14159   0.00000   0.00000   0.00000   0.00000   3.14159
    D7        3.14159  -0.00000   0.00000  -0.00000   0.00000   3.14159
    D8        0.00000  -0.00000   0.00000  -0.00000   0.00000   0.00000
    D9       -0.00000   0.00000   0.00000   0.00000   0.00000   0.00000
   D10        3.14159  -0.00000   0.00000  -0.00000   0.00000   3.14159
   D11        3.14159   0.00000   0.00000   0.00000   0.00000   3.14159
   D12       -0.00000  -0.00000   0.00000  -0.00000   0.00000   0.00000
   D13        0.00000   0.00000   0.00000   0.00000  -0.00000   0.00000
   D14        3.14159   0.00000   0.00000   0.00000   0.00000   3.14159
   D15        3.14159   0.00000   0.00000   0.00000   0.00000   3.14159
   D16        0.00000   0.00000   0.00000   0.00000   0.00000   0.00000
   D17       -0.00000  -0.00000   0.00000  -0.00000   0.00000   0.00000
   D18        3.14159  -0.00000   0.00000  -0.00000   0.00000   3.14159
   D19        3.14159  -0.00000   0.00000  -0.00000   0.00000   3.14159
   D20        0.00000  -0.00000   0.00000  -0.00000  -0.00000   0.00000
   D21        0.00000   0.00000   0.00000   0.00000   0.00000   0.00000
   D22        3.14159   0.00000   0.00000   0.00000   0.00000   3.14159
   D23        3.14159   0.00000   0.00000   0.00000   0.00000   3.14159
   D24       -0.00000   0.00000   0.00000   0.00000   0.00000   0.00000
         Item               Value     Threshold  Converged?
 Maximum Force            0.000213     0.000450     YES
 RMS     Force            0.000062     0.000300     YES
 Maximum Displacement     0.001688     0.001800     YES
 RMS     Displacement     0.000488     0.001200     YES
 Predicted change in Energy=-5.062991D-07
 Optimization completed.
    -- Stationary point found.
                           ----------------------------
                           !   Optimized Parameters   !
                           ! (Angstroms and Degrees)  !
 --------------------------                            --------------------------
 ! Name  Definition              Value          Derivative Info.                !
 --------------------------------------------------------------------------------
 ! R1    R(1,2)                  1.399          -DE/DX =    0.0                 !
 ! R2    R(1,6)                  1.4014         -DE/DX =    0.0                 !
 ! R3    R(1,8)                  1.0969         -DE/DX =    0.0002              !
 ! R4    R(2,3)                  1.399          -DE/DX =    0.0                 !
 ! R5    R(2,11)                 1.0989         -DE/DX =    0.0                 !
 ! R6    R(3,4)                  1.4014         -DE/DX =    0.0                 !
 ! R7    R(3,12)                 1.0975         -DE/DX =   -0.0002              !
 ! R8    R(4,5)                  1.3964         -DE/DX =    0.0                 !
 ! R9    R(4,9)                  1.8126         -DE/DX =   -0.0001              !
 ! R10   R(5,6)                  1.3964         -DE/DX =    0.0                 !
 ! R11   R(5,10)                 1.0971         -DE/DX =   -0.0001              !
 ! R12   R(6,7)                  1.8126         -DE/DX =   -0.0001              !
 ! A1    A(2,1,6)              119.4994         -DE/DX =    0.0                 !
 ! A2    A(2,1,8)              120.2191         -DE/DX =    0.0                 !
 ! A3    A(6,1,8)              120.2815         -DE/DX =    0.0                 !
 ! A4    A(1,2,3)              120.2036         -DE/DX =    0.0                 !
 ! A5    A(1,2,11)             119.8982         -DE/DX =    0.0                 !
 ! A6    A(3,2,11)             119.8982         -DE/DX =    0.0                 !
 ! A7    A(2,3,4)              119.4983         -DE/DX =    0.0001              !
 ! A8    A(2,3,12)             120.2195         -DE/DX =    0.0                 !
 ! A9    A(4,3,12)             120.2822         -DE/DX =    0.0                 !
 ! A10   A(3,4,5)              120.9088         -DE/DX =   -0.0001              !
 ! A11   A(3,4,9)              117.0271         -DE/DX =    0.0002              !
 ! A12   A(5,4,9)              122.064          -DE/DX =   -0.0001              !
 ! A13   A(4,5,6)              118.9815         -DE/DX =    0.0001              !
 ! A14   A(4,5,10)             120.5093         -DE/DX =    0.0                 !
 ! A15   A(6,5,10)             120.5092         -DE/DX =    0.0                 !
 ! A16   A(1,6,5)              120.9083         -DE/DX =   -0.0001              !
 ! A17   A(1,6,7)              117.0273         -DE/DX =    0.0002              !
 ! A18   A(5,6,7)              122.0643         -DE/DX =   -0.0001              !
 ! D1    D(6,1,2,3)              0.0            -DE/DX =    0.0                 !
 ! D2    D(6,1,2,11)           180.0            -DE/DX =    0.0                 !
 ! D3    D(8,1,2,3)            180.0            -DE/DX =    0.0                 !
 ! D4    D(8,1,2,11)             0.0            -DE/DX =    0.0                 !
 ! D5    D(2,1,6,5)              0.0            -DE/DX =    0.0                 !
 ! D6    D(2,1,6,7)            180.0            -DE/DX =    0.0                 !
 ! D7    D(8,1,6,5)            180.0            -DE/DX =    0.0                 !
 ! D8    D(8,1,6,7)              0.0            -DE/DX =    0.0                 !
 ! D9    D(1,2,3,4)              0.0            -DE/DX =    0.0                 !
 ! D10   D(1,2,3,12)           180.0            -DE/DX =    0.0                 !
 ! D11   D(11,2,3,4)           180.0            -DE/DX =    0.0                 !
 ! D12   D(11,2,3,12)            0.0            -DE/DX =    0.0                 !
 ! D13   D(2,3,4,5)              0.0            -DE/DX =    0.0                 !
 ! D14   D(2,3,4,9)            180.0            -DE/DX =    0.0                 !
 ! D15   D(12,3,4,5)           180.0            -DE/DX =    0.0                 !
 ! D16   D(12,3,4,9)             0.0            -DE/DX =    0.0                 !
 ! D17   D(3,4,5,6)              0.0            -DE/DX =    0.0                 !
 ! D18   D(3,4,5,10)           180.0            -DE/DX =    0.0                 !
 ! D19   D(9,4,5,6)            180.0            -DE/DX =    0.0                 !
 ! D20   D(9,4,5,10)             0.0            -DE/DX =    0.0                 !
 ! D21   D(4,5,6,1)              0.0            -DE/DX =    0.0                 !
 ! D22   D(4,5,6,7)            180.0            -DE/DX =    0.0                 !
 ! D23   D(10,5,6,1)           180.0            -DE/DX =    0.0                 !
 ! D24   D(10,5,6,7)             0.0            -DE/DX =    0.0                 !
 --------------------------------------------------------------------------------
 GradGradGradGradGradGradGradGradGradGradGradGradGradGradGradGradGradGrad

                          Input orientation:                          
 ---------------------------------------------------------------------
 Center     Atomic      Atomic             Coordinates (Angstroms)
 Number     Number       Type             X           Y           Z
 ---------------------------------------------------------------------
      1          6           0       -3.205875    0.247084   -0.000000
      2          6           0       -2.012693    0.977469    0.000000
      3          6           0       -0.781198    0.313703    0.000000
      4          6           0       -0.752485   -1.087393    0.000000
      5          6           0       -1.935593   -1.829062    0.000000
      6          6           0       -3.157635   -1.153467   -0.000000
      7         17           0       -4.742993   -2.032246   -0.000000
      8          1           0       -4.171614    0.767273   -0.000000
      9         17           0        0.878723   -1.877816    0.000000
     10          1           0       -1.905465   -2.925787    0.000000
     11          1           0       -2.042877    2.075987    0.000000
     12          1           0        0.155006    0.886425    0.000000
 ---------------------------------------------------------------------
                    Distance matrix (angstroms):
                    1          2          3          4          5
     1  C    0.000000
     2  C    1.398980   0.000000
     3  C    2.425592   1.398987   0.000000
     4  C    2.792839   2.419044   1.401389   0.000000
     5  C    2.433926   2.807589   2.433940   1.396359   0.000000
     6  C    1.401381   2.419045   2.792855   2.406057   1.396358
     7  Cl   2.749196   4.063609   4.604269   4.100841   2.814743
     8  H    1.096927   2.169129   3.420621   3.889759   3.426477
     9  Cl   4.604253   4.063611   2.749198   1.812625   2.814739
    10  H    3.429020   3.904728   3.429033   2.170036   1.097139
    11  H    2.167360   1.098933   2.167367   3.416443   3.906522
    12  H    3.421152   2.169611   1.097493   2.172440   3.427021
                    6          7          8          9         10
     6  C    0.000000
     7  Cl   1.812626   0.000000
     8  H    2.171956   2.857233   0.000000
     9  Cl   4.100838   5.623837   5.701088   0.000000
    10  H    2.170034   2.974891   4.332911   2.974886   0.000000
    11  H    3.416439   4.916117   2.498851   4.916127   5.003661
    12  H    3.890341   5.701670   4.328261   2.857410   4.333417
                   11         12
    11  H    0.000000
    12  H    2.499150   0.000000
 Stoichiometry    C6H4Cl2(1-,2)
 Framework group  CS[SG(C6H4Cl2)]
 Deg. of freedom    21
 Full point group                 CS      NOp   2
 Largest Abelian subgroup         CS      NOp   2
 Largest concise Abelian subgroup C1      NOp   1
                         Standard orientation:                         
 ---------------------------------------------------------------------
 Center     Atomic      Atomic             Coordinates (Angstroms)
 Number     Number       Type             X           Y           Z
 ---------------------------------------------------------------------
      1          6           0        1.212809   -1.373560    0.000000
      2          6           0        0.000026   -2.070914   -0.000000
      3          6           0       -1.212783   -1.373591   -0.000000
      4          6           0       -1.203022    0.027764   -0.000000
      5          6           0        0.000000    0.736675    0.000000
      6          6           0        1.203035    0.027787    0.000000
      7         17           0        2.811919    0.862714    0.000000
      8          1           0        2.163904   -1.920064    0.000000
      9         17           0       -2.811917    0.862670   -0.000000
     10          1           0       -0.000009    1.833814    0.000000
     11          1           0        0.000042   -3.169847   -0.000000
     12          1           0       -2.164358   -1.920397   -0.000000
 ---------------------------------------------------------------------
 Rotational constants (GHZ):           2.8721762           0.7990621           0.6251425

 **********************************************************************

            Population analysis using the SCF Density.

 **********************************************************************

 Orbital symmetries:
 Alpha Orbitals:
       Occupied  (A') (A') (A') (A') (A') (A') (A') (A') (A') (A')
                 (A') (A') (A") (A') (A') (A") (A") (A') (A') (A")
                 (A") (A')
       Virtual   (A') (A") (A") (A") (A') (A') (A') (A') (A') (A')
                 (A') (A') (A') (A')
 Beta  Orbitals:
       Occupied  (A') (A') (A') (A') (A') (A') (A') (A') (A') (A')
                 (A') (A') (A") (A') (A') (A") (A") (A') (A') (A")
                 (A")
       Virtual   (A") (A") (A') (A') (A") (A') (A') (A') (A') (A')
                 (A') (A') (A') (A') (A')
 The electronic state is 2-A'.
 Alpha  occ. eigenvalues --   -1.27212  -1.15204  -1.14224  -0.98964  -0.96806
 Alpha  occ. eigenvalues --   -0.69393  -0.68020  -0.50009  -0.43947  -0.42026
 Alpha  occ. eigenvalues --   -0.37549  -0.37196  -0.35361  -0.29543  -0.29480
 Alpha  occ. eigenvalues --   -0.28719  -0.26111  -0.24871  -0.24517  -0.19402
 Alpha  occ. eigenvalues --   -0.17951  -0.02270
 Alpha virt. eigenvalues --    0.14655   0.17855   0.17872   0.26284   0.28385
 Alpha virt. eigenvalues --    0.30088   0.31080   0.31897   0.33342   0.33669
 Alpha virt. eigenvalues --    0.35051   0.36085   0.36960   0.37337
  Beta  occ. eigenvalues --   -1.26867  -1.13135  -1.12236  -0.98592  -0.96547
  Beta  occ. eigenvalues --   -0.69144  -0.66370  -0.49610  -0.42570  -0.41734
  Beta  occ. eigenvalues --   -0.36688  -0.36396  -0.34806  -0.28839  -0.28608
  Beta  occ. eigenvalues --   -0.27459  -0.25344  -0.24285  -0.23807  -0.19544
  Beta  occ. eigenvalues --   -0.18790
  Beta virt. eigenvalues --    0.17858   0.19733   0.25096   0.26568   0.27002
  Beta virt. eigenvalues --    0.29041   0.29555   0.30895   0.31870   0.33413
  Beta virt. eigenvalues --    0.34190   0.35167   0.36562   0.37718   0.38025
          Condensed to atoms (all electrons):
               1          2          3          4          5          6
     1  C    4.184710   0.000000   0.000000   0.000000   0.000000   0.000000
     2  C    0.000000   4.147924   0.000000   0.000000   0.000000   0.000000
     3  C    0.000000   0.000000   4.184725   0.000000   0.000000   0.000000
     4  C    0.000000   0.000000   0.000000   4.045896   0.000000   0.000000
     5  C    0.000000   0.000000   0.000000   0.000000   4.141956   0.000000
     6  C    0.000000   0.000000   0.000000   0.000000   0.000000   4.045903
     7  Cl   0.000000   0.000000   0.000000   0.000000   0.000000   0.000000
     8  H    0.000000   0.000000   0.000000   0.000000   0.000000   0.000000
     9  Cl   0.000000   0.000000   0.000000   0.000000   0.000000   0.000000
    10  H    0.000000   0.000000   0.000000   0.000000   0.000000   0.000000
    11  H    0.000000   0.000000   0.000000   0.000000   0.000000   0.000000
    12  H    0.000000   0.000000   0.000000   0.000000   0.000000   0.000000
               7          8          9         10         11         12
     1  C    0.000000   0.000000   0.000000   0.000000   0.000000   0.000000
     2  C    0.000000   0.000000   0.000000   0.000000   0.000000   0.000000
     3  C    0.000000   0.000000   0.000000   0.000000   0.000000   0.000000
     4  C    0.000000   0.000000   0.000000   0.000000   0.000000   0.000000
     5  C    0.000000   0.000000   0.000000   0.000000   0.000000   0.000000
     6  C    0.000000   0.000000   0.000000   0.000000   0.000000   0.000000
     7  Cl   7.344208   0.000000   0.000000   0.000000   0.000000   0.000000
     8  H    0.000000   0.887159   0.000000   0.000000   0.000000   0.000000
     9  Cl   0.000000   0.000000   7.344216   0.000000   0.000000   0.000000
    10  H    0.000000   0.000000   0.000000   0.875713   0.000000   0.000000
    11  H    0.000000   0.000000   0.000000   0.000000   0.910446   0.000000
    12  H    0.000000   0.000000   0.000000   0.000000   0.000000   0.887144
          Atomic-Atomic Spin Densities.
               1          2          3          4          5          6
     1  C   -0.408515   0.000000   0.000000   0.000000   0.000000   0.000000
     2  C    0.000000   0.395448   0.000000   0.000000   0.000000   0.000000
     3  C    0.000000   0.000000  -0.408540   0.000000   0.000000   0.000000
     4  C    0.000000   0.000000   0.000000   0.636238   0.000000   0.000000
     5  C    0.000000   0.000000   0.000000   0.000000  -0.413024   0.000000
     6  C    0.000000   0.000000   0.000000   0.000000   0.000000   0.636223
     7  Cl   0.000000   0.000000   0.000000   0.000000   0.000000   0.000000
     8  H    0.000000   0.000000   0.000000   0.000000   0.000000   0.000000
     9  Cl   0.000000   0.000000   0.000000   0.000000   0.000000   0.000000
    10  H    0.000000   0.000000   0.000000   0.000000   0.000000   0.000000
    11  H    0.000000   0.000000   0.000000   0.000000   0.000000   0.000000
    12  H    0.000000   0.000000   0.000000   0.000000   0.000000   0.000000
               7          8          9         10         11         12
     1  C    0.000000   0.000000   0.000000   0.000000   0.000000   0.000000
     2  C    0.000000   0.000000   0.000000   0.000000   0.000000   0.000000
     3  C    0.000000   0.000000   0.000000   0.000000   0.000000   0.000000
     4  C    0.000000   0.000000   0.000000   0.000000   0.000000   0.000000
     5  C    0.000000   0.000000   0.000000   0.000000   0.000000   0.000000
     6  C    0.000000   0.000000   0.000000   0.000000   0.000000   0.000000
     7  Cl   0.253278   0.000000   0.000000   0.000000   0.000000   0.000000
     8  H    0.000000   0.021359   0.000000   0.000000   0.000000   0.000000
     9  Cl   0.000000   0.000000   0.253286   0.000000   0.000000   0.000000
    10  H    0.000000   0.000000   0.000000   0.028809   0.000000   0.000000
    11  H    0.000000   0.000000   0.000000   0.000000  -0.015938   0.000000
    12  H    0.000000   0.000000   0.000000   0.000000   0.000000   0.021377
 Mulliken charges and spin densities:
               1          2
     1  C   -0.184710  -0.408515
     2  C   -0.147924   0.395448
     3  C   -0.184725  -0.408540
     4  C   -0.045896   0.636238
     5  C   -0.141956  -0.413024
     6  C   -0.045903   0.636223
     7  Cl  -0.344208   0.253278
     8  H    0.112841   0.021359
     9  Cl  -0.344216   0.253286
    10  H    0.124287   0.028809
    11  H    0.089554  -0.015938
    12  H    0.112856   0.021377
 Sum of Mulliken charges =  -1.00000   1.00000
 Mulliken charges and spin densities with hydrogens summed into heavy atoms:
               1          2
     1  C   -0.071869  -0.387156
     2  C   -0.058370   0.379509
     3  C   -0.071870  -0.387163
     4  C   -0.045896   0.636238
     5  C   -0.017669  -0.384215
     6  C   -0.045903   0.636223
     7  Cl  -0.344208   0.253278
     9  Cl  -0.344216   0.253286
 Charge=             -1.0000 electrons
 Dipole moment (field-independent basis, Debye):
    X=             -0.0001    Y=             -2.4950    Z=              0.0000  Tot=              2.4950
 N-N= 2.014425573907D+02 E-N=-2.868231987411D+02  KE=-9.342137780925D+01
 Symmetry A'   KE=-7.300578308746D+01
 Symmetry A"   KE=-2.041559472179D+01
 Symmetry A'   SP= 1.000000000000D+00
 Symmetry A"   SP=-1.387778780781D-15
 1\1\GINC-SH02-01N29\FOpt\UAM1\ZDO\C6H4Cl2(1-,2)\JLAPIER\09-Dec-2025\0\
 \# opt am1 SCF=XQC\\2-Chloro-Benzene Anion Radical (13)\\-1,2\C,-3.205
 8752973,0.2470840135,0.\C,-2.0126933431,0.9774685474,0.\C,-0.781198286
 6,0.3137025136,0.\C,-0.7524852275,-1.0873925568,0.\C,-1.9355931425,-1.
 8290617386,0.\C,-3.1576350515,-1.153466809,0.\Cl,-4.7429927878,-2.0322
 464712,0.\H,-4.1716144547,0.7672727065,0.\Cl,0.8787231446,-1.877815551
 1,0.\H,-1.9054648775,-2.925786728,0.\H,-2.0428771721,2.0759870411,0.\H
 ,0.1550064959,0.8864250325,0.\\Version=ES64L-G16RevB.01\State=2-A'\HF=
 0.019535\S2=1.132585\S2-1=0.\S2A=0.87314\RMSD=5.659e-09\RMSF=1.069e-04
 \Dipole=-0.0268966,0.9812316,0.\PG=CS [SG(C6H4Cl2)]\\@


 Mondays are the potholes in the road of life.
                                -- Tom Wilson
 Job cpu time:       0 days  0 hours  0 minutes 17.5 seconds.
 Elapsed time:       0 days  0 hours  0 minutes 43.3 seconds.
 File lengths (MBytes):  RWF=     10 Int=      0 D2E=      0 Chk=      2 Scr=      1
 Normal termination of Gaussian 16 at Tue Dec  9 08:35:33 2025.
