 Entering Gaussian System, Link 0=g16
 Initial command:
 /share/software/user/restricted/gaussian/g16.B01/l1.exe "/home/users/jlapier/Chloroaromatics/Gau-20100.inp" -scrdir="/home/users/jlapier/Chloroaromatics/"
 Entering Link 1 = /share/software/user/restricted/gaussian/g16.B01/l1.exe PID=     20101.
  
 Copyright (c) 1988-2017, Gaussian, Inc.  All Rights Reserved.
  
 This is part of the Gaussian(R) 16 program.  It is based on
 the Gaussian(R) 09 system (copyright 2009, Gaussian, Inc.),
 the Gaussian(R) 03 system (copyright 2003, Gaussian, Inc.),
 the Gaussian(R) 98 system (copyright 1998, Gaussian, Inc.),
 the Gaussian(R) 94 system (copyright 1995, Gaussian, Inc.),
 the Gaussian 92(TM) system (copyright 1992, Gaussian, Inc.),
 the Gaussian 90(TM) system (copyright 1990, Gaussian, Inc.),
 the Gaussian 88(TM) system (copyright 1988, Gaussian, Inc.),
 the Gaussian 86(TM) system (copyright 1986, Carnegie Mellon
 University), and the Gaussian 82(TM) system (copyright 1983,
 Carnegie Mellon University). Gaussian is a federally registered
 trademark of Gaussian, Inc.
  
 This software contains proprietary and confidential information,
 including trade secrets, belonging to Gaussian, Inc.
  
 This software is provided under written license and may be
 used, copied, transmitted, or stored only in accord with that
 written license.
  
 The following legend is applicable only to US Government
 contracts under FAR:
  
                    RESTRICTED RIGHTS LEGEND
  
 Use, reproduction and disclosure by the US Government is
 subject to restrictions as set forth in subparagraphs (a)
 and (c) of the Commercial Computer Software - Restricted
 Rights clause in FAR 52.227-19.
  
 Gaussian, Inc.
 340 Quinnipiac St., Bldg. 40, Wallingford CT 06492
  
  
 ---------------------------------------------------------------
 Warning -- This program may not be used in any manner that
 competes with the business of Gaussian, Inc. or will provide
 assistance to any competitor of Gaussian, Inc.  The licensee
 of this program is prohibited from giving any competitor of
 Gaussian, Inc. access to this program.  By using this program,
 the user acknowledges that Gaussian, Inc. is engaged in the
 business of creating and licensing software in the field of
 computational chemistry and represents and warrants to the
 licensee that it is not a competitor of Gaussian, Inc. and that
 it will not use this program in any manner prohibited above.
 ---------------------------------------------------------------
  

 Cite this work as:
 Gaussian 16, Revision B.01,
 M. J. Frisch, G. W. Trucks, H. B. Schlegel, G. E. Scuseria, 
 M. A. Robb, J. R. Cheeseman, G. Scalmani, V. Barone, 
 G. A. Petersson, H. Nakatsuji, X. Li, M. Caricato, A. V. Marenich, 
 J. Bloino, B. G. Janesko, R. Gomperts, B. Mennucci, H. P. Hratchian, 
 J. V. Ortiz, A. F. Izmaylov, J. L. Sonnenberg, D. Williams-Young, 
 F. Ding, F. Lipparini, F. Egidi, J. Goings, B. Peng, A. Petrone, 
 T. Henderson, D. Ranasinghe, V. G. Zakrzewski, J. Gao, N. Rega, 
 G. Zheng, W. Liang, M. Hada, M. Ehara, K. Toyota, R. Fukuda, 
 J. Hasegawa, M. Ishida, T. Nakajima, Y. Honda, O. Kitao, H. Nakai, 
 T. Vreven, K. Throssell, J. A. Montgomery, Jr., J. E. Peralta, 
 F. Ogliaro, M. J. Bearpark, J. J. Heyd, E. N. Brothers, K. N. Kudin, 
 V. N. Staroverov, T. A. Keith, R. Kobayashi, J. Normand, 
 K. Raghavachari, A. P. Rendell, J. C. Burant, S. S. Iyengar, 
 J. Tomasi, M. Cossi, J. M. Millam, M. Klene, C. Adamo, R. Cammi, 
 J. W. Ochterski, R. L. Martin, K. Morokuma, O. Farkas, 
 J. B. Foresman, and D. J. Fox, Gaussian, Inc., Wallingford CT, 2016.
 
 ******************************************
 Gaussian 16:  ES64L-G16RevB.01 20-Dec-2017
                 9-Dec-2025 
 ******************************************
 %mem=2GB
 %nprocshare=1
 Will use up to    1 processors via shared memory.
 %chk=geometry_chks/13ClBzAnionRadical.chk
 -----------------
 # opt am1 SCF=XQC
 -----------------
 1/18=20,19=15,26=1,38=1/1,3;
 2/9=110,12=2,17=6,18=5,40=1/2;
 3/5=2,25=1,41=700000,71=1/1,2,3;
 4/35=1/1;
 5/5=2,8=3,13=1,35=1,38=5/2,8;
 6/7=2,8=2,9=2,10=2,28=1/1;
 7//1,2,3,16;
 1/18=20,19=15,26=1/3(2);
 2/9=110/2;
 99//99;
 2/9=110/2;
 3/5=2,25=1,41=700000,71=1,135=20/1,2,3;
 4/5=5,16=3,35=1/1;
 5/5=2,8=3,13=1,35=1,38=5/2,8;
 7//1,2,3,16;
 1/18=20,19=15,26=1/3(-5);
 2/9=110/2;
 6/7=2,8=2,9=2,10=2,19=2,28=1/1;
 99/9=1/99;
 -----------------------------------
 2-Chloro-Benzene Anion Radical (13)
 -----------------------------------
 Symbolic Z-matrix:
 Charge = -1 Multiplicity = 2
 C                    -3.20928   0.19943   0. 
 C                    -2.0115    0.93555   0. 
 C                    -0.77511   0.2663    0. 
 C                    -0.7365   -1.13907   0. 
 C                    -1.93429  -1.87519   0. 
 C                    -3.17067  -1.20594   0. 
 Cl                   -4.67483  -2.13035   0. 
 H                    -4.76193   1.03987   0. 
 Cl                   -2.05998   2.7004    0. 
 H                     0.72905   1.19071   0. 
 H                     0.81614  -1.97951   0. 
 H                    -1.8858   -3.64003   0. 
 
 Add virtual bond connecting atoms H12        and C5         Dist= 3.34D+00.
 Add virtual bond connecting atoms H11        and C4         Dist= 3.34D+00.
 Add virtual bond connecting atoms H10        and C3         Dist= 3.34D+00.
 Add virtual bond connecting atoms H8         and C1         Dist= 3.34D+00.

 GradGradGradGradGradGradGradGradGradGradGradGradGradGradGradGradGradGrad
 Berny optimization.
 Initialization pass.
                           ----------------------------
                           !    Initial Parameters    !
                           ! (Angstroms and Degrees)  !
 --------------------------                            --------------------------
 ! Name  Definition              Value          Derivative Info.                !
 --------------------------------------------------------------------------------
 ! R1    R(1,2)                  1.4059         estimate D2E/DX2                !
 ! R2    R(1,6)                  1.4059         estimate D2E/DX2                !
 ! R3    R(1,8)                  1.7655         estimate D2E/DX2                !
 ! R4    R(2,3)                  1.4059         estimate D2E/DX2                !
 ! R5    R(2,9)                  1.7655         estimate D2E/DX2                !
 ! R6    R(3,4)                  1.4059         estimate D2E/DX2                !
 ! R7    R(3,10)                 1.7655         estimate D2E/DX2                !
 ! R8    R(4,5)                  1.4059         estimate D2E/DX2                !
 ! R9    R(4,11)                 1.7655         estimate D2E/DX2                !
 ! R10   R(5,6)                  1.4059         estimate D2E/DX2                !
 ! R11   R(5,12)                 1.7655         estimate D2E/DX2                !
 ! R12   R(6,7)                  1.7655         estimate D2E/DX2                !
 ! A1    A(2,1,6)              119.9999         estimate D2E/DX2                !
 ! A2    A(2,1,8)              119.9999         estimate D2E/DX2                !
 ! A3    A(6,1,8)              120.0001         estimate D2E/DX2                !
 ! A4    A(1,2,3)              120.0            estimate D2E/DX2                !
 ! A5    A(1,2,9)              120.0001         estimate D2E/DX2                !
 ! A6    A(3,2,9)              119.9999         estimate D2E/DX2                !
 ! A7    A(2,3,4)              120.0001         estimate D2E/DX2                !
 ! A8    A(2,3,10)             120.0            estimate D2E/DX2                !
 ! A9    A(4,3,10)             119.9999         estimate D2E/DX2                !
 ! A10   A(3,4,5)              119.9997         estimate D2E/DX2                !
 ! A11   A(3,4,11)             120.0003         estimate D2E/DX2                !
 ! A12   A(5,4,11)             120.0            estimate D2E/DX2                !
 ! A13   A(4,5,6)              120.0            estimate D2E/DX2                !
 ! A14   A(4,5,12)             119.9996         estimate D2E/DX2                !
 ! A15   A(6,5,12)             120.0004         estimate D2E/DX2                !
 ! A16   A(1,6,5)              120.0003         estimate D2E/DX2                !
 ! A17   A(1,6,7)              119.9999         estimate D2E/DX2                !
 ! A18   A(5,6,7)              119.9998         estimate D2E/DX2                !
 ! D1    D(6,1,2,3)              0.0            estimate D2E/DX2                !
 ! D2    D(6,1,2,9)            180.0            estimate D2E/DX2                !
 ! D3    D(8,1,2,3)            180.0            estimate D2E/DX2                !
 ! D4    D(8,1,2,9)              0.0            estimate D2E/DX2                !
 ! D5    D(2,1,6,5)              0.0            estimate D2E/DX2                !
 ! D6    D(2,1,6,7)            180.0            estimate D2E/DX2                !
 ! D7    D(8,1,6,5)            180.0            estimate D2E/DX2                !
 ! D8    D(8,1,6,7)              0.0            estimate D2E/DX2                !
 ! D9    D(1,2,3,4)              0.0            estimate D2E/DX2                !
 ! D10   D(1,2,3,10)           180.0            estimate D2E/DX2                !
 ! D11   D(9,2,3,4)            180.0            estimate D2E/DX2                !
 ! D12   D(9,2,3,10)             0.0            estimate D2E/DX2                !
 ! D13   D(2,3,4,5)              0.0            estimate D2E/DX2                !
 ! D14   D(2,3,4,11)           180.0            estimate D2E/DX2                !
 ! D15   D(10,3,4,5)           180.0            estimate D2E/DX2                !
 ! D16   D(10,3,4,11)            0.0            estimate D2E/DX2                !
 ! D17   D(3,4,5,6)              0.0            estimate D2E/DX2                !
 ! D18   D(3,4,5,12)           180.0            estimate D2E/DX2                !
 ! D19   D(11,4,5,6)           180.0            estimate D2E/DX2                !
 ! D20   D(11,4,5,12)            0.0            estimate D2E/DX2                !
 ! D21   D(4,5,6,1)              0.0            estimate D2E/DX2                !
 ! D22   D(4,5,6,7)            180.0            estimate D2E/DX2                !
 ! D23   D(12,5,6,1)           180.0            estimate D2E/DX2                !
 ! D24   D(12,5,6,7)             0.0            estimate D2E/DX2                !
 --------------------------------------------------------------------------------
 Trust Radius=3.00D-01 FncErr=1.00D-07 GrdErr=1.00D-07 EigMax=2.50D+02 EigMin=1.00D-04
 Number of steps in this run=     64 maximum allowed number of steps=    100.
 GradGradGradGradGradGradGradGradGradGradGradGradGradGradGradGradGradGrad

                          Input orientation:                          
 ---------------------------------------------------------------------
 Center     Atomic      Atomic             Coordinates (Angstroms)
 Number     Number       Type             X           Y           Z
 ---------------------------------------------------------------------
      1          6           0       -3.209280    0.199430    0.000000
      2          6           0       -2.011500    0.935550    0.000000
      3          6           0       -0.775110    0.266300    0.000000
      4          6           0       -0.736500   -1.139070    0.000000
      5          6           0       -1.934290   -1.875190    0.000000
      6          6           0       -3.170670   -1.205940    0.000000
      7         17           0       -4.674830   -2.130350    0.000000
      8          1           0       -4.761930    1.039870    0.000000
      9         17           0       -2.059980    2.700400    0.000000
     10          1           0        0.729050    1.190710    0.000000
     11          1           0        0.816140   -1.979510    0.000000
     12          1           0       -1.885800   -3.640030    0.000000
 ---------------------------------------------------------------------
                    Distance matrix (angstroms):
                    1          2          3          4          5
     1  C    0.000000
     2  C    1.405898   0.000000
     3  C    2.435088   1.405900   0.000000
     4  C    2.811801   2.435092   1.405900   0.000000
     5  C    2.435087   2.811800   2.435093   1.405907   0.000000
     6  C    1.405900   2.435088   2.811796   2.435088   1.405892
     7  Cl   2.752401   4.061166   4.577308   4.061167   2.752393
     8  H    1.765520   2.752408   4.061175   4.577321   4.061173
     9  Cl   2.752406   1.765516   2.752405   4.061173   4.577316
    10  H    4.061167   2.752403   1.765512   2.752401   4.061173
    11  H    4.577312   4.061173   2.752406   1.765511   2.752408
    12  H    4.061164   4.577306   4.061163   2.752397   1.765506
                    6          7          8          9         10
     6  C    0.000000
     7  Cl   1.765512   0.000000
     8  H    2.752412   3.171416   0.000000
     9  Cl   4.061173   5.493049   3.171418   0.000000
    10  H    4.577308   6.342819   5.493051   3.171412   0.000000
    11  H    4.061165   5.493041   6.342832   5.493052   3.171416
    12  H    2.752396   3.171407   5.493049   6.342822   5.493040
                   11         12
    11  H    0.000000
    12  H    3.171404   0.000000
 Stoichiometry    C6H4Cl2(1-,2)
 Framework group  CS[SG(C6H4Cl2)]
 Deg. of freedom    21
 Full point group                 CS      NOp   2
 Largest Abelian subgroup         CS      NOp   2
 Largest concise Abelian subgroup C1      NOp   1
                         Standard orientation:                         
 ---------------------------------------------------------------------
 Center     Atomic      Atomic             Coordinates (Angstroms)
 Number     Number       Type             X           Y           Z
 ---------------------------------------------------------------------
      1          6           0       -0.000001    0.720189    0.000000
      2          6           0        1.217543    0.017241    0.000000
      3          6           0        1.217543   -1.388660    0.000000
      4          6           0       -0.000001   -2.091612    0.000000
      5          6           0       -1.217550   -1.388655    0.000000
      6          6           0       -1.217545    0.017237    0.000000
      7         17           0       -2.746523    0.899993    0.000000
      8          1           0       -0.000000    2.485709    0.000000
      9         17           0        2.746526    0.899996    0.000000
     10          1           0        2.746521   -2.271416    0.000000
     11          1           0       -0.000006   -3.857123    0.000000
     12          1           0       -2.746519   -2.271414    0.000000
 ---------------------------------------------------------------------
 Rotational constants (GHZ):           2.6201415           0.8231885           0.6263908
 Standard basis: VSTO-6G (5D, 7F)
 There are    28 symmetry adapted cartesian basis functions of A'  symmetry.
 There are     8 symmetry adapted cartesian basis functions of A"  symmetry.
 There are    28 symmetry adapted basis functions of A'  symmetry.
 There are     8 symmetry adapted basis functions of A"  symmetry.
    36 basis functions,   216 primitive gaussians,    36 cartesian basis functions
    22 alpha electrons       21 beta electrons
       nuclear repulsion energy       197.1144110427 Hartrees.
 Integral buffers will be    131072 words long.
 Regular integral format.
 Two-electron integral symmetry is turned off.
 Do NDO integrals.
 One-electron integrals computed using PRISM.
 NBasis=    36 RedAO= T EigKep=  1.00D+00  NBF=    28     8
 NBsUse=    36 1.00D-06 EigRej= -1.00D+00 NBFU=    28     8
 Simple Huckel Guess.
 Initial guess orbital symmetries:
 Alpha Orbitals:
       Occupied  (A') (A') (A') (A') (A') (A') (A') (A') (A') (A")
                 (A') (A') (A') (A") (A') (A') (A") (A') (A') (A")
                 (A") (A')
       Virtual   (A") (A') (A") (A') (A') (A") (A') (A') (A') (A')
                 (A') (A') (A') (A')
 Beta  Orbitals:
       Occupied  (A') (A') (A') (A') (A') (A') (A') (A') (A') (A")
                 (A') (A') (A') (A") (A') (A') (A") (A') (A') (A")
                 (A")
       Virtual   (A') (A") (A') (A") (A') (A') (A") (A') (A') (A')
                 (A') (A') (A') (A') (A')
 The electronic state of the initial guess is 2-A'.
 Initial guess <Sx>= 0.0000 <Sy>= 0.0000 <Sz>= 0.5000 <S**2>= 0.7500 S= 0.5000
 Keep J ints in memory in canonical form, NReq=862905.
 Overlap will be assumed to be unity.
 Requested convergence on RMS density matrix=1.00D-08 within  32 cycles.
 Requested convergence on MAX density matrix=1.00D-06.
 Requested convergence on             energy=1.00D-06.
 No special actions if energy rises.
 Fock symm off for IB=2 I1=    1 I=   29 J=   23 Cut=1.00D-07 Err=4.34D-03
 Fock matrix is not symmetric: symmetry in diagonalization turned off.
 Rare condition: small coef for last iteration:  0.000D+00
 >>>>>>>>>> Convergence criterion not met.
 SCF Done:  E(UAM1) =  0.464693422886     A.U. after   33 cycles
            NFock= 32  Conv=0.95D-05     -V/T= 1.0051
 <Sx>= 0.0000 <Sy>= 0.0000 <Sz>= 0.5000 <S**2>= 1.7385 S= 0.9101
 <L.S>=  0.00000000000    
 Annihilation of the first spin contaminant:
 S**2 before annihilation     1.7385,   after     2.0551
 Keep J ints in memory in canonical form, NReq=863305.
 LinEq1:  Iter=  0 NonCon=     1 RMS=3.14D-06 Max=3.12D-05 NDo=     1
 AX will form     1 AO Fock derivatives at one time.
 LinEq1:  Iter=  1 NonCon=     1 RMS=5.56D-07 Max=4.90D-06 NDo=     1
 LinEq1:  Iter=  2 NonCon=     1 RMS=1.36D-07 Max=1.05D-06 NDo=     1
 LinEq1:  Iter=  3 NonCon=     1 RMS=4.05D-08 Max=3.33D-07 NDo=     1
 LinEq1:  Iter=  4 NonCon=     1 RMS=9.58D-09 Max=7.87D-08 NDo=     1
 LinEq1:  Iter=  5 NonCon=     1 RMS=2.32D-09 Max=2.24D-08 NDo=     1
 LinEq1:  Iter=  6 NonCon=     1 RMS=5.49D-10 Max=4.58D-09 NDo=     1
 LinEq1:  Iter=  7 NonCon=     0 RMS=1.25D-10 Max=8.35D-10 NDo=     1
 Linear equations converged to 3.515D-10 3.515D-09 after     7 iterations.
 LinEq1:  Iter=  0 NonCon=     1 RMS=1.32D-06 Max=8.37D-06 NDo=     1
 LinEq1:  Iter=  1 NonCon=     1 RMS=4.65D-07 Max=3.25D-06 NDo=     1
 LinEq1:  Iter=  2 NonCon=     1 RMS=1.33D-07 Max=1.04D-06 NDo=     1
 LinEq1:  Iter=  3 NonCon=     1 RMS=4.14D-08 Max=3.26D-07 NDo=     1
 LinEq1:  Iter=  4 NonCon=     1 RMS=1.16D-08 Max=9.49D-08 NDo=     1
 LinEq1:  Iter=  5 NonCon=     1 RMS=3.23D-09 Max=2.47D-08 NDo=     1
 LinEq1:  Iter=  6 NonCon=     1 RMS=9.09D-10 Max=6.13D-09 NDo=     1
 LinEq1:  Iter=  7 NonCon=     1 RMS=2.22D-10 Max=1.52D-09 NDo=     1
 LinEq1:  Iter=  8 NonCon=     0 RMS=5.57D-11 Max=4.58D-10 NDo=     1
 Linear equations converged to 1.776D-10 1.776D-09 after     8 iterations.
 LinEq1:  Iter=  0 NonCon=     1 RMS=6.51D-07 Max=5.35D-06 NDo=     1
 LinEq1:  Iter=  1 NonCon=     1 RMS=2.14D-07 Max=1.71D-06 NDo=     1
 LinEq1:  Iter=  2 NonCon=     1 RMS=5.46D-08 Max=4.90D-07 NDo=     1
 LinEq1:  Iter=  3 NonCon=     1 RMS=1.85D-08 Max=1.90D-07 NDo=     1
 LinEq1:  Iter=  4 NonCon=     1 RMS=5.00D-09 Max=4.46D-08 NDo=     1
 LinEq1:  Iter=  5 NonCon=     1 RMS=1.33D-09 Max=1.01D-08 NDo=     1
 LinEq1:  Iter=  6 NonCon=     1 RMS=3.38D-10 Max=3.46D-09 NDo=     1
 LinEq1:  Iter=  7 NonCon=     0 RMS=8.12D-11 Max=5.61D-10 NDo=     1
 Linear equations converged to 1.034D-10 1.034D-09 after     7 iterations.
 LinEq1:  Iter=  0 NonCon=     1 RMS=1.81D-07 Max=1.25D-06 NDo=     1
 LinEq1:  Iter=  1 NonCon=     1 RMS=7.83D-08 Max=8.42D-07 NDo=     1
 LinEq1:  Iter=  2 NonCon=     1 RMS=1.66D-08 Max=1.18D-07 NDo=     1
 LinEq1:  Iter=  3 NonCon=     1 RMS=5.58D-09 Max=6.61D-08 NDo=     1
 LinEq1:  Iter=  4 NonCon=     1 RMS=1.66D-09 Max=1.40D-08 NDo=     1
 LinEq1:  Iter=  5 NonCon=     1 RMS=4.73D-10 Max=3.54D-09 NDo=     1
 LinEq1:  Iter=  6 NonCon=     1 RMS=1.21D-10 Max=1.03D-09 NDo=     1
 LinEq1:  Iter=  7 NonCon=     1 RMS=3.39D-11 Max=2.47D-10 NDo=     1
 LinEq1:  Iter=  8 NonCon=     0 RMS=6.13D-12 Max=4.86D-11 NDo=     1
 Linear equations converged to 2.451D-11 2.451D-10 after     8 iterations.
 LinEq1:  Iter=  0 NonCon=     1 RMS=1.12D-07 Max=8.87D-07 NDo=     1
 LinEq1:  Iter=  1 NonCon=     1 RMS=4.27D-08 Max=5.18D-07 NDo=     1
 LinEq1:  Iter=  2 NonCon=     1 RMS=1.13D-08 Max=1.00D-07 NDo=     1
 LinEq1:  Iter=  3 NonCon=     1 RMS=2.11D-09 Max=1.89D-08 NDo=     1
 LinEq1:  Iter=  4 NonCon=     1 RMS=5.81D-10 Max=4.99D-09 NDo=     1
 LinEq1:  Iter=  5 NonCon=     1 RMS=1.80D-10 Max=1.62D-09 NDo=     1
 LinEq1:  Iter=  6 NonCon=     1 RMS=6.02D-11 Max=3.74D-10 NDo=     1
 LinEq1:  Iter=  7 NonCon=     0 RMS=1.43D-11 Max=1.11D-10 NDo=     1
 Linear equations converged to 1.438D-11 1.438D-10 after     7 iterations.
 SCF Done:  E(UAM1) =  0.464693193440     a.u. after    6 cycles
            Convg  =    0.2433D-06                    43 Fock formations.
              S**2 =  1.7376                  -V/T =  1.0051
 <Sx>= 0.0000 <Sy>= 0.0000 <Sz>= 0.5000 <S**2>= 1.7376 S= 0.9098
 <L.S>=  0.00000000000    
 Annihilation of the first spin contaminant:
 S**2 before annihilation     1.7376,   after     2.0515

 **********************************************************************

            Population analysis using the SCF Density.

 **********************************************************************

 Orbital symmetries:
 Alpha Orbitals:
       Occupied  (A') (A') (A') (A') (A') (A') (A') (A') (A') (A")
                 (A') (A") (A') (A') (A') (A") (A') (A') (A') (A")
                 (A") (A')
       Virtual   (A') (A') (A') (A") (A") (A') (A') (A") (A') (A')
                 (A') (A') (A') (A')
 Beta  Orbitals:
       Occupied  (A') (A') (A') (A') (A') (A') (A') (A') (A') (A')
                 (A") (A") (A') (A') (A') (A") (A') (A') (A") (A")
                 (A')
       Virtual   (A') (A") (A') (A") (A') (A') (A') (A") (A') (A')
                 (A') (A') (A') (A') (A')
 The electronic state is 2-A'.
 Alpha  occ. eigenvalues --   -1.25664  -1.23075  -1.19499  -0.94072  -0.91911
 Alpha  occ. eigenvalues --   -0.64093  -0.63787  -0.47388  -0.42566  -0.38013
 Alpha  occ. eigenvalues --   -0.37613  -0.34556  -0.32326  -0.30775  -0.29597
 Alpha  occ. eigenvalues --   -0.28364  -0.26683  -0.24106  -0.20709  -0.19525
 Alpha  occ. eigenvalues --   -0.17852  -0.06664
 Alpha virt. eigenvalues --    0.14909   0.16747   0.16829   0.17634   0.18853
 Alpha virt. eigenvalues --    0.19477   0.20929   0.28084   0.31825   0.31935
 Alpha virt. eigenvalues --    0.34123   0.35192   0.37504   0.40868
  Beta  occ. eigenvalues --   -1.25682  -1.23013  -1.19778  -0.94931  -0.91963
  Beta  occ. eigenvalues --   -0.65782  -0.64075  -0.46875  -0.42778  -0.38033
  Beta  occ. eigenvalues --   -0.37614  -0.34040  -0.33506  -0.31413  -0.29673
  Beta  occ. eigenvalues --   -0.28641  -0.26089  -0.21665  -0.19792  -0.19086
  Beta  occ. eigenvalues --   -0.15692
  Beta virt. eigenvalues --    0.13748   0.16478   0.18332   0.18832   0.19756
  Beta virt. eigenvalues --    0.20978   0.21818   0.27457   0.29726   0.31883
  Beta virt. eigenvalues --    0.31973   0.33894   0.34652   0.37060   0.39133
          Condensed to atoms (all electrons):
               1          2          3          4          5          6
     1  C    4.154144   0.000000   0.000000   0.000000   0.000000   0.000000
     2  C    0.000000   4.054756   0.000000   0.000000   0.000000   0.000000
     3  C    0.000000   0.000000   4.107053   0.000000   0.000000   0.000000
     4  C    0.000000   0.000000   0.000000   4.242955   0.000000   0.000000
     5  C    0.000000   0.000000   0.000000   0.000000   4.107049   0.000000
     6  C    0.000000   0.000000   0.000000   0.000000   0.000000   4.054759
     7  Cl   0.000000   0.000000   0.000000   0.000000   0.000000   0.000000
     8  H    0.000000   0.000000   0.000000   0.000000   0.000000   0.000000
     9  Cl   0.000000   0.000000   0.000000   0.000000   0.000000   0.000000
    10  H    0.000000   0.000000   0.000000   0.000000   0.000000   0.000000
    11  H    0.000000   0.000000   0.000000   0.000000   0.000000   0.000000
    12  H    0.000000   0.000000   0.000000   0.000000   0.000000   0.000000
               7          8          9         10         11         12
     1  C    0.000000   0.000000   0.000000   0.000000   0.000000   0.000000
     2  C    0.000000   0.000000   0.000000   0.000000   0.000000   0.000000
     3  C    0.000000   0.000000   0.000000   0.000000   0.000000   0.000000
     4  C    0.000000   0.000000   0.000000   0.000000   0.000000   0.000000
     5  C    0.000000   0.000000   0.000000   0.000000   0.000000   0.000000
     6  C    0.000000   0.000000   0.000000   0.000000   0.000000   0.000000
     7  Cl   7.130586   0.000000   0.000000   0.000000   0.000000   0.000000
     8  H    0.000000   0.905864   0.000000   0.000000   0.000000   0.000000
     9  Cl   0.000000   0.000000   7.130587   0.000000   0.000000   0.000000
    10  H    0.000000   0.000000   0.000000   0.971016   0.000000   0.000000
    11  H    0.000000   0.000000   0.000000   0.000000   1.170218   0.000000
    12  H    0.000000   0.000000   0.000000   0.000000   0.000000   0.971012
          Atomic-Atomic Spin Densities.
               1          2          3          4          5          6
     1  C   -0.095364   0.000000   0.000000   0.000000   0.000000   0.000000
     2  C    0.000000   0.327859   0.000000   0.000000   0.000000   0.000000
     3  C    0.000000   0.000000  -0.795516   0.000000   0.000000   0.000000
     4  C    0.000000   0.000000   0.000000   0.403216   0.000000   0.000000
     5  C    0.000000   0.000000   0.000000   0.000000  -0.795510   0.000000
     6  C    0.000000   0.000000   0.000000   0.000000   0.000000   0.327859
     7  Cl   0.000000   0.000000   0.000000   0.000000   0.000000   0.000000
     8  H    0.000000   0.000000   0.000000   0.000000   0.000000   0.000000
     9  Cl   0.000000   0.000000   0.000000   0.000000   0.000000   0.000000
    10  H    0.000000   0.000000   0.000000   0.000000   0.000000   0.000000
    11  H    0.000000   0.000000   0.000000   0.000000   0.000000   0.000000
    12  H    0.000000   0.000000   0.000000   0.000000   0.000000   0.000000
               7          8          9         10         11         12
     1  C    0.000000   0.000000   0.000000   0.000000   0.000000   0.000000
     2  C    0.000000   0.000000   0.000000   0.000000   0.000000   0.000000
     3  C    0.000000   0.000000   0.000000   0.000000   0.000000   0.000000
     4  C    0.000000   0.000000   0.000000   0.000000   0.000000   0.000000
     5  C    0.000000   0.000000   0.000000   0.000000   0.000000   0.000000
     6  C    0.000000   0.000000   0.000000   0.000000   0.000000   0.000000
     7  Cl  -0.000485   0.000000   0.000000   0.000000   0.000000   0.000000
     8  H    0.000000  -0.277807   0.000000   0.000000   0.000000   0.000000
     9  Cl   0.000000   0.000000  -0.000484   0.000000   0.000000   0.000000
    10  H    0.000000   0.000000   0.000000   0.578888   0.000000   0.000000
    11  H    0.000000   0.000000   0.000000   0.000000   0.748469   0.000000
    12  H    0.000000   0.000000   0.000000   0.000000   0.000000   0.578875
 Mulliken charges and spin densities:
               1          2
     1  C   -0.154144  -0.095364
     2  C   -0.054756   0.327859
     3  C   -0.107053  -0.795516
     4  C   -0.242955   0.403216
     5  C   -0.107049  -0.795510
     6  C   -0.054759   0.327859
     7  Cl  -0.130586  -0.000485
     8  H    0.094136  -0.277807
     9  Cl  -0.130587  -0.000484
    10  H    0.028984   0.578888
    11  H   -0.170218   0.748469
    12  H    0.028988   0.578875
 Sum of Mulliken charges =  -1.00000   1.00000
 Mulliken charges and spin densities with hydrogens summed into heavy atoms:
               1          2
     1  C   -0.060008  -0.373171
     2  C   -0.054756   0.327859
     3  C   -0.078069  -0.216628
     4  C   -0.413173   1.151685
     5  C   -0.078062  -0.216636
     6  C   -0.054759   0.327859
     7  Cl  -0.130586  -0.000485
     9  Cl  -0.130587  -0.000484
 Charge=             -1.0000 electrons
 Dipole moment (field-independent basis, Debye):
    X=             -0.0001    Y=              7.1186    Z=              0.0000  Tot=              7.1186
 N-N= 1.971144110427D+02 E-N=-2.793929271318D+02  KE=-9.161694707737D+01
 Symmetry A'   KE=-7.118432851556D+01
 Symmetry A"   KE=-2.043261856181D+01
 Symmetry A'   SP= 1.000000000000D+00
 Symmetry A"   SP=-6.106226635438D-16
 Calling FoFJK, ICntrl=      2127 FMM=F ISym2X=1 I1Cent= 0 IOpClX= 1 NMat=1 NMatS=1 NMatT=0.
 ***** Axes restored to original set *****
 -------------------------------------------------------------------
 Center     Atomic                   Forces (Hartrees/Bohr)
 Number     Number              X              Y              Z
 -------------------------------------------------------------------
      1        6          -0.060342473    0.032664143    0.000000000
      2        6           0.002504021    0.013849898    0.000000000
      3        6           0.030549454   -0.018847091    0.000000000
      4        6          -0.008417491    0.004554143    0.000000000
      5        6           0.032493276   -0.015275912    0.000000000
      6        6          -0.010232023   -0.009666422    0.000000000
      7       17           0.020239080    0.015199389    0.000000000
      8        1           0.097091120   -0.052554940   -0.000000000
      9       17          -0.001659236   -0.025259069    0.000000000
     10        1          -0.069198242   -0.041975144   -0.000000000
     11        1          -0.030334485    0.016419953   -0.000000000
     12        1          -0.002693002    0.080891052   -0.000000000
 -------------------------------------------------------------------
 Cartesian Forces:  Max     0.097091120 RMS     0.031417648

 GradGradGradGradGradGradGradGradGradGradGradGradGradGradGradGradGradGrad
 Berny optimization.
 FormGI is forming the generalized inverse of G from B-inverse, IUseBI=4.
 Internal  Forces:  Max     0.110402479 RMS     0.027021617
 Search for a local minimum.
 Step number   1 out of a maximum of   64
 All quantities printed in internal units (Hartrees-Bohrs-Radians)
 Mixed Optimization -- RFO/linear search
 Second derivative matrix not updated -- first step.
 ITU=  0
     Eigenvalues ---    0.02011   0.02011   0.02011   0.02011   0.02011
     Eigenvalues ---    0.02011   0.02011   0.02011   0.02011   0.06524
     Eigenvalues ---    0.06524   0.06524   0.06524   0.16000   0.16000
     Eigenvalues ---    0.16000   0.16000   0.22000   0.23477   0.23492
     Eigenvalues ---    0.25000   0.25000   0.29033   0.29033   0.40781
     Eigenvalues ---    0.40971   0.44656   0.44657   0.44657   0.44657
 RFO step:  Lambda=-1.47734580D-01 EMin= 2.01065826D-02
 Linear search not attempted -- first point.
 Maximum step size (   0.300) exceeded in Quadratic search.
    -- Step size scaled by   0.379
 Iteration  1 RMS(Cart)=  0.04872830 RMS(Int)=  0.00004389
 Iteration  2 RMS(Cart)=  0.00006536 RMS(Int)=  0.00000526
 Iteration  3 RMS(Cart)=  0.00000000 RMS(Int)=  0.00000526
 ClnCor:  largest displacement from symmetrization is 4.10D-11 for atom     8.
 Variable       Old X    -DE/DX   Delta X   Delta X   Delta X     New X
                                 (Linear)    (Quad)   (Total)
    R1        2.65676  -0.03200   0.00000  -0.01983  -0.01984   2.63692
    R2        2.65677  -0.03200   0.00000  -0.01983  -0.01984   2.63692
    R3        3.33635  -0.11040   0.00000  -0.19639  -0.19639   3.13996
    R4        2.65677  -0.02707   0.00000  -0.01725  -0.01725   2.63951
    R5        3.33634  -0.02520   0.00000  -0.02180  -0.02180   3.31454
    R6        2.65677  -0.06005   0.00000  -0.03885  -0.03884   2.61792
    R7        3.33633  -0.08093   0.00000  -0.14397  -0.14397   3.19237
    R8        2.65678  -0.06006   0.00000  -0.03885  -0.03884   2.61793
    R9        3.33633  -0.03449   0.00000  -0.06136  -0.06136   3.27497
   R10        2.65675  -0.02706   0.00000  -0.01725  -0.01725   2.63950
   R11        3.33632  -0.08093   0.00000  -0.14397  -0.14397   3.19235
   R12        3.33633  -0.02520   0.00000  -0.02179  -0.02179   3.31454
    A1        2.09439   0.00138   0.00000   0.00302   0.00301   2.09740
    A2        2.09439  -0.00069   0.00000  -0.00151  -0.00150   2.09289
    A3        2.09440  -0.00069   0.00000  -0.00151  -0.00150   2.09289
    A4        2.09439  -0.01124   0.00000  -0.01009  -0.01010   2.08430
    A5        2.09440   0.00169   0.00000   0.00131   0.00131   2.09571
    A6        2.09439   0.00954   0.00000   0.00878   0.00879   2.10318
    A7        2.09440   0.01266   0.00000   0.01183   0.01184   2.10623
    A8        2.09440  -0.00711   0.00000  -0.00688  -0.00688   2.08751
    A9        2.09439  -0.00554   0.00000  -0.00495  -0.00495   2.08944
   A10        2.09439  -0.00422   0.00000  -0.00650  -0.00648   2.08791
   A11        2.09440   0.00211   0.00000   0.00325   0.00324   2.09764
   A12        2.09440   0.00211   0.00000   0.00325   0.00324   2.09763
   A13        2.09439   0.01266   0.00000   0.01183   0.01184   2.10623
   A14        2.09439  -0.00554   0.00000  -0.00495  -0.00495   2.08944
   A15        2.09440  -0.00711   0.00000  -0.00688  -0.00688   2.08752
   A16        2.09440  -0.01124   0.00000  -0.01009  -0.01010   2.08430
   A17        2.09439   0.00169   0.00000   0.00131   0.00131   2.09571
   A18        2.09439   0.00954   0.00000   0.00878   0.00879   2.10318
    D1        0.00000   0.00000   0.00000   0.00000   0.00000   0.00000
    D2        3.14159   0.00000   0.00000  -0.00000   0.00000   3.14159
    D3        3.14159   0.00000   0.00000   0.00000   0.00000   3.14159
    D4        0.00000   0.00000   0.00000   0.00000   0.00000   0.00000
    D5        0.00000  -0.00000   0.00000  -0.00000   0.00000   0.00000
    D6        3.14159  -0.00000   0.00000   0.00000   0.00000   3.14159
    D7        3.14159  -0.00000   0.00000  -0.00000   0.00000   3.14159
    D8        0.00000  -0.00000   0.00000  -0.00000   0.00000   0.00000
    D9        0.00000  -0.00000   0.00000   0.00000   0.00000   0.00000
   D10        3.14159  -0.00000   0.00000  -0.00000   0.00000   3.14159
   D11        3.14159   0.00000   0.00000   0.00000   0.00000   3.14159
   D12        0.00000  -0.00000   0.00000  -0.00000   0.00000   0.00000
   D13        0.00000  -0.00000   0.00000  -0.00000   0.00000   0.00000
   D14        3.14159  -0.00000   0.00000  -0.00000   0.00000   3.14159
   D15        3.14159   0.00000   0.00000   0.00000   0.00000   3.14159
   D16        0.00000  -0.00000   0.00000  -0.00000   0.00000   0.00000
   D17        0.00000   0.00000   0.00000  -0.00000   0.00000   0.00000
   D18        3.14159  -0.00000   0.00000  -0.00000   0.00000   3.14159
   D19        3.14159   0.00000   0.00000   0.00000   0.00000   3.14159
   D20        0.00000  -0.00000   0.00000  -0.00000   0.00000   0.00000
   D21        0.00000   0.00000   0.00000   0.00000   0.00000   0.00000
   D22        3.14159  -0.00000   0.00000  -0.00000   0.00000   3.14159
   D23        3.14159   0.00000   0.00000   0.00000   0.00000   3.14159
   D24        0.00000   0.00000   0.00000   0.00000   0.00000   0.00000
         Item               Value     Threshold  Converged?
 Maximum Force            0.110402     0.000450     NO 
 RMS     Force            0.027022     0.000300     NO 
 Maximum Displacement     0.190345     0.001800     NO 
 RMS     Displacement     0.048730     0.001200     NO 
 Predicted change in Energy=-5.201509D-02
 GradGradGradGradGradGradGradGradGradGradGradGradGradGradGradGradGradGrad

                          Input orientation:                          
 ---------------------------------------------------------------------
 Center     Atomic      Atomic             Coordinates (Angstroms)
 Number     Number       Type             X           Y           Z
 ---------------------------------------------------------------------
      1          6           0       -3.199949    0.194379    0.000000
      2          6           0       -2.012214    0.926787    0.000000
      3          6           0       -0.789614    0.251351    0.000000
      4          6           0       -0.747082   -1.133342    0.000000
      5          6           0       -1.929703   -1.854873    0.000000
      6          6           0       -3.163725   -1.200551    0.000000
      7         17           0       -4.658236   -2.118635    0.000000
      8          1           0       -4.661204    0.985348    0.000000
      9         17           0       -2.060714    2.680098    0.000000
     10          1           0        0.651151    1.133406    0.000000
     11          1           0        0.777004   -1.958325    0.000000
     12          1           0       -1.880414   -3.543474    0.000000
 ---------------------------------------------------------------------
                    Distance matrix (angstroms):
                    1          2          3          4          5
     1  C    0.000000
     2  C    1.395398   0.000000
     3  C    2.411008   1.396770   0.000000
     4  C    2.789158   2.417581   1.385346   0.000000
     5  C    2.411008   2.782883   2.394990   1.385351   0.000000
     6  C    1.395400   2.418996   2.782880   2.417578   1.396764
     7  Cl   2.734344   4.034356   4.536856   4.033352   2.741252
     8  H    1.661595   2.649637   3.940553   4.450753   3.940552
     9  Cl   2.734347   1.753981   2.741260   4.033356   4.536863
    10  H    3.963931   2.671368   1.689328   2.663308   3.948496
    11  H    4.522200   4.012931   2.708683   1.733042   2.708683
    12  H    3.963927   4.472204   3.948486   2.663302   1.689321
                    6          7          8          9         10
     6  C    0.000000
     7  Cl   1.753978   0.000000
     8  H    2.649641   3.103985   0.000000
     9  Cl   4.034361   5.456644   3.103986   0.000000
    10  H    4.472208   6.226184   5.314418   3.121933   0.000000
    11  H    4.012925   5.437603   6.183795   5.437611   3.094292
    12  H    2.671363   3.121932   5.314417   6.226183   5.318086
                   11         12
    11  H    0.000000
    12  H    3.094280   0.000000
 Stoichiometry    C6H4Cl2(1-,2)
 Framework group  CS[SG(C6H4Cl2)]
 Deg. of freedom    21
 Full point group                 CS      NOp   2
 Largest Abelian subgroup         CS      NOp   2
 Largest concise Abelian subgroup C1      NOp   1
                         Standard orientation:                         
 ---------------------------------------------------------------------
 Center     Atomic      Atomic             Coordinates (Angstroms)
 Number     Number       Type             X           Y           Z
 ---------------------------------------------------------------------
      1          6           0       -0.000000    0.713099    0.000000
      2          6           0        1.209497    0.017217    0.000000
      3          6           0        1.197492   -1.379501    0.000000
      4          6           0       -0.000002   -2.076059    0.000000
      5          6           0       -1.197499   -1.379496    0.000000
      6          6           0       -1.209499    0.017216    0.000000
      7         17           0       -2.728320    0.894498    0.000000
      8          1           0        0.000002    2.374694    0.000000
      9         17           0        2.728324    0.894496    0.000000
     10          1           0        2.659044   -2.226669    0.000000
     11          1           0       -0.000007   -3.809101    0.000000
     12          1           0       -2.659042   -2.226666    0.000000
 ---------------------------------------------------------------------
 Rotational constants (GHZ):           2.6687749           0.8362012           0.6367041
 Standard basis: VSTO-6G (5D, 7F)
 There are    28 symmetry adapted cartesian basis functions of A'  symmetry.
 There are     8 symmetry adapted cartesian basis functions of A"  symmetry.
 There are    28 symmetry adapted basis functions of A'  symmetry.
 There are     8 symmetry adapted basis functions of A"  symmetry.
    36 basis functions,   216 primitive gaussians,    36 cartesian basis functions
    22 alpha electrons       21 beta electrons
       nuclear repulsion energy       198.4251828130 Hartrees.
 Integral buffers will be    131072 words long.
 Regular integral format.
 Two-electron integral symmetry is turned off.
 Do NDO integrals.
 One-electron integrals computed using PRISM.
 NBasis=    36 RedAO= T EigKep=  1.00D+00  NBF=    28     8
 NBsUse=    36 1.00D-06 EigRej= -1.00D+00 NBFU=    28     8
 Initial guess from the checkpoint file:  "geometry_chks/13ClBzAnionRadical.chk"
 B after Tr=     0.000000   -0.000000    0.000000
         Rot=    1.000000    0.000000    0.000000    0.000000 Ang=   0.00 deg.
 Initial guess orbital symmetries:
 Alpha Orbitals:
       Occupied  (A') (A') (A') (A') (A') (A') (A') (A') (A') (A")
                 (A') (A") (A') (A') (A') (A") (A') (A') (A') (A")
                 (A") (A')
       Virtual   (A') (A') (A') (A") (A") (A') (A') (A") (A') (A')
                 (A') (A') (A') (A')
 Beta  Orbitals:
       Occupied  (A') (A') (A') (A') (A') (A') (A') (A') (A') (A')
                 (A") (A") (A') (A') (A') (A") (A') (A') (A") (A")
                 (A')
       Virtual   (A') (A") (A') (A") (A') (A') (A') (A") (A') (A')
                 (A') (A') (A') (A') (A')
 Initial guess <Sx>= 0.0000 <Sy>= 0.0000 <Sz>= 0.5000 <S**2>= 1.7376 S= 0.9098
 Keep J ints in memory in canonical form, NReq=862905.
 Overlap will be assumed to be unity.
 Requested convergence on RMS density matrix=1.00D-08 within  32 cycles.
 Requested convergence on MAX density matrix=1.00D-06.
 Requested convergence on             energy=1.00D-06.
 No special actions if energy rises.
 Fock symm off for IB=2 I1=    1 I=   29 J=   18 Cut=1.00D-07 Err=5.69D-03
 Fock matrix is not symmetric: symmetry in diagonalization turned off.
 SCF Done:  E(UAM1) =  0.405205099787     A.U. after   25 cycles
            NFock= 24  Conv=0.87D-08     -V/T= 1.0044
 <Sx>= 0.0000 <Sy>= 0.0000 <Sz>= 0.5000 <S**2>= 1.2558 S= 0.7271
 <L.S>=  0.00000000000    
 Annihilation of the first spin contaminant:
 S**2 before annihilation     1.2558,   after     1.0526
 QCSCF skips out because SCF is already converged.
 Calling FoFJK, ICntrl=      2127 FMM=F ISym2X=1 I1Cent= 0 IOpClX= 1 NMat=1 NMatS=1 NMatT=0.
 ***** Axes restored to original set *****
 -------------------------------------------------------------------
 Center     Atomic                   Forces (Hartrees/Bohr)
 Number     Number              X              Y              Z
 -------------------------------------------------------------------
      1        6          -0.089194964    0.048280896    0.000000000
      2        6           0.003708707    0.019766338    0.000000000
      3        6           0.066904696    0.024823458    0.000000000
      4        6           0.018009349   -0.009750634   -0.000000000
      5        6           0.015806589   -0.069593047    0.000000000
      6        6          -0.014525715   -0.013910199    0.000000000
      7       17           0.014731519    0.011560686   -0.000000000
      8        1           0.106494171   -0.057644805   -0.000000000
      9       17          -0.001624267   -0.018657412   -0.000000000
     10        1          -0.090816437   -0.055000683   -0.000000000
     11        1          -0.025885657    0.014011807   -0.000000000
     12        1          -0.003607991    0.106113596   -0.000000000
 -------------------------------------------------------------------
 Cartesian Forces:  Max     0.106494171 RMS     0.040987187

 GradGradGradGradGradGradGradGradGradGradGradGradGradGradGradGradGradGrad
 Berny optimization.
 Using GEDIIS/GDIIS optimizer.
 FormGI is forming the generalized inverse of G from B-inverse, IUseBI=4.
 Internal  Forces:  Max     0.121094723 RMS     0.027626719
 Search for a local minimum.
 Step number   2 out of a maximum of   64
 All quantities printed in internal units (Hartrees-Bohrs-Radians)
 Mixed Optimization -- RFO/linear search
 Update second derivatives using D2CorX and points    1    2
 DE= -5.95D-02 DEPred=-5.20D-02 R= 1.14D+00
 TightC=F SS=  1.41D+00  RLast= 3.00D-01 DXNew= 5.0454D-01 9.0000D-01
 Trust test= 1.14D+00 RLast= 3.00D-01 DXMaxT set to 5.05D-01
 ITU=  1  0
 Use linear search instead of GDIIS.
     Eigenvalues ---   -0.86491   0.01256   0.02011   0.02011   0.02011
     Eigenvalues ---    0.02011   0.02011   0.02011   0.02011   0.02011
     Eigenvalues ---    0.02011   0.06524   0.06524   0.09693   0.16000
     Eigenvalues ---    0.16000   0.16000   0.16000   0.21995   0.23462
     Eigenvalues ---    0.23773   0.25000   0.25007   0.29033   0.29640
     Eigenvalues ---    0.40900   0.41089   0.44656   0.44657   0.44657
 RFO step:  Lambda=-8.69732144D-01 EMin=-8.64909425D-01
 I=     1 Eig=   -8.65D-01 Dot1=  3.79D-02
 I=     1 Stepn=  6.00D-01 RXN=   6.00D-01 EDone=F
 Mixed    1 eigenvectors in step.  Raw Step.Grad=  3.79D-02.
 RFO eigenvector is Hessian eigenvector with negative curvature.
 Taking step of  6.00D-01 in eigenvector direction(s).  Step.Grad=  1.71D-02.
 Skip linear search -- no minimum in search direction.
 Maximum step size (   0.505) exceeded in Quadratic search.
    -- Step size not scaled.
 Iteration  1 RMS(Cart)=  0.07316707 RMS(Int)=  0.01525146
 Iteration  2 RMS(Cart)=  0.01606871 RMS(Int)=  0.00038406
 Iteration  3 RMS(Cart)=  0.00011109 RMS(Int)=  0.00037460
 Iteration  4 RMS(Cart)=  0.00000002 RMS(Int)=  0.00037460
 ClnCor:  largest displacement from symmetrization is 7.80D-09 for atom    11.
 Variable       Old X    -DE/DX   Delta X   Delta X   Delta X     New X
                                 (Linear)    (Quad)   (Total)
    R1        2.63692  -0.01301   0.00000   0.14369   0.14314   2.78006
    R2        2.63692  -0.01301   0.00000   0.14369   0.14314   2.78006
    R3        3.13996  -0.12109   0.00000  -0.09239  -0.09239   3.04757
    R4        2.63951  -0.01104   0.00000   0.12253   0.12252   2.76203
    R5        3.31454  -0.01861   0.00000   0.06051   0.06051   3.37506
    R6        2.61792  -0.02525   0.00000   0.26797   0.26852   2.88644
    R7        3.19237  -0.10617   0.00000  -0.24465  -0.24465   2.94772
    R8        2.61793  -0.02525   0.00000   0.26797   0.26852   2.88646
    R9        3.27497  -0.02943   0.00000   0.05654   0.05654   3.33151
   R10        2.63950  -0.01104   0.00000   0.12252   0.12250   2.76200
   R11        3.19235  -0.10617   0.00000  -0.24465  -0.24465   2.94770
   R12        3.31454  -0.01860   0.00000   0.06051   0.06051   3.37505
    A1        2.09740   0.00190   0.00000   0.00079  -0.00039   2.09701
    A2        2.09289  -0.00095   0.00000  -0.00040   0.00020   2.09309
    A3        2.09289  -0.00095   0.00000  -0.00040   0.00020   2.09309
    A4        2.08430  -0.00726   0.00000   0.03509   0.03450   2.11880
    A5        2.09571   0.00008   0.00000  -0.01335  -0.01305   2.08266
    A6        2.10318   0.00717   0.00000  -0.02175  -0.02145   2.08173
    A7        2.10623   0.00992   0.00000  -0.02491  -0.02433   2.08191
    A8        2.08751  -0.00577   0.00000   0.01235   0.01206   2.09958
    A9        2.08944  -0.00414   0.00000   0.01255   0.01226   2.10170
   A10        2.08791  -0.00722   0.00000  -0.02117  -0.01997   2.06795
   A11        2.09764   0.00361   0.00000   0.01059   0.00998   2.10762
   A12        2.09763   0.00361   0.00000   0.01059   0.00998   2.10762
   A13        2.10623   0.00992   0.00000  -0.02491  -0.02432   2.08191
   A14        2.08944  -0.00414   0.00000   0.01255   0.01226   2.10170
   A15        2.08752  -0.00577   0.00000   0.01235   0.01206   2.09958
   A16        2.08430  -0.00726   0.00000   0.03510   0.03451   2.11881
   A17        2.09571   0.00008   0.00000  -0.01335  -0.01305   2.08265
   A18        2.10318   0.00717   0.00000  -0.02175  -0.02145   2.08172
    D1        0.00000   0.00000   0.00000   0.00000   0.00000   0.00000
    D2        3.14159  -0.00000   0.00000  -0.00000   0.00000   3.14159
    D3        3.14159   0.00000   0.00000   0.00000   0.00000   3.14159
    D4        0.00000   0.00000   0.00000  -0.00000   0.00000   0.00000
    D5        0.00000  -0.00000   0.00000  -0.00000   0.00000   0.00000
    D6        3.14159   0.00000   0.00000   0.00000   0.00000   3.14159
    D7        3.14159  -0.00000   0.00000  -0.00000   0.00000   3.14159
    D8        0.00000  -0.00000   0.00000   0.00000   0.00000   0.00000
    D9        0.00000  -0.00000   0.00000  -0.00000   0.00000   0.00000
   D10        3.14159  -0.00000   0.00000  -0.00000   0.00000   3.14159
   D11        3.14159   0.00000   0.00000   0.00000   0.00000   3.14159
   D12        0.00000   0.00000   0.00000   0.00000   0.00000   0.00000
   D13        0.00000  -0.00000   0.00000  -0.00000   0.00000   0.00000
   D14        3.14159  -0.00000   0.00000   0.00000   0.00000   3.14159
   D15        3.14159   0.00000   0.00000   0.00000   0.00000   3.14159
   D16        0.00000   0.00000   0.00000   0.00000   0.00000   0.00000
   D17        0.00000   0.00000   0.00000   0.00000   0.00000   0.00000
   D18        3.14159  -0.00000   0.00000  -0.00000   0.00000   3.14159
   D19        3.14159   0.00000   0.00000   0.00000   0.00000   3.14159
   D20        0.00000  -0.00000   0.00000  -0.00000   0.00000   0.00000
   D21        0.00000   0.00000   0.00000  -0.00000   0.00000   0.00000
   D22        3.14159  -0.00000   0.00000  -0.00000   0.00000   3.14159
   D23        3.14159   0.00000   0.00000   0.00000   0.00000   3.14159
   D24        0.00000   0.00000   0.00000  -0.00000   0.00000   0.00000
         Item               Value     Threshold  Converged?
 Maximum Force            0.121095     0.000450     NO 
 RMS     Force            0.027627     0.000300     NO 
 Maximum Displacement     0.256264     0.001800     NO 
 RMS     Displacement     0.085449     0.001200     NO 
 Predicted change in Energy=-1.935618D-01
 GradGradGradGradGradGradGradGradGradGradGradGradGradGradGradGradGradGrad

                          Input orientation:                          
 ---------------------------------------------------------------------
 Center     Atomic      Atomic             Coordinates (Angstroms)
 Number     Number       Type             X           Y           Z
 ---------------------------------------------------------------------
      1          6           0       -3.255110    0.224236    0.000000
      2          6           0       -2.002752    0.996160    0.000000
      3          6           0       -0.699913    0.333671    0.000000
      4          6           0       -0.637782   -1.192506    0.000000
      5          6           0       -1.949583   -1.974985    0.000000
      6          6           0       -3.216630   -1.246404    0.000000
      7         17           0       -4.750313   -2.161611    0.000000
      8          1           0       -4.673373    0.991930    0.000000
      9         17           0       -2.075085    2.780698    0.000000
     10          1           0        0.611994    1.177517    0.000000
     11          1           0        0.912613   -2.031733    0.000000
     12          1           0       -1.938766   -3.534804    0.000000
 ---------------------------------------------------------------------
                    Distance matrix (angstroms):
                    1          2          3          4          5
     1  C    0.000000
     2  C    1.471145   0.000000
     3  C    2.557539   1.461602   0.000000
     4  C    2.976166   2.579419   1.527440   0.000000
     5  C    2.557533   2.971621   2.625179   1.527447   0.000000
     6  C    1.471144   2.550019   2.971616   2.579411   1.461588
     7  Cl   2.815652   4.185762   4.757328   4.225172   2.806942
     8  H    1.612706   2.670624   4.027615   4.588872   4.027607
     9  Cl   2.815663   1.786003   2.806963   4.225185   4.757339
    10  H    3.982868   2.621028   1.559864   2.679355   4.062012
    11  H    4.739126   4.203271   2.862756   1.762960   2.862758
    12  H    3.982857   4.531416   4.062001   2.679351   1.559857
                    6          7          8          9         10
     6  C    0.000000
     7  Cl   1.785997   0.000000
     8  H    2.670625   3.154479   0.000000
     9  Cl   4.185771   5.619899   3.154487   0.000000
    10  H    4.531419   6.316970   5.288624   3.128991   0.000000
    11  H    4.203260   5.664415   6.351832   5.664436   3.223299
    12  H    2.621014   3.128971   5.288610   6.316973   5.358390
                   11         12
    11  H    0.000000
    12  H    3.223288   0.000000
 Stoichiometry    C6H4Cl2(1-,2)
 Framework group  CS[SG(C6H4Cl2)]
 Deg. of freedom    21
 Full point group                 CS      NOp   2
 Largest Abelian subgroup         CS      NOp   2
 Largest concise Abelian subgroup C1      NOp   1
                         Standard orientation:                         
 ---------------------------------------------------------------------
 Center     Atomic      Atomic             Coordinates (Angstroms)
 Number     Number       Type             X           Y           Z
 ---------------------------------------------------------------------
      1          6           0        0.000000    0.755836    0.000000
      2          6           0        1.275009    0.021930    0.000000
      3          6           0        1.312581   -1.439189    0.000000
      4          6           0       -0.000009   -2.220330    0.000000
      5          6           0       -1.312597   -1.439173    0.000000
      6          6           0       -1.275010    0.021932    0.000000
      7         17           0       -2.809944    0.935038    0.000000
      8          1           0        0.000003    2.368543    0.000000
      9         17           0        2.809955    0.935029    0.000000
     10          1           0        2.679188   -2.191228    0.000000
     11          1           0       -0.000023   -3.983290    0.000000
     12          1           0       -2.679202   -2.191201    0.000000
 ---------------------------------------------------------------------
 Rotational constants (GHZ):           2.4321542           0.7810525           0.5911976
 Standard basis: VSTO-6G (5D, 7F)
 There are    28 symmetry adapted cartesian basis functions of A'  symmetry.
 There are     8 symmetry adapted cartesian basis functions of A"  symmetry.
 There are    28 symmetry adapted basis functions of A'  symmetry.
 There are     8 symmetry adapted basis functions of A"  symmetry.
    36 basis functions,   216 primitive gaussians,    36 cartesian basis functions
    22 alpha electrons       21 beta electrons
       nuclear repulsion energy       193.7566076031 Hartrees.
 Integral buffers will be    131072 words long.
 Regular integral format.
 Two-electron integral symmetry is turned off.
 Do NDO integrals.
 One-electron integrals computed using PRISM.
 NBasis=    36 RedAO= T EigKep=  1.00D+00  NBF=    28     8
 NBsUse=    36 1.00D-06 EigRej= -1.00D+00 NBFU=    28     8
 Initial guess from the checkpoint file:  "geometry_chks/13ClBzAnionRadical.chk"
 B after Tr=    -0.000000    0.000000    0.000000
         Rot=    1.000000    0.000000   -0.000000    0.000001 Ang=   0.00 deg.
 Initial guess orbital symmetries:
 Alpha Orbitals:
       Occupied  (A') (A') (A') (A') (A') (A') (A') (A') (A') (A")
                 (A') (A") (A') (A') (A') (A") (A') (A') (A') (A")
                 (A") (A')
       Virtual   (A') (A') (A') (A") (A") (A') (A') (A") (A') (A')
                 (A') (A') (A') (A')
 Beta  Orbitals:
       Occupied  (A') (A') (A') (A') (A') (A') (A') (A') (A') (A')
                 (A") (A') (A") (A') (A') (A") (A') (A') (A") (A")
                 (A')
       Virtual   (A') (A") (A') (A") (A') (A') (A') (A") (A') (A')
                 (A') (A') (A') (A') (A')
 Initial guess <Sx>= 0.0000 <Sy>= 0.0000 <Sz>= 0.5000 <S**2>= 1.2558 S= 0.7271
 Keep J ints in memory in canonical form, NReq=862905.
 Overlap will be assumed to be unity.
 Requested convergence on RMS density matrix=1.00D-08 within  32 cycles.
 Requested convergence on MAX density matrix=1.00D-06.
 Requested convergence on             energy=1.00D-06.
 No special actions if energy rises.
 Fock symm off for IB=2 I1=    1 I=   29 J=   18 Cut=1.00D-07 Err=1.13D-02
 Fock matrix is not symmetric: symmetry in diagonalization turned off.
 SCF Done:  E(UAM1) =  0.413193920978     A.U. after   25 cycles
            NFock= 24  Conv=0.84D-08     -V/T= 1.0045
 <Sx>= 0.0000 <Sy>= 0.0000 <Sz>= 0.5000 <S**2>= 1.5407 S= 0.8382
 <L.S>=  0.00000000000    
 Annihilation of the first spin contaminant:
 S**2 before annihilation     1.5407,   after     1.3991
 QCSCF skips out because SCF is already converged.
 Calling FoFJK, ICntrl=      2127 FMM=F ISym2X=1 I1Cent= 0 IOpClX= 1 NMat=1 NMatS=1 NMatT=0.
 ***** Axes restored to original set *****
 -------------------------------------------------------------------
 Center     Atomic                   Forces (Hartrees/Bohr)
 Number     Number              X              Y              Z
 -------------------------------------------------------------------
      1        6          -0.024202536    0.013103870    0.000000000
      2        6           0.004351417   -0.044528732    0.000000000
      3        6           0.008164022   -0.022440786    0.000000000
      4        6          -0.055937580    0.030278805   -0.000000000
      5        6           0.023261232    0.005432010    0.000000000
      6        6           0.039656054    0.020706458    0.000000000
      7       17           0.029681641    0.021474015    0.000000000
      8        1           0.107402983   -0.058136457   -0.000000000
      9       17          -0.001749365   -0.036597164    0.000000000
     10        1          -0.105392856   -0.067925500   -0.000000000
     11        1          -0.024478797    0.013250344   -0.000000000
     12        1          -0.000756215    0.125383137   -0.000000000
 -------------------------------------------------------------------
 Cartesian Forces:  Max     0.125383137 RMS     0.040744746

 GradGradGradGradGradGradGradGradGradGradGradGradGradGradGradGradGradGrad
 Berny optimization.
 Using GEDIIS/GDIIS optimizer.
 FormGI is forming the generalized inverse of G from B-inverse, IUseBI=4.
 Internal  Forces:  Max     0.125385465 RMS     0.045932045
 Search for a local minimum.
 Step number   3 out of a maximum of   64
 All quantities printed in internal units (Hartrees-Bohrs-Radians)
 Mixed Optimization -- RFO/linear search
 Update second derivatives using D2CorX and points    1    3    2
 ITU=  0  1  0
 Use linear search instead of GDIIS.
     Eigenvalues ---    0.00886   0.02011   0.02011   0.02011   0.02011
     Eigenvalues ---    0.02011   0.02011   0.02011   0.02011   0.02011
     Eigenvalues ---    0.06409   0.06524   0.06671   0.15995   0.16000
     Eigenvalues ---    0.16000   0.16000   0.21975   0.22381   0.23523
     Eigenvalues ---    0.24987   0.25000   0.28496   0.29033   0.35317
     Eigenvalues ---    0.41301   0.43988   0.44656   0.44657   0.65838
 RFO step:  Lambda=-1.98094288D-01 EMin= 8.86492688D-03
 Quartic linear search produced a step of -0.60902.
 Maximum step size (   0.505) exceeded in Quadratic search.
    -- Step size scaled by   0.550
 Iteration  1 RMS(Cart)=  0.09623797 RMS(Int)=  0.00999944
 Iteration  2 RMS(Cart)=  0.00960818 RMS(Int)=  0.00006389
 Iteration  3 RMS(Cart)=  0.00000021 RMS(Int)=  0.00006389
 ClnCor:  largest displacement from symmetrization is 2.36D-09 for atom     8.
 Variable       Old X    -DE/DX   Delta X   Delta X   Delta X     New X
                                 (Linear)    (Quad)   (Total)
    R1        2.78006  -0.09813  -0.08718  -0.01385  -0.10093   2.67913
    R2        2.78006  -0.09813  -0.08717  -0.01385  -0.10093   2.67913
    R3        3.04757  -0.12213   0.05627  -0.32964  -0.27338   2.77420
    R4        2.76203  -0.08859  -0.07461  -0.01227  -0.08688   2.67515
    R5        3.37506  -0.03650  -0.03685  -0.03945  -0.07631   3.29875
    R6        2.88644  -0.11779  -0.16353  -0.03565  -0.19929   2.68716
    R7        2.94772  -0.12539   0.14900  -0.25203  -0.10303   2.84468
    R8        2.88646  -0.11779  -0.16354  -0.03566  -0.19929   2.68716
    R9        3.33151  -0.02783  -0.03443  -0.09667  -0.13111   3.20041
   R10        2.76200  -0.08858  -0.07461  -0.01226  -0.08686   2.67514
   R11        2.94770  -0.12539   0.14900  -0.25204  -0.10304   2.84467
   R12        3.37505  -0.03649  -0.03685  -0.03945  -0.07630   3.29875
    A1        2.09701  -0.00529   0.00024   0.00811   0.00855   2.10556
    A2        2.09309   0.00265  -0.00012  -0.00406  -0.00427   2.08881
    A3        2.09309   0.00265  -0.00012  -0.00406  -0.00428   2.08881
    A4        2.11880  -0.00540  -0.02101  -0.01737  -0.03828   2.08052
    A5        2.08266  -0.00275   0.00795   0.00089   0.00879   2.09145
    A6        2.08173   0.00815   0.01306   0.01648   0.02949   2.11122
    A7        2.08191   0.01616   0.01482   0.02199   0.03670   2.11861
    A8        2.09958  -0.00791  -0.00735  -0.01316  -0.02046   2.07912
    A9        2.10170  -0.00825  -0.00747  -0.00882  -0.01624   2.08546
   A10        2.06795  -0.01624   0.01216  -0.01735  -0.00539   2.06255
   A11        2.10762   0.00812  -0.00608   0.00868   0.00270   2.11032
   A12        2.10762   0.00812  -0.00608   0.00868   0.00270   2.11031
   A13        2.08191   0.01616   0.01481   0.02199   0.03670   2.11861
   A14        2.10170  -0.00825  -0.00747  -0.00882  -0.01624   2.08546
   A15        2.09958  -0.00791  -0.00735  -0.01316  -0.02046   2.07912
   A16        2.11881  -0.00540  -0.02101  -0.01737  -0.03828   2.08053
   A17        2.08265  -0.00275   0.00795   0.00089   0.00879   2.09144
   A18        2.08172   0.00815   0.01307   0.01648   0.02949   2.11122
    D1        0.00000   0.00000   0.00000   0.00000   0.00000   0.00000
    D2        3.14159  -0.00000   0.00000  -0.00000   0.00000   3.14159
    D3        3.14159   0.00000   0.00000   0.00000   0.00000   3.14159
    D4        0.00000   0.00000   0.00000   0.00000   0.00000   0.00000
    D5        0.00000  -0.00000   0.00000  -0.00000   0.00000   0.00000
    D6        3.14159   0.00000   0.00000  -0.00000   0.00000   3.14159
    D7        3.14159  -0.00000   0.00000  -0.00000   0.00000   3.14159
    D8        0.00000  -0.00000   0.00000  -0.00000   0.00000   0.00000
    D9        0.00000   0.00000   0.00000  -0.00000   0.00000   0.00000
   D10        3.14159  -0.00000   0.00000  -0.00000   0.00000   3.14159
   D11        3.14159   0.00000   0.00000   0.00000   0.00000   3.14159
   D12        0.00000  -0.00000   0.00000  -0.00000   0.00000   0.00000
   D13        0.00000  -0.00000   0.00000  -0.00000   0.00000   0.00000
   D14        3.14159  -0.00000   0.00000  -0.00000   0.00000   3.14159
   D15        3.14159   0.00000   0.00000   0.00000   0.00000   3.14159
   D16        0.00000   0.00000   0.00000  -0.00000   0.00000   0.00000
   D17        0.00000   0.00000   0.00000   0.00000   0.00000   0.00000
   D18        3.14159  -0.00000   0.00000  -0.00000   0.00000   3.14159
   D19        3.14159   0.00000   0.00000   0.00000   0.00000   3.14159
   D20        0.00000  -0.00000   0.00000  -0.00000   0.00000   0.00000
   D21        0.00000   0.00000   0.00000   0.00000   0.00000   0.00000
   D22        3.14159  -0.00000   0.00000  -0.00000   0.00000   3.14159
   D23        3.14159   0.00000   0.00000   0.00000   0.00000   3.14159
   D24        0.00000   0.00000   0.00000   0.00000   0.00000   0.00000
         Item               Value     Threshold  Converged?
 Maximum Force            0.125385     0.000450     NO 
 RMS     Force            0.045932     0.000300     NO 
 Maximum Displacement     0.320798     0.001800     NO 
 RMS     Displacement     0.100953     0.001200     NO 
 Predicted change in Energy=-1.108322D-01
 GradGradGradGradGradGradGradGradGradGradGradGradGradGradGradGradGradGrad

                          Input orientation:                          
 ---------------------------------------------------------------------
 Center     Atomic      Atomic             Coordinates (Angstroms)
 Number     Number       Type             X           Y           Z
 ---------------------------------------------------------------------
      1          6           0       -3.212575    0.201213    0.000000
      2          6           0       -2.008875    0.950263    0.000000
      3          6           0       -0.769561    0.266085    0.000000
      4          6           0       -0.707885   -1.154560    0.000000
      5          6           0       -1.931074   -1.879719    0.000000
      6          6           0       -3.181555   -1.216182    0.000000
      7         17           0       -4.676515   -2.117451    0.000000
      8          1           0       -4.503613    0.900044    0.000000
      9         17           0       -2.071700    2.694754    0.000000
     10          1           0        0.507403    1.063217    0.000000
     11          1           0        0.781498   -1.960759    0.000000
     12          1           0       -1.900248   -3.384735    0.000000
 ---------------------------------------------------------------------
                    Distance matrix (angstroms):
                    1          2          3          4          5
     1  C    0.000000
     2  C    1.417734   0.000000
     3  C    2.443876   1.415627   0.000000
     4  C    2.848086   2.474440   1.421983   0.000000
     5  C    2.443875   2.831051   2.439997   1.421986   0.000000
     6  C    1.417734   2.463465   2.831048   2.474437   1.415622
     7  Cl   2.742139   4.065362   4.576629   4.083770   2.755715
     8  H    1.468041   2.495244   3.787486   4.316126   3.787485
     9  Cl   2.742143   1.745623   2.755721   4.083774   4.576635
    10  H    3.818545   2.518812   1.505342   2.528925   3.821916
    11  H    4.541667   4.032397   2.713783   1.693582   2.713781
    12  H    3.818538   4.336359   3.821903   2.528915   1.505332
                    6          7          8          9         10
     6  C    0.000000
     7  Cl   1.745621   0.000000
     8  H    2.495246   3.022445   0.000000
     9  Cl   4.065366   5.471964   3.022448   0.000000
    10  H    4.336366   6.081912   5.013672   3.051833   0.000000
    11  H    4.032391   5.460261   6.009708   5.460269   3.036372
    12  H    2.518804   3.051830   5.013666   6.081907   5.057772
                   11         12
    11  H    0.000000
    12  H    3.036358   0.000000
 Stoichiometry    C6H4Cl2(1-,2)
 Framework group  CS[SG(C6H4Cl2)]
 Deg. of freedom    21
 Full point group                 CS      NOp   2
 Largest Abelian subgroup         CS      NOp   2
 Largest concise Abelian subgroup C1      NOp   1
                         Standard orientation:                         
 ---------------------------------------------------------------------
 Center     Atomic      Atomic             Coordinates (Angstroms)
 Number     Number       Type             X           Y           Z
 ---------------------------------------------------------------------
      1          6           0        0.000000    0.722625    0.000000
      2          6           0        1.231732    0.020624    0.000000
      3          6           0        1.219995   -1.394954    0.000000
      4          6           0       -0.000003   -2.125461    0.000000
      5          6           0       -1.220002   -1.394950    0.000000
      6          6           0       -1.231733    0.020624    0.000000
      7         17           0       -2.735980    0.906306    0.000000
      8          1           0        0.000002    2.190665    0.000000
      9         17           0        2.735984    0.906301    0.000000
     10          1           0        2.528888   -2.138497    0.000000
     11          1           0       -0.000010   -3.819043    0.000000
     12          1           0       -2.528885   -2.138489    0.000000
 ---------------------------------------------------------------------
 Rotational constants (GHZ):           2.6186651           0.8304648           0.6305095
 Standard basis: VSTO-6G (5D, 7F)
 There are    28 symmetry adapted cartesian basis functions of A'  symmetry.
 There are     8 symmetry adapted cartesian basis functions of A"  symmetry.
 There are    28 symmetry adapted basis functions of A'  symmetry.
 There are     8 symmetry adapted basis functions of A"  symmetry.
    36 basis functions,   216 primitive gaussians,    36 cartesian basis functions
    22 alpha electrons       21 beta electrons
       nuclear repulsion energy       198.2231022685 Hartrees.
 Integral buffers will be    131072 words long.
 Regular integral format.
 Two-electron integral symmetry is turned off.
 Do NDO integrals.
 One-electron integrals computed using PRISM.
 NBasis=    36 RedAO= T EigKep=  1.00D+00  NBF=    28     8
 NBsUse=    36 1.00D-06 EigRej= -1.00D+00 NBFU=    28     8
 Lowest energy guess from the checkpoint file:  "geometry_chks/13ClBzAnionRadical.chk"
 B after Tr=    -0.000000   -0.000000    0.000000
         Rot=    1.000000    0.000000    0.000000    0.000000 Ang=   0.00 deg.
 B after Tr=     0.000000   -0.000000    0.000000
         Rot=    1.000000   -0.000000   -0.000000   -0.000001 Ang=  -0.00 deg.
 Initial guess orbital symmetries:
 Alpha Orbitals:
       Occupied  (A') (A') (A") (A") (A') (A") (A') (A') (A') (A')
                 (A') (A') (A') (A') (A") (A") (A") (A") (A") (A")
                 (A") (A")
       Virtual   (A') (A') (A") (A") (A') (A") (A') (A') (A') (A')
                 (A') (A') (A') (A')
 Beta  Orbitals:
       Occupied  (A") (A') (A") (A') (A') (A") (A') (A') (A') (A')
                 (A') (A') (A') (A') (A') (A") (A") (A") (A") (A")
                 (A")
       Virtual   (A") (A') (A") (A') (A') (A") (A') (A') (A') (A')
                 (A') (A') (A') (A') (A')
 Initial guess <Sx>= 0.0000 <Sy>= 0.0000 <Sz>= 0.5000 <S**2>= 1.3200 S= 0.7530
 Keep J ints in memory in canonical form, NReq=862905.
 Overlap will be assumed to be unity.
 Requested convergence on RMS density matrix=1.00D-08 within  32 cycles.
 Requested convergence on MAX density matrix=1.00D-06.
 Requested convergence on             energy=1.00D-06.
 No special actions if energy rises.
 An orbital has undefined symmetry, so N**3 symmetry is turned off.
 SCF Done:  E(UAM1) =  0.283757823371     A.U. after   23 cycles
            NFock= 22  Conv=0.64D-08     -V/T= 1.0031
 <Sx>= 0.0000 <Sy>= 0.0000 <Sz>= 0.5000 <S**2>= 1.0016 S= 0.6187
 <L.S>=  0.00000000000    
 Annihilation of the first spin contaminant:
 S**2 before annihilation     1.0016,   after     0.7999
 QCSCF skips out because SCF is already converged.
 Calling FoFJK, ICntrl=      2127 FMM=F ISym2X=1 I1Cent= 0 IOpClX= 1 NMat=1 NMatS=1 NMatT=0.
 ***** Axes restored to original set *****
 -------------------------------------------------------------------
 Center     Atomic                   Forces (Hartrees/Bohr)
 Number     Number              X              Y              Z
 -------------------------------------------------------------------
      1        6          -0.072468648    0.039227881    0.000000000
      2        6           0.002326767   -0.019123575    0.000000000
      3        6           0.061400613    0.026196326   -0.000000000
      4        6          -0.009083716    0.004916256   -0.000000000
      5        6           0.011644867   -0.065733133    0.000000000
      6        6           0.017280907    0.008509821   -0.000000000
      7       17           0.013571970    0.010117746   -0.000000000
      8        1           0.103693312   -0.056128635   -0.000000000
      9       17          -0.001050187   -0.016897218    0.000000000
     10        1          -0.102188634   -0.063908408   -0.000000000
     11        1          -0.022759239    0.012319519   -0.000000000
     12        1          -0.002368012    0.120503420   -0.000000000
 -------------------------------------------------------------------
 Cartesian Forces:  Max     0.120503420 RMS     0.041079620

 GradGradGradGradGradGradGradGradGradGradGradGradGradGradGradGradGradGrad
 Berny optimization.
 Using GEDIIS/GDIIS optimizer.
 FormGI is forming the generalized inverse of G from B-inverse, IUseBI=4.
 Internal  Forces:  Max     0.120527140 RMS     0.032010452
 Search for a local minimum.
 Step number   4 out of a maximum of   64
 All quantities printed in internal units (Hartrees-Bohrs-Radians)
 Mixed Optimization -- RFO/linear search
 Update second derivatives using D2CorX and points    3    2    4
 DE= -1.21D-01 DEPred=-1.11D-01 R= 1.10D+00
 TightC=F SS=  1.41D+00  RLast= 6.32D-01 DXNew= 8.4853D-01 1.8951D+00
 Trust test= 1.10D+00 RLast= 6.32D-01 DXMaxT set to 8.49D-01
 ITU=  1  0  1  0
 Use linear search instead of GDIIS.
     Eigenvalues ---   -5.61860   0.00010   0.02011   0.02011   0.02011
     Eigenvalues ---    0.02011   0.02011   0.02011   0.02011   0.02011
     Eigenvalues ---    0.02011   0.05435   0.06524   0.06616   0.16000
     Eigenvalues ---    0.16000   0.16000   0.16008   0.22068   0.22788
     Eigenvalues ---    0.23463   0.25000   0.25015   0.28609   0.29033
     Eigenvalues ---    0.37624   0.40997   0.44127   0.44656   0.44657
 RFO step:  Lambda=-5.62202762D+00 EMin=-5.61860471D+00
 I=     1 Eig=   -5.62D+00 Dot1=  8.32D-02
 I=     1 Stepn=  6.00D-01 RXN=   6.00D-01 EDone=F
 Mixed    1 eigenvectors in step.  Raw Step.Grad=  8.32D-02.
 RFO eigenvector is Hessian eigenvector with negative curvature.
 Taking step of  6.00D-01 in eigenvector direction(s).  Step.Grad=  7.79D-02.
 Skip linear search -- no minimum in search direction.
 Iteration  1 RMS(Cart)=  0.10478667 RMS(Int)=  0.01014896
 Iteration  2 RMS(Cart)=  0.01431556 RMS(Int)=  0.00016168
 Iteration  3 RMS(Cart)=  0.00004118 RMS(Int)=  0.00015799
 Iteration  4 RMS(Cart)=  0.00000001 RMS(Int)=  0.00015799
 ClnCor:  largest displacement from symmetrization is 1.27D-08 for atom     8.
 Variable       Old X    -DE/DX   Delta X   Delta X   Delta X     New X
                                 (Linear)    (Quad)   (Total)
    R1        2.67913  -0.04071   0.00000  -0.24335  -0.24310   2.43603
    R2        2.67913  -0.04071   0.00000  -0.24334  -0.24309   2.43604
    R3        2.77420  -0.11791   0.00000   0.02890   0.02890   2.80310
    R4        2.67515  -0.03597   0.00000  -0.21816  -0.21816   2.45699
    R5        3.29875  -0.01685   0.00000   0.01469   0.01469   3.31344
    R6        2.68716  -0.04955   0.00000  -0.21957  -0.21983   2.46733
    R7        2.84468  -0.12053   0.00000  -0.12841  -0.12841   2.71628
    R8        2.68716  -0.04955   0.00000  -0.21956  -0.21982   2.46735
    R9        3.20041  -0.02588   0.00000   0.03048   0.03048   3.23089
   R10        2.67514  -0.03597   0.00000  -0.21817  -0.21817   2.45697
   R11        2.84467  -0.12053   0.00000  -0.12838  -0.12838   2.71628
   R12        3.29875  -0.01685   0.00000   0.01469   0.01469   3.31343
    A1        2.10556  -0.00452   0.00000  -0.05841  -0.05791   2.04765
    A2        2.08881   0.00226   0.00000   0.02920   0.02896   2.11777
    A3        2.08881   0.00226   0.00000   0.02920   0.02896   2.11777
    A4        2.08052  -0.00140   0.00000   0.05110   0.05134   2.13186
    A5        2.09145  -0.00204   0.00000  -0.01821  -0.01833   2.07312
    A6        2.11122   0.00343   0.00000  -0.03289  -0.03301   2.07821
    A7        2.11861   0.00752   0.00000  -0.02088  -0.02112   2.09749
    A8        2.07912  -0.00362   0.00000   0.01914   0.01926   2.09838
    A9        2.08546  -0.00390   0.00000   0.00174   0.00186   2.08732
   A10        2.06255  -0.00773   0.00000  -0.00204  -0.00253   2.06002
   A11        2.11032   0.00387   0.00000   0.00102   0.00127   2.11158
   A12        2.11031   0.00387   0.00000   0.00102   0.00127   2.11158
   A13        2.11861   0.00752   0.00000  -0.02088  -0.02112   2.09749
   A14        2.08546  -0.00390   0.00000   0.00174   0.00186   2.08732
   A15        2.07912  -0.00362   0.00000   0.01914   0.01926   2.09838
   A16        2.08053  -0.00140   0.00000   0.05110   0.05134   2.13187
   A17        2.09144  -0.00204   0.00000  -0.01821  -0.01833   2.07311
   A18        2.11122   0.00343   0.00000  -0.03289  -0.03301   2.07821
    D1        0.00000   0.00000   0.00000  -0.00000   0.00000   0.00000
    D2        3.14159  -0.00000   0.00000  -0.00000   0.00000   3.14159
    D3        3.14159   0.00000   0.00000   0.00000   0.00000   3.14159
    D4        0.00000   0.00000   0.00000   0.00000   0.00000   0.00000
    D5        0.00000   0.00000   0.00000   0.00000   0.00000   0.00000
    D6        3.14159   0.00000   0.00000   0.00000   0.00000   3.14159
    D7        3.14159  -0.00000   0.00000   0.00000   0.00000   3.14159
    D8        0.00000  -0.00000   0.00000   0.00000   0.00000   0.00000
    D9        0.00000  -0.00000   0.00000  -0.00000   0.00000   0.00000
   D10        3.14159  -0.00000   0.00000   0.00000   0.00000   3.14159
   D11        3.14159   0.00000   0.00000  -0.00000   0.00000   3.14159
   D12        0.00000   0.00000   0.00000  -0.00000   0.00000   0.00000
   D13        0.00000   0.00000   0.00000   0.00000   0.00000   0.00000
   D14        3.14159   0.00000   0.00000   0.00000   0.00000   3.14159
   D15        3.14159   0.00000   0.00000   0.00000   0.00000   3.14159
   D16        0.00000   0.00000   0.00000   0.00000   0.00000   0.00000
   D17        0.00000   0.00000   0.00000   0.00000   0.00000   0.00000
   D18        3.14159  -0.00000   0.00000  -0.00000   0.00000   3.14159
   D19        3.14159   0.00000   0.00000  -0.00000   0.00000   3.14159
   D20        0.00000  -0.00000   0.00000  -0.00000   0.00000   0.00000
   D21        0.00000  -0.00000   0.00000  -0.00000   0.00000   0.00000
   D22        3.14159  -0.00000   0.00000  -0.00000   0.00000   3.14159
   D23        3.14159   0.00000   0.00000  -0.00000   0.00000   3.14159
   D24        0.00000   0.00000   0.00000   0.00000   0.00000   0.00000
         Item               Value     Threshold  Converged?
 Maximum Force            0.120527     0.000450     NO 
 RMS     Force            0.032010     0.000300     NO 
 Maximum Displacement     0.339682     0.001800     NO 
 RMS     Displacement     0.117182     0.001200     NO 
 Predicted change in Energy=-1.094529D+00
 GradGradGradGradGradGradGradGradGradGradGradGradGradGradGradGradGradGrad

                          Input orientation:                          
 ---------------------------------------------------------------------
 Center     Atomic      Atomic             Coordinates (Angstroms)
 Number     Number       Type             X           Y           Z
 ---------------------------------------------------------------------
      1          6           0       -3.126463    0.154603    0.000000
      2          6           0       -2.012723    0.803712    0.000000
      3          6           0       -0.860695    0.200965    0.000000
      4          6           0       -0.802415   -1.103388    0.000000
      5          6           0       -1.926385   -1.767806    0.000000
      6          6           0       -3.060955   -1.132829    0.000000
      7         17           0       -4.552868   -2.054017    0.000000
      8          1           0       -4.430951    0.860715    0.000000
      9         17           0       -2.057205    2.556546    0.000000
     10          1           0        0.356244    0.965918    0.000000
     11          1           0        0.701154   -1.917265    0.000000
     12          1           0       -1.901439   -3.204983    0.000000
 ---------------------------------------------------------------------
                    Distance matrix (angstroms):
                    1          2          3          4          5
     1  C    0.000000
     2  C    1.289092   0.000000
     3  C    2.266242   1.300182   0.000000
     4  C    2.642677   2.258734   1.305654   0.000000
[...]
   A16        2.10974   0.00001  -0.00000   0.00006   0.00005   2.10979
   A17        2.13000  -0.00004  -0.00006  -0.00017  -0.00023   2.12977
   A18        2.04344   0.00003   0.00006   0.00012   0.00018   2.04362
    D1        0.00000   0.00000   0.00000   0.00000  -0.00000   0.00000
    D2        3.14159  -0.00000   0.00000  -0.00000   0.00000   3.14159
    D3        3.14159   0.00000   0.00000   0.00000   0.00000   3.14159
    D4       -0.00000   0.00000   0.00000   0.00000   0.00000   0.00000
    D5        0.00000   0.00000   0.00000   0.00000   0.00000   0.00000
    D6        3.14159   0.00000   0.00000   0.00000   0.00000   3.14159
    D7        3.14159  -0.00000   0.00000  -0.00000   0.00000   3.14159
    D8       -0.00000  -0.00000   0.00000  -0.00000   0.00000   0.00000
    D9       -0.00000  -0.00000   0.00000  -0.00000   0.00000   0.00000
   D10        3.14159  -0.00000   0.00000  -0.00000   0.00000   3.14159
   D11        3.14159   0.00000   0.00000   0.00000   0.00000   3.14159
   D12        0.00000  -0.00000   0.00000  -0.00000   0.00000   0.00000
   D13       -0.00000   0.00000   0.00000   0.00000   0.00000   0.00000
   D14        3.14159  -0.00000   0.00000  -0.00000   0.00000   3.14159
   D15        3.14159   0.00000   0.00000   0.00000   0.00000   3.14159
   D16       -0.00000   0.00000   0.00000   0.00000   0.00000   0.00000
   D17        0.00000   0.00000   0.00000   0.00000   0.00000   0.00000
   D18        3.14159  -0.00000   0.00000  -0.00000   0.00000   3.14159
   D19        3.14159   0.00000   0.00000   0.00000   0.00000   3.14159
   D20       -0.00000  -0.00000   0.00000  -0.00000   0.00000   0.00000
   D21       -0.00000  -0.00000   0.00000  -0.00000   0.00000   0.00000
   D22        3.14159  -0.00000   0.00000  -0.00000   0.00000   3.14159
   D23        3.14159   0.00000   0.00000   0.00000   0.00000   3.14159
   D24        0.00000   0.00000   0.00000  -0.00000   0.00000   0.00000
         Item               Value     Threshold  Converged?
 Maximum Force            0.000042     0.000450     YES
 RMS     Force            0.000012     0.000300     YES
 Maximum Displacement     0.000566     0.001800     YES
 RMS     Displacement     0.000119     0.001200     YES
 Predicted change in Energy=-2.007867D-08
 Optimization completed.
    -- Stationary point found.
                           ----------------------------
                           !   Optimized Parameters   !
                           ! (Angstroms and Degrees)  !
 --------------------------                            --------------------------
 ! Name  Definition              Value          Derivative Info.                !
 --------------------------------------------------------------------------------
 ! R1    R(1,2)                  1.3964         -DE/DX =    0.0                 !
 ! R2    R(1,6)                  1.3964         -DE/DX =    0.0                 !
 ! R3    R(1,8)                  1.097          -DE/DX =    0.0                 !
 ! R4    R(2,3)                  1.4014         -DE/DX =    0.0                 !
 ! R5    R(2,9)                  1.8121         -DE/DX =    0.0                 !
 ! R6    R(3,4)                  1.3989         -DE/DX =    0.0                 !
 ! R7    R(3,10)                 1.0972         -DE/DX =    0.0                 !
 ! R8    R(4,5)                  1.3989         -DE/DX =    0.0                 !
 ! R9    R(4,11)                 1.0989         -DE/DX =    0.0                 !
 ! R10   R(5,6)                  1.4014         -DE/DX =    0.0                 !
 ! R11   R(5,12)                 1.0972         -DE/DX =    0.0                 !
 ! R12   R(6,7)                  1.8121         -DE/DX =    0.0                 !
 ! A1    A(2,1,6)              119.0127         -DE/DX =    0.0                 !
 ! A2    A(2,1,8)              120.4937         -DE/DX =    0.0                 !
 ! A3    A(6,1,8)              120.4937         -DE/DX =    0.0                 !
 ! A4    A(1,2,3)              120.8794         -DE/DX =    0.0                 !
 ! A5    A(1,2,9)              122.0403         -DE/DX =    0.0                 !
 ! A6    A(3,2,9)              117.0804         -DE/DX =    0.0                 !
 ! A7    A(2,3,4)              119.5144         -DE/DX =    0.0                 !
 ! A8    A(2,3,10)             120.271          -DE/DX =    0.0                 !
 ! A9    A(4,3,10)             120.2146         -DE/DX =    0.0                 !
 ! A10   A(3,4,5)              120.1998         -DE/DX =    0.0                 !
 ! A11   A(3,4,11)             119.9001         -DE/DX =    0.0                 !
 ! A12   A(5,4,11)             119.9001         -DE/DX =    0.0                 !
 ! A13   A(4,5,6)              119.5144         -DE/DX =    0.0                 !
 ! A14   A(4,5,12)             120.2145         -DE/DX =    0.0                 !
 ! A15   A(6,5,12)             120.271          -DE/DX =    0.0                 !
 ! A16   A(1,6,5)              120.8793         -DE/DX =    0.0                 !
 ! A17   A(1,6,7)              122.0403         -DE/DX =    0.0                 !
 ! A18   A(5,6,7)              117.0804         -DE/DX =    0.0                 !
 ! D1    D(6,1,2,3)              0.0            -DE/DX =    0.0                 !
 ! D2    D(6,1,2,9)            180.0            -DE/DX =    0.0                 !
 ! D3    D(8,1,2,3)            180.0            -DE/DX =    0.0                 !
 ! D4    D(8,1,2,9)              0.0            -DE/DX =    0.0                 !
 ! D5    D(2,1,6,5)              0.0            -DE/DX =    0.0                 !
 ! D6    D(2,1,6,7)            180.0            -DE/DX =    0.0                 !
 ! D7    D(8,1,6,5)            180.0            -DE/DX =    0.0                 !
 ! D8    D(8,1,6,7)              0.0            -DE/DX =    0.0                 !
 ! D9    D(1,2,3,4)              0.0            -DE/DX =    0.0                 !
 ! D10   D(1,2,3,10)           180.0            -DE/DX =    0.0                 !
 ! D11   D(9,2,3,4)            180.0            -DE/DX =    0.0                 !
 ! D12   D(9,2,3,10)             0.0            -DE/DX =    0.0                 !
 ! D13   D(2,3,4,5)              0.0            -DE/DX =    0.0                 !
 ! D14   D(2,3,4,11)           180.0            -DE/DX =    0.0                 !
 ! D15   D(10,3,4,5)           180.0            -DE/DX =    0.0                 !
 ! D16   D(10,3,4,11)            0.0            -DE/DX =    0.0                 !
 ! D17   D(3,4,5,6)              0.0            -DE/DX =    0.0                 !
 ! D18   D(3,4,5,12)           180.0            -DE/DX =    0.0                 !
 ! D19   D(11,4,5,6)           180.0            -DE/DX =    0.0                 !
 ! D20   D(11,4,5,12)            0.0            -DE/DX =    0.0                 !
 ! D21   D(4,5,6,1)              0.0            -DE/DX =    0.0                 !
 ! D22   D(4,5,6,7)            180.0            -DE/DX =    0.0                 !
 ! D23   D(12,5,6,1)           180.0            -DE/DX =    0.0                 !
 ! D24   D(12,5,6,7)             0.0            -DE/DX =    0.0                 !
 --------------------------------------------------------------------------------
 GradGradGradGradGradGradGradGradGradGradGradGradGradGradGradGradGradGrad

                          Input orientation:                          
 ---------------------------------------------------------------------
 Center     Atomic      Atomic             Coordinates (Angstroms)
 Number     Number       Type             X           Y           Z
 ---------------------------------------------------------------------
      1          6           0       -3.168398    0.177301    0.000000
      2          6           0       -1.972416    0.898191    0.000000
      3          6           0       -0.735504    0.239385    0.000000
      4          6           0       -0.699526   -1.159084    0.000000
      5          6           0       -1.890093   -1.893632   -0.000000
      6          6           0       -3.118024   -1.218234   -0.000000
      7         17           0       -4.618405   -2.234355   -0.000000
      8          1           0       -4.133173    0.699528    0.000000
      9         17           0       -1.942045    2.710020    0.000000
     10          1           0        0.198149    0.815756    0.000000
     11          1           0        0.266892   -1.682200    0.000000
     12          1           0       -1.862157   -2.990506   -0.000000
 ---------------------------------------------------------------------
                    Distance matrix (angstroms):
                    1          2          3          4          5
     1  C    0.000000
     2  C    1.396444   0.000000
     3  C    2.433686   1.401420   0.000000
     4  C    2.807357   2.419221   1.398932   0.000000
     5  C    2.433686   2.793037   2.425457   1.398932   0.000000
     6  C    1.396444   2.406590   2.793037   2.419221   1.401420
     7  Cl   2.814002   4.100501   4.603946   4.063720   2.749505
     8  H    1.097047   2.169870   3.428686   3.904404   3.428686
     9  Cl   2.814002   1.812083   2.749505   4.063720   4.603945
    10  H    3.426552   2.172130   1.097228   2.169289   3.420751
    11  H    3.906272   3.416566   2.167323   1.098916   2.167323
    12  H    3.426553   3.890260   3.420752   2.169289   1.097229
                    6          7          8          9         10
     6  C    0.000000
     7  Cl   1.812083   0.000000
     8  H    2.169870   2.973738   0.000000
     9  Cl   4.100501   5.622255   2.973738   0.000000
    10  H    3.890259   5.701085   4.332881   2.858088   0.000000
    11  H    3.416566   4.916402   5.003319   4.916402   2.498902
    12  H    2.172131   2.858089   4.332882   5.701086   4.328104
                   11         12
    11  H    0.000000
    12  H    2.498902   0.000000
 Stoichiometry    C6H4Cl2(1-,2)
 Framework group  CS[SG(C6H4Cl2)]
 Deg. of freedom    21
 Full point group                 CS      NOp   2
 Largest Abelian subgroup         CS      NOp   2
 Largest concise Abelian subgroup C1      NOp   1
                         Standard orientation:                         
 ---------------------------------------------------------------------
 Center     Atomic      Atomic             Coordinates (Angstroms)
 Number     Number       Type             X           Y           Z
 ---------------------------------------------------------------------
      1          6           0        0.736038    0.000000   -0.000000
      2          6           0        0.027422   -1.203295   -0.000000
      3          6           0       -1.373966   -1.212728   -0.000000
      4          6           0       -2.071318   -0.000000    0.000000
      5          6           0       -1.373966    1.212728    0.000000
      6          6           0        0.027422    1.203295    0.000000
      7         17           0        0.863197    2.811128    0.000000
      8          1           0        1.833085    0.000000   -0.000000
      9         17           0        0.863197   -2.811127   -0.000000
     10          1           0       -1.920677   -2.164052   -0.000000
     11          1           0       -3.170234   -0.000000    0.000000
     12          1           0       -1.920678    2.164052    0.000000
 ---------------------------------------------------------------------
 Rotational constants (GHZ):           2.8705758           0.7994416           0.6252989

 **********************************************************************

            Population analysis using the SCF Density.

 **********************************************************************

 Orbital symmetries:
 Alpha Orbitals:
       Occupied  (A') (A') (A') (A') (A') (A') (A') (A') (A') (A')
                 (A') (A') (A") (A') (A') (A") (A") (A') (A') (A")
                 (A") (A')
       Virtual   (A') (A") (A") (A") (A') (A') (A') (A') (A') (A')
                 (A') (A') (A') (A')
 Beta  Orbitals:
       Occupied  (A') (A') (A') (A') (A') (A') (A') (A') (A') (A')
                 (A') (A') (A") (A') (A') (A") (A") (A') (A') (A")
                 (A")
       Virtual   (A") (A") (A') (A') (A") (A') (A') (A') (A') (A')
                 (A') (A') (A') (A') (A')
 The electronic state is 2-A'.
 Alpha  occ. eigenvalues --   -1.27207  -1.15214  -1.14233  -0.98957  -0.96804
 Alpha  occ. eigenvalues --   -0.69389  -0.68023  -0.50008  -0.43949  -0.42024
 Alpha  occ. eigenvalues --   -0.37546  -0.37198  -0.35360  -0.29540  -0.29481
 Alpha  occ. eigenvalues --   -0.28725  -0.26113  -0.24872  -0.24515  -0.19395
 Alpha  occ. eigenvalues --   -0.17946  -0.02259
 Alpha virt. eigenvalues --    0.14661   0.17862   0.17875   0.26288   0.28387
 Alpha virt. eigenvalues --    0.30092   0.31084   0.31906   0.33347   0.33672
 Alpha virt. eigenvalues --    0.35056   0.36088   0.36964   0.37342
  Beta  occ. eigenvalues --   -1.26862  -1.13144  -1.12245  -0.98585  -0.96545
  Beta  occ. eigenvalues --   -0.69140  -0.66373  -0.49606  -0.42574  -0.41732
  Beta  occ. eigenvalues --   -0.36686  -0.36397  -0.34804  -0.28837  -0.28612
  Beta  occ. eigenvalues --   -0.27463  -0.25346  -0.24287  -0.23805  -0.19538
  Beta  occ. eigenvalues --   -0.18785
  Beta virt. eigenvalues --    0.17863   0.19738   0.25108   0.26576   0.27006
  Beta virt. eigenvalues --    0.29044   0.29560   0.30899   0.31878   0.33418
  Beta virt. eigenvalues --    0.34195   0.35173   0.36565   0.37724   0.38029
          Condensed to atoms (all electrons):
               1          2          3          4          5          6
     1  C    4.142080   0.000000   0.000000   0.000000   0.000000   0.000000
     2  C    0.000000   4.046002   0.000000   0.000000   0.000000   0.000000
     3  C    0.000000   0.000000   4.184753   0.000000   0.000000   0.000000
     4  C    0.000000   0.000000   0.000000   4.147879   0.000000   0.000000
     5  C    0.000000   0.000000   0.000000   0.000000   4.184753   0.000000
     6  C    0.000000   0.000000   0.000000   0.000000   0.000000   4.046002
     7  Cl   0.000000   0.000000   0.000000   0.000000   0.000000   0.000000
     8  H    0.000000   0.000000   0.000000   0.000000   0.000000   0.000000
     9  Cl   0.000000   0.000000   0.000000   0.000000   0.000000   0.000000
    10  H    0.000000   0.000000   0.000000   0.000000   0.000000   0.000000
    11  H    0.000000   0.000000   0.000000   0.000000   0.000000   0.000000
    12  H    0.000000   0.000000   0.000000   0.000000   0.000000   0.000000
               7          8          9         10         11         12
     1  C    0.000000   0.000000   0.000000   0.000000   0.000000   0.000000
     2  C    0.000000   0.000000   0.000000   0.000000   0.000000   0.000000
     3  C    0.000000   0.000000   0.000000   0.000000   0.000000   0.000000
     4  C    0.000000   0.000000   0.000000   0.000000   0.000000   0.000000
     5  C    0.000000   0.000000   0.000000   0.000000   0.000000   0.000000
     6  C    0.000000   0.000000   0.000000   0.000000   0.000000   0.000000
     7  Cl   7.343889   0.000000   0.000000   0.000000   0.000000   0.000000
     8  H    0.000000   0.875801   0.000000   0.000000   0.000000   0.000000
     9  Cl   0.000000   0.000000   7.343889   0.000000   0.000000   0.000000
    10  H    0.000000   0.000000   0.000000   0.887250   0.000000   0.000000
    11  H    0.000000   0.000000   0.000000   0.000000   0.910451   0.000000
    12  H    0.000000   0.000000   0.000000   0.000000   0.000000   0.887250
          Atomic-Atomic Spin Densities.
               1          2          3          4          5          6
     1  C   -0.413238   0.000000   0.000000   0.000000   0.000000   0.000000
     2  C    0.000000   0.636324   0.000000   0.000000   0.000000   0.000000
     3  C    0.000000   0.000000  -0.408588   0.000000   0.000000   0.000000
     4  C    0.000000   0.000000   0.000000   0.395501   0.000000   0.000000
     5  C    0.000000   0.000000   0.000000   0.000000  -0.408588   0.000000
     6  C    0.000000   0.000000   0.000000   0.000000   0.000000   0.636324
     7  Cl   0.000000   0.000000   0.000000   0.000000   0.000000   0.000000
     8  H    0.000000   0.000000   0.000000   0.000000   0.000000   0.000000
     9  Cl   0.000000   0.000000   0.000000   0.000000   0.000000   0.000000
    10  H    0.000000   0.000000   0.000000   0.000000   0.000000   0.000000
    11  H    0.000000   0.000000   0.000000   0.000000   0.000000   0.000000
    12  H    0.000000   0.000000   0.000000   0.000000   0.000000   0.000000
               7          8          9         10         11         12
     1  C    0.000000   0.000000   0.000000   0.000000   0.000000   0.000000
     2  C    0.000000   0.000000   0.000000   0.000000   0.000000   0.000000
     3  C    0.000000   0.000000   0.000000   0.000000   0.000000   0.000000
     4  C    0.000000   0.000000   0.000000   0.000000   0.000000   0.000000
     5  C    0.000000   0.000000   0.000000   0.000000   0.000000   0.000000
     6  C    0.000000   0.000000   0.000000   0.000000   0.000000   0.000000
     7  Cl   0.253321   0.000000   0.000000   0.000000   0.000000   0.000000
     8  H    0.000000   0.028809   0.000000   0.000000   0.000000   0.000000
     9  Cl   0.000000   0.000000   0.253321   0.000000   0.000000   0.000000
    10  H    0.000000   0.000000   0.000000   0.021373   0.000000   0.000000
    11  H    0.000000   0.000000   0.000000   0.000000  -0.015934   0.000000
    12  H    0.000000   0.000000   0.000000   0.000000   0.000000   0.021373
 Mulliken charges and spin densities:
               1          2
     1  C   -0.142080  -0.413238
     2  C   -0.046002   0.636324
     3  C   -0.184753  -0.408588
     4  C   -0.147879   0.395501
     5  C   -0.184753  -0.408588
     6  C   -0.046002   0.636324
     7  Cl  -0.343889   0.253321
     8  H    0.124199   0.028809
     9  Cl  -0.343889   0.253321
    10  H    0.112750   0.021373
    11  H    0.089549  -0.015934
    12  H    0.112750   0.021373
 Sum of Mulliken charges =  -1.00000   1.00000
 Mulliken charges and spin densities with hydrogens summed into heavy atoms:
               1          2
     1  C   -0.017881  -0.384429
     2  C   -0.046002   0.636324
     3  C   -0.072003  -0.387215
     4  C   -0.058330   0.379567
     5  C   -0.072003  -0.387215
     6  C   -0.046002   0.636324
     7  Cl  -0.343889   0.253321
     9  Cl  -0.343889   0.253321
 Charge=             -1.0000 electrons
 Dipole moment (field-independent basis, Debye):
    X=             -2.4930    Y=              0.0000    Z=              0.0000  Tot=              2.4930
 N-N= 2.014493928589D+02 E-N=-2.868379661710D+02  KE=-9.342051205283D+01
 Symmetry A'   KE=-7.300507813089D+01
 Symmetry A"   KE=-2.041543392193D+01
 Symmetry A'   SP= 1.000000000000D+00
 Symmetry A"   SP=-3.441691376338D-15
 1\1\GINC-SH02-01N19\FOpt\UAM1\ZDO\C6H4Cl2(1-,2)\JLAPIER\09-Dec-2025\0\
 \# opt am1 SCF=XQC\\2-Chloro-Benzene Anion Radical (13)\\-1,2\C,-3.168
 3976362,0.1773008251,0.\C,-1.9724161588,0.8981913779,0.\C,-0.735503709
 8,0.239385248,0.\C,-0.6995261759,-1.1590839522,0.\C,-1.8900929029,-1.8
 936321093,0.\C,-3.1180242459,-1.2182340033,0.\Cl,-4.6184052327,-2.2343
 552794,0.\H,-4.1331731017,0.6995278713,0.\Cl,-1.9420452347,2.710020092
 2,0.\H,0.198148617,0.8157561018,0.\H,0.2668923127,-1.6822003577,0.\H,-
 1.862156531,-2.9905058146,0.\\Version=ES64L-G16RevB.01\State=2-A'\HF=0
 .0195344\S2=1.132816\S2-1=0.\S2A=0.873292\RMSD=9.642e-09\RMSF=2.150e-0
 5\Dipole=0.8625697,-0.4669046,0.\PG=CS [SG(C6H4Cl2)]\\@


 ABSOLUTISM, OBSOLETISM -- IF IT WORKS, IT'S OUT OF DATE

                          -- STAFFORD BEER
 Job cpu time:       0 days  0 hours  0 minutes 16.7 seconds.
 Elapsed time:       0 days  0 hours  0 minutes 41.1 seconds.
 File lengths (MBytes):  RWF=     10 Int=      0 D2E=      0 Chk=      2 Scr=      1
 Normal termination of Gaussian 16 at Tue Dec  9 09:59:29 2025.
