 Entering Gaussian System, Link 0=g16
 Initial command:
 /share/software/user/restricted/gaussian/g16.B01/l1.exe "/home/users/jlapier/Chloroaromatics/Gau-11914.inp" -scrdir="/home/users/jlapier/Chloroaromatics/"
 Entering Link 1 = /share/software/user/restricted/gaussian/g16.B01/l1.exe PID=     11915.
  
 Copyright (c) 1988-2017, Gaussian, Inc.  All Rights Reserved.
  
 This is part of the Gaussian(R) 16 program.  It is based on
 the Gaussian(R) 09 system (copyright 2009, Gaussian, Inc.),
 the Gaussian(R) 03 system (copyright 2003, Gaussian, Inc.),
 the Gaussian(R) 98 system (copyright 1998, Gaussian, Inc.),
 the Gaussian(R) 94 system (copyright 1995, Gaussian, Inc.),
 the Gaussian 92(TM) system (copyright 1992, Gaussian, Inc.),
 the Gaussian 90(TM) system (copyright 1990, Gaussian, Inc.),
 the Gaussian 88(TM) system (copyright 1988, Gaussian, Inc.),
 the Gaussian 86(TM) system (copyright 1986, Carnegie Mellon
 University), and the Gaussian 82(TM) system (copyright 1983,
 Carnegie Mellon University). Gaussian is a federally registered
 trademark of Gaussian, Inc.
  
 This software contains proprietary and confidential information,
 including trade secrets, belonging to Gaussian, Inc.
  
 This software is provided under written license and may be
 used, copied, transmitted, or stored only in accord with that
 written license.
  
 The following legend is applicable only to US Government
 contracts under FAR:
  
                    RESTRICTED RIGHTS LEGEND
  
 Use, reproduction and disclosure by the US Government is
 subject to restrictions as set forth in subparagraphs (a)
 and (c) of the Commercial Computer Software - Restricted
 Rights clause in FAR 52.227-19.
  
 Gaussian, Inc.
 340 Quinnipiac St., Bldg. 40, Wallingford CT 06492
  
  
 ---------------------------------------------------------------
 Warning -- This program may not be used in any manner that
 competes with the business of Gaussian, Inc. or will provide
 assistance to any competitor of Gaussian, Inc.  The licensee
 of this program is prohibited from giving any competitor of
 Gaussian, Inc. access to this program.  By using this program,
 the user acknowledges that Gaussian, Inc. is engaged in the
 business of creating and licensing software in the field of
 computational chemistry and represents and warrants to the
 licensee that it is not a competitor of Gaussian, Inc. and that
 it will not use this program in any manner prohibited above.
 ---------------------------------------------------------------
  

 Cite this work as:
 Gaussian 16, Revision B.01,
 M. J. Frisch, G. W. Trucks, H. B. Schlegel, G. E. Scuseria, 
 M. A. Robb, J. R. Cheeseman, G. Scalmani, V. Barone, 
 G. A. Petersson, H. Nakatsuji, X. Li, M. Caricato, A. V. Marenich, 
 J. Bloino, B. G. Janesko, R. Gomperts, B. Mennucci, H. P. Hratchian, 
 J. V. Ortiz, A. F. Izmaylov, J. L. Sonnenberg, D. Williams-Young, 
 F. Ding, F. Lipparini, F. Egidi, J. Goings, B. Peng, A. Petrone, 
 T. Henderson, D. Ranasinghe, V. G. Zakrzewski, J. Gao, N. Rega, 
 G. Zheng, W. Liang, M. Hada, M. Ehara, K. Toyota, R. Fukuda, 
 J. Hasegawa, M. Ishida, T. Nakajima, Y. Honda, O. Kitao, H. Nakai, 
 T. Vreven, K. Throssell, J. A. Montgomery, Jr., J. E. Peralta, 
 F. Ogliaro, M. J. Bearpark, J. J. Heyd, E. N. Brothers, K. N. Kudin, 
 V. N. Staroverov, T. A. Keith, R. Kobayashi, J. Normand, 
 K. Raghavachari, A. P. Rendell, J. C. Burant, S. S. Iyengar, 
 J. Tomasi, M. Cossi, J. M. Millam, M. Klene, C. Adamo, R. Cammi, 
 J. W. Ochterski, R. L. Martin, K. Morokuma, O. Farkas, 
 J. B. Foresman, and D. J. Fox, Gaussian, Inc., Wallingford CT, 2016.
 
 ******************************************
 Gaussian 16:  ES64L-G16RevB.01 20-Dec-2017
                10-Dec-2025 
 ******************************************
 %mem=2GB
 %nprocshare=1
 Will use up to    1 processors via shared memory.
 %chk=geometry_chks/14-1_-ClBzNeutralRadical.chk
 -----------------
 # opt am1 SCF=XQC
 -----------------
 1/18=20,19=15,26=1,38=1/1,3;
 2/9=110,12=2,17=6,18=5,40=1/2;
 3/5=2,25=1,41=700000,71=1/1,2,3;
 4/35=1/1;
 5/5=2,8=3,13=1,35=1,38=5/2,8;
 6/7=2,8=2,9=2,10=2,28=1/1;
 7//1,2,3,16;
 1/18=20,19=15,26=1/3(2);
 2/9=110/2;
 99//99;
 2/9=110/2;
 3/5=2,25=1,41=700000,71=1,135=20/1,2,3;
 4/5=5,16=3,35=1/1;
 5/5=2,8=3,13=1,35=1,38=5/2,8;
 7//1,2,3,16;
 1/18=20,19=15,26=1/3(-5);
 2/9=110/2;
 6/7=2,8=2,9=2,10=2,19=2,28=1/1;
 99/9=1/99;
 ------------------------------
 Neutral Radical (removed 4) 1_
 ------------------------------
 Symbolic Z-matrix:
 Charge =  0 Multiplicity = 2
 C                    -3.20928   0.19943   0. 
 C                    -2.0115    0.93555   0. 
 C                    -0.77511   0.2663    0. 
 C                    -0.7365   -1.13907   0. 
 C                    -1.93429  -1.87519   0. 
 C                    -3.17067  -1.20594   0. 
 Cl                   -4.67483  -2.13035   0. 
 H                    -4.76193   1.03987   0. 
 H                    -2.05998   2.7004    0. 
 H                     0.81614  -1.97951   0. 
 H                    -1.8858   -3.64003   0. 
 
 Add virtual bond connecting atoms H11        and C5         Dist= 3.34D+00.
 Add virtual bond connecting atoms H10        and C4         Dist= 3.34D+00.
 Add virtual bond connecting atoms H9         and C2         Dist= 3.34D+00.
 Add virtual bond connecting atoms H8         and C1         Dist= 3.34D+00.

 GradGradGradGradGradGradGradGradGradGradGradGradGradGradGradGradGradGrad
 Berny optimization.
 Initialization pass.
                           ----------------------------
                           !    Initial Parameters    !
                           ! (Angstroms and Degrees)  !
 --------------------------                            --------------------------
 ! Name  Definition              Value          Derivative Info.                !
 --------------------------------------------------------------------------------
 ! R1    R(1,2)                  1.4059         estimate D2E/DX2                !
 ! R2    R(1,6)                  1.4059         estimate D2E/DX2                !
 ! R3    R(1,8)                  1.7655         estimate D2E/DX2                !
 ! R4    R(2,3)                  1.4059         estimate D2E/DX2                !
 ! R5    R(2,9)                  1.7655         estimate D2E/DX2                !
 ! R6    R(3,4)                  1.4059         estimate D2E/DX2                !
 ! R7    R(4,5)                  1.4059         estimate D2E/DX2                !
 ! R8    R(4,10)                 1.7655         estimate D2E/DX2                !
 ! R9    R(5,6)                  1.4059         estimate D2E/DX2                !
 ! R10   R(5,11)                 1.7655         estimate D2E/DX2                !
 ! R11   R(6,7)                  1.7655         estimate D2E/DX2                !
 ! A1    A(2,1,6)              119.9999         estimate D2E/DX2                !
 ! A2    A(2,1,8)              119.9999         estimate D2E/DX2                !
 ! A3    A(6,1,8)              120.0001         estimate D2E/DX2                !
 ! A4    A(1,2,3)              120.0            estimate D2E/DX2                !
 ! A5    A(1,2,9)              120.0001         estimate D2E/DX2                !
 ! A6    A(3,2,9)              119.9999         estimate D2E/DX2                !
 ! A7    A(2,3,4)              120.0001         estimate D2E/DX2                !
 ! A8    A(3,4,5)              119.9997         estimate D2E/DX2                !
 ! A9    A(3,4,10)             120.0003         estimate D2E/DX2                !
 ! A10   A(5,4,10)             120.0            estimate D2E/DX2                !
 ! A11   A(4,5,6)              120.0            estimate D2E/DX2                !
 ! A12   A(4,5,11)             119.9996         estimate D2E/DX2                !
 ! A13   A(6,5,11)             120.0004         estimate D2E/DX2                !
 ! A14   A(1,6,5)              120.0003         estimate D2E/DX2                !
 ! A15   A(1,6,7)              119.9999         estimate D2E/DX2                !
 ! A16   A(5,6,7)              119.9998         estimate D2E/DX2                !
 ! D1    D(6,1,2,3)              0.0            estimate D2E/DX2                !
 ! D2    D(6,1,2,9)            180.0            estimate D2E/DX2                !
 ! D3    D(8,1,2,3)            180.0            estimate D2E/DX2                !
 ! D4    D(8,1,2,9)              0.0            estimate D2E/DX2                !
 ! D5    D(2,1,6,5)              0.0            estimate D2E/DX2                !
 ! D6    D(2,1,6,7)            180.0            estimate D2E/DX2                !
 ! D7    D(8,1,6,5)            180.0            estimate D2E/DX2                !
 ! D8    D(8,1,6,7)              0.0            estimate D2E/DX2                !
 ! D9    D(1,2,3,4)              0.0            estimate D2E/DX2                !
 ! D10   D(9,2,3,4)            180.0            estimate D2E/DX2                !
 ! D11   D(2,3,4,5)              0.0            estimate D2E/DX2                !
 ! D12   D(2,3,4,10)           180.0            estimate D2E/DX2                !
 ! D13   D(3,4,5,6)              0.0            estimate D2E/DX2                !
 ! D14   D(3,4,5,11)           180.0            estimate D2E/DX2                !
 ! D15   D(10,4,5,6)           180.0            estimate D2E/DX2                !
 ! D16   D(10,4,5,11)            0.0            estimate D2E/DX2                !
 ! D17   D(4,5,6,1)              0.0            estimate D2E/DX2                !
 ! D18   D(4,5,6,7)            180.0            estimate D2E/DX2                !
 ! D19   D(11,5,6,1)           180.0            estimate D2E/DX2                !
 ! D20   D(11,5,6,7)             0.0            estimate D2E/DX2                !
 --------------------------------------------------------------------------------
 Trust Radius=3.00D-01 FncErr=1.00D-07 GrdErr=1.00D-07 EigMax=2.50D+02 EigMin=1.00D-04
 Number of steps in this run=     57 maximum allowed number of steps=    100.
 GradGradGradGradGradGradGradGradGradGradGradGradGradGradGradGradGradGrad

                          Input orientation:                          
 ---------------------------------------------------------------------
 Center     Atomic      Atomic             Coordinates (Angstroms)
 Number     Number       Type             X           Y           Z
 ---------------------------------------------------------------------
      1          6           0       -3.209280    0.199430    0.000000
      2          6           0       -2.011500    0.935550    0.000000
      3          6           0       -0.775110    0.266300    0.000000
      4          6           0       -0.736500   -1.139070    0.000000
      5          6           0       -1.934290   -1.875190    0.000000
      6          6           0       -3.170670   -1.205940    0.000000
      7         17           0       -4.674830   -2.130350    0.000000
      8          1           0       -4.761930    1.039870    0.000000
      9          1           0       -2.059980    2.700400    0.000000
     10          1           0        0.816140   -1.979510    0.000000
     11          1           0       -1.885800   -3.640030    0.000000
 ---------------------------------------------------------------------
                    Distance matrix (angstroms):
                    1          2          3          4          5
     1  C    0.000000
     2  C    1.405898   0.000000
     3  C    2.435088   1.405900   0.000000
     4  C    2.811801   2.435092   1.405900   0.000000
     5  C    2.435087   2.811800   2.435093   1.405907   0.000000
     6  C    1.405900   2.435088   2.811796   2.435088   1.405892
     7  Cl   2.752401   4.061166   4.577308   4.061167   2.752393
     8  H    1.765520   2.752408   4.061175   4.577321   4.061173
     9  H    2.752406   1.765516   2.752405   4.061173   4.577316
    10  H    4.577312   4.061173   2.752406   1.765511   2.752408
    11  H    4.061164   4.577306   4.061163   2.752397   1.765506
                    6          7          8          9         10
     6  C    0.000000
     7  Cl   1.765512   0.000000
     8  H    2.752412   3.171416   0.000000
     9  H    4.061173   5.493049   3.171418   0.000000
    10  H    4.061165   5.493041   6.342832   5.493052   0.000000
    11  H    2.752396   3.171407   5.493049   6.342822   3.171404
                   11
    11  H    0.000000
 Stoichiometry    C6H4Cl(2)
 Framework group  CS[SG(C6H4Cl)]
 Deg. of freedom    19
 Full point group                 CS      NOp   2
 Largest Abelian subgroup         CS      NOp   2
 Largest concise Abelian subgroup C1      NOp   1
                         Standard orientation:                         
 ---------------------------------------------------------------------
 Center     Atomic      Atomic             Coordinates (Angstroms)
 Number     Number       Type             X           Y           Z
 ---------------------------------------------------------------------
      1          6           0       -1.217545   -0.242911    0.000000
      2          6           0       -1.217545   -1.648809   -0.000000
      3          6           0        0.000001   -2.351758   -0.000000
      4          6           0        1.217547   -1.648809   -0.000000
      5          6           0        1.217542   -0.242902   -0.000000
      6          6           0        0.000001    0.460038    0.000000
      7         17           0       -0.000000    2.225550    0.000000
      8          1           0       -2.746531    0.639848    0.000000
      9          1           0       -2.746524   -2.531571   -0.000000
     10          1           0        2.746528   -2.531559   -0.000000
     11          1           0        2.746518    0.639845   -0.000000
 ---------------------------------------------------------------------
 Rotational constants (GHZ):           4.9758856           1.5685145           1.1925843
 Standard basis: VSTO-6G (5D, 7F)
 There are    25 symmetry adapted cartesian basis functions of A'  symmetry.
 There are     7 symmetry adapted cartesian basis functions of A"  symmetry.
 There are    25 symmetry adapted basis functions of A'  symmetry.
 There are     7 symmetry adapted basis functions of A"  symmetry.
    32 basis functions,   192 primitive gaussians,    32 cartesian basis functions
    18 alpha electrons       17 beta electrons
       nuclear repulsion energy       147.7484294433 Hartrees.
 Integral buffers will be    131072 words long.
 Regular integral format.
 Two-electron integral symmetry is turned off.
 Do NDO integrals.
 One-electron integrals computed using PRISM.
 NBasis=    32 RedAO= T EigKep=  1.00D+00  NBF=    25     7
 NBsUse=    32 1.00D-06 EigRej= -1.00D+00 NBFU=    25     7
 Simple Huckel Guess.
 Initial guess orbital symmetries:
 Alpha Orbitals:
       Occupied  (A') (A') (A') (A') (A') (A') (A') (A') (A") (A')
                 (A') (A') (A") (A') (A") (A') (A") (A')
       Virtual   (A') (A") (A') (A") (A') (A') (A") (A') (A') (A')
                 (A') (A') (A') (A')
 Beta  Orbitals:
       Occupied  (A') (A') (A') (A') (A') (A') (A') (A') (A") (A')
                 (A') (A') (A") (A') (A") (A') (A")
       Virtual   (A') (A') (A") (A') (A") (A') (A') (A") (A') (A')
                 (A') (A') (A') (A') (A')
 The electronic state of the initial guess is 2-A'.
 Initial guess <Sx>= 0.0000 <Sy>= 0.0000 <Sz>= 0.5000 <S**2>= 0.7500 S= 0.5000
 Keep J ints in memory in canonical form, NReq=862079.
 Overlap will be assumed to be unity.
 Requested convergence on RMS density matrix=1.00D-08 within  32 cycles.
 Requested convergence on MAX density matrix=1.00D-06.
 Requested convergence on             energy=1.00D-06.
 No special actions if energy rises.
 Fock symm off for IB=2 I1=    1 I=   26 J=   22 Cut=1.00D-07 Err=3.83D-03
 Fock matrix is not symmetric: symmetry in diagonalization turned off.
 Rare condition: small coef for last iteration:  0.000D+00
 Rare condition: small coef for last iteration:  0.000D+00
 Rare condition: small coef for last iteration:  0.000D+00
 >>>>>>>>>> Convergence criterion not met.
 SCF Done:  E(UAM1) =  0.605806861530     A.U. after   33 cycles
            NFock= 32  Conv=0.14D-06     -V/T= 1.0089
 <Sx>= 0.0000 <Sy>= 0.0000 <Sz>= 0.5000 <S**2>= 1.0484 S= 0.6395
 <L.S>=  0.00000000000    
 Annihilation of the first spin contaminant:
 S**2 before annihilation     1.0484,   after     0.8224
 Keep J ints in memory in canonical form, NReq=862479.
 LinEq1:  Iter=  0 NonCon=     1 RMS=2.93D-08 Max=2.40D-07 NDo=     1
 AX will form     1 AO Fock derivatives at one time.
 LinEq1:  Iter=  1 NonCon=     1 RMS=2.58D-09 Max=1.68D-08 NDo=     1
 LinEq1:  Iter=  2 NonCon=     1 RMS=5.53D-10 Max=3.49D-09 NDo=     1
 LinEq1:  Iter=  3 NonCon=     1 RMS=1.44D-10 Max=8.98D-10 NDo=     1
 LinEq1:  Iter=  4 NonCon=     1 RMS=5.04D-11 Max=3.45D-10 NDo=     1
 LinEq1:  Iter=  5 NonCon=     1 RMS=1.22D-11 Max=8.74D-11 NDo=     1
 LinEq1:  Iter=  6 NonCon=     0 RMS=2.64D-12 Max=2.15D-11 NDo=     1
 Linear equations converged to 2.891D-12 2.891D-11 after     6 iterations.
 Incorrect curvature in search direction -- initial direction reversed.
     Minimum is close to point 14 DX=  0.00D+00 DF=  0.00D+00 DXR=  0.00D+00 DFR=  0.00D+00 which will be used.
 LinEq1:  Iter=  0 NonCon=     1 RMS=1.67D-04 Max=1.19D-03 NDo=     1
 LinEq1:  Iter=  1 NonCon=     1 RMS=7.17D-05 Max=4.87D-04 NDo=     1
 LinEq1:  Iter=  2 NonCon=     1 RMS=2.32D-05 Max=2.28D-04 NDo=     1
 LinEq1:  Iter=  3 NonCon=     1 RMS=4.97D-06 Max=5.51D-05 NDo=     1
 LinEq1:  Iter=  4 NonCon=     1 RMS=1.47D-06 Max=9.00D-06 NDo=     1
 LinEq1:  Iter=  5 NonCon=     1 RMS=4.61D-07 Max=3.08D-06 NDo=     1
 LinEq1:  Iter=  6 NonCon=     1 RMS=1.25D-07 Max=9.11D-07 NDo=     1
 LinEq1:  Iter=  7 NonCon=     1 RMS=2.62D-08 Max=1.15D-07 NDo=     1
 LinEq1:  Iter=  8 NonCon=     1 RMS=7.91D-09 Max=5.57D-08 NDo=     1
 LinEq1:  Iter=  9 NonCon=     0 RMS=2.25D-09 Max=1.68D-08 NDo=     1
 Linear equations converged to 2.252D-09 2.252D-08 after     9 iterations.
     Accept linear search using points  1 and  2.
 LinEq1:  Iter=  0 NonCon=     1 RMS=2.14D-04 Max=1.82D-03 NDo=     1
 LinEq1:  Iter=  1 NonCon=     1 RMS=8.73D-05 Max=6.76D-04 NDo=     1
 LinEq1:  Iter=  2 NonCon=     1 RMS=2.88D-05 Max=1.67D-04 NDo=     1
 LinEq1:  Iter=  3 NonCon=     1 RMS=6.79D-06 Max=7.29D-05 NDo=     1
 LinEq1:  Iter=  4 NonCon=     1 RMS=1.67D-06 Max=1.32D-05 NDo=     1
 LinEq1:  Iter=  5 NonCon=     1 RMS=3.78D-07 Max=1.96D-06 NDo=     1
 LinEq1:  Iter=  6 NonCon=     1 RMS=1.16D-07 Max=8.83D-07 NDo=     1
 LinEq1:  Iter=  7 NonCon=     1 RMS=3.49D-08 Max=2.17D-07 NDo=     1
 LinEq1:  Iter=  8 NonCon=     1 RMS=8.55D-09 Max=7.52D-08 NDo=     1
 LinEq1:  Iter=  9 NonCon=     1 RMS=2.94D-09 Max=2.81D-08 NDo=     1
 LinEq1:  Iter= 10 NonCon=     0 RMS=1.01D-09 Max=7.79D-09 NDo=     1
 Linear equations converged to 2.252D-09 2.252D-08 after    10 iterations.
 Incorrect curvature in search direction -- initial direction reversed.
 LinEq1:  Iter=  0 NonCon=     1 RMS=3.72D-04 Max=2.33D-03 NDo=     1
 LinEq1:  Iter=  1 NonCon=     1 RMS=1.47D-04 Max=1.27D-03 NDo=     1
 LinEq1:  Iter=  2 NonCon=     1 RMS=4.94D-05 Max=3.09D-04 NDo=     1
 LinEq1:  Iter=  3 NonCon=     1 RMS=1.25D-05 Max=9.62D-05 NDo=     1
 LinEq1:  Iter=  4 NonCon=     1 RMS=3.23D-06 Max=1.62D-05 NDo=     1
 LinEq1:  Iter=  5 NonCon=     1 RMS=1.14D-06 Max=6.90D-06 NDo=     1
 LinEq1:  Iter=  6 NonCon=     1 RMS=2.42D-07 Max=2.03D-06 NDo=     1
 LinEq1:  Iter=  7 NonCon=     1 RMS=5.46D-08 Max=4.44D-07 NDo=     1
 LinEq1:  Iter=  8 NonCon=     1 RMS=1.08D-08 Max=6.94D-08 NDo=     1
 LinEq1:  Iter=  9 NonCon=     1 RMS=3.84D-09 Max=2.04D-08 NDo=     1
 LinEq1:  Iter= 10 NonCon=     0 RMS=6.30D-10 Max=4.38D-09 NDo=     1
 Linear equations converged to 2.252D-09 2.252D-08 after    10 iterations.
     Accept linear search using points  1 and  2.
 LinEq1:  Iter=  0 NonCon=     1 RMS=1.78D-04 Max=1.41D-03 NDo=     1
 LinEq1:  Iter=  1 NonCon=     1 RMS=5.84D-05 Max=4.84D-04 NDo=     1
 LinEq1:  Iter=  2 NonCon=     1 RMS=2.02D-05 Max=1.26D-04 NDo=     1
 LinEq1:  Iter=  3 NonCon=     1 RMS=6.32D-06 Max=5.43D-05 NDo=     1
 LinEq1:  Iter=  4 NonCon=     1 RMS=1.50D-06 Max=1.08D-05 NDo=     1
 LinEq1:  Iter=  5 NonCon=     1 RMS=4.42D-07 Max=3.08D-06 NDo=     1
 LinEq1:  Iter=  6 NonCon=     1 RMS=1.35D-07 Max=1.27D-06 NDo=     1
 LinEq1:  Iter=  7 NonCon=     1 RMS=3.20D-08 Max=2.52D-07 NDo=     1
 LinEq1:  Iter=  8 NonCon=     1 RMS=7.20D-09 Max=5.70D-08 NDo=     1
 LinEq1:  Iter=  9 NonCon=     1 RMS=2.77D-09 Max=2.02D-08 NDo=     1
 LinEq1:  Iter= 10 NonCon=     0 RMS=7.59D-10 Max=4.61D-09 NDo=     1
 Linear equations converged to 2.252D-09 2.252D-08 after    10 iterations.
     Accept linear search using points  1 and  2.
 LinEq1:  Iter=  0 NonCon=     1 RMS=8.25D-05 Max=4.82D-04 NDo=     1
 LinEq1:  Iter=  1 NonCon=     1 RMS=3.07D-05 Max=1.92D-04 NDo=     1
 LinEq1:  Iter=  2 NonCon=     1 RMS=9.61D-06 Max=6.95D-05 NDo=     1
 LinEq1:  Iter=  3 NonCon=     1 RMS=2.84D-06 Max=2.24D-05 NDo=     1
 LinEq1:  Iter=  4 NonCon=     1 RMS=6.68D-07 Max=4.52D-06 NDo=     1
 LinEq1:  Iter=  5 NonCon=     1 RMS=1.71D-07 Max=9.93D-07 NDo=     1
 LinEq1:  Iter=  6 NonCon=     1 RMS=4.88D-08 Max=2.94D-07 NDo=     1
 LinEq1:  Iter=  7 NonCon=     1 RMS=1.12D-08 Max=9.51D-08 NDo=     1
 LinEq1:  Iter=  8 NonCon=     1 RMS=3.00D-09 Max=1.90D-08 NDo=     1
 LinEq1:  Iter=  9 NonCon=     0 RMS=7.80D-10 Max=6.40D-09 NDo=     1
 Linear equations converged to 2.252D-09 2.252D-08 after     9 iterations.
     Accept linear search using points  1 and  2.
     Minimum is close to point  2 DX= -6.50D-02 DF= -4.21D-08 DXR=  6.95D-02 DFR=  5.06D-03 which will be used.
 LinEq1:  Iter=  0 NonCon=     1 RMS=1.07D-05 Max=8.23D-05 NDo=     1
 LinEq1:  Iter=  1 NonCon=     1 RMS=5.22D-06 Max=4.24D-05 NDo=     1
 LinEq1:  Iter=  2 NonCon=     1 RMS=1.34D-06 Max=9.04D-06 NDo=     1
 LinEq1:  Iter=  3 NonCon=     1 RMS=2.96D-07 Max=2.26D-06 NDo=     1
 LinEq1:  Iter=  4 NonCon=     1 RMS=7.13D-08 Max=5.00D-07 NDo=     1
 LinEq1:  Iter=  5 NonCon=     1 RMS=2.35D-08 Max=1.72D-07 NDo=     1
 LinEq1:  Iter=  6 NonCon=     1 RMS=5.48D-09 Max=3.71D-08 NDo=     1
 LinEq1:  Iter=  7 NonCon=     0 RMS=1.12D-09 Max=6.12D-09 NDo=     1
 Linear equations converged to 1.304D-09 1.304D-08 after     7 iterations.
 Incorrect curvature in search direction -- initial direction reversed.
     Minimum is close to point  6 DX= -5.35D-02 DF= -1.25D-09 DXR=  3.35D-03 DFR=  3.30D-05 which will be used.
 LinEq1:  Iter=  0 NonCon=     1 RMS=2.49D-04 Max=2.07D-03 NDo=     1
 LinEq1:  Iter=  1 NonCon=     1 RMS=9.90D-05 Max=6.59D-04 NDo=     1
 LinEq1:  Iter=  2 NonCon=     1 RMS=3.11D-05 Max=1.91D-04 NDo=     1
 LinEq1:  Iter=  3 NonCon=     1 RMS=8.10D-06 Max=7.49D-05 NDo=     1
 LinEq1:  Iter=  4 NonCon=     1 RMS=1.89D-06 Max=1.11D-05 NDo=     1
 LinEq1:  Iter=  5 NonCon=     1 RMS=6.59D-07 Max=4.60D-06 NDo=     1
 LinEq1:  Iter=  6 NonCon=     1 RMS=1.31D-07 Max=6.81D-07 NDo=     1
 LinEq1:  Iter=  7 NonCon=     1 RMS=3.27D-08 Max=2.33D-07 NDo=     1
 LinEq1:  Iter=  8 NonCon=     1 RMS=9.34D-09 Max=7.50D-08 NDo=     1
 LinEq1:  Iter=  9 NonCon=     1 RMS=3.05D-09 Max=2.56D-08 NDo=     1
 LinEq1:  Iter= 10 NonCon=     0 RMS=9.26D-10 Max=8.50D-09 NDo=     1
 Linear equations converged to 2.252D-09 2.252D-08 after    10 iterations.
 Incorrect curvature in search direction -- initial direction reversed.
     Minimum is close to point  2 DX= -2.22D-02 DF= -3.88D-07 DXR=  2.27D-02 DFR=  5.16D-04 which will be used.
 LinEq1:  Iter=  0 NonCon=     1 RMS=7.10D-04 Max=5.47D-03 NDo=     1
 LinEq1:  Iter=  1 NonCon=     1 RMS=2.57D-04 Max=1.88D-03 NDo=     1
 LinEq1:  Iter=  2 NonCon=     1 RMS=6.93D-05 Max=6.67D-04 NDo=     1
 LinEq1:  Iter=  3 NonCon=     1 RMS=1.83D-05 Max=1.19D-04 NDo=     1
 LinEq1:  Iter=  4 NonCon=     1 RMS=4.71D-06 Max=4.31D-05 NDo=     1
 LinEq1:  Iter=  5 NonCon=     1 RMS=1.53D-06 Max=1.19D-05 NDo=     1
 LinEq1:  Iter=  6 NonCon=     1 RMS=2.60D-07 Max=1.70D-06 NDo=     1
 LinEq1:  Iter=  7 NonCon=     1 RMS=6.21D-08 Max=3.49D-07 NDo=     1
 LinEq1:  Iter=  8 NonCon=     1 RMS=1.48D-08 Max=8.80D-08 NDo=     1
 LinEq1:  Iter=  9 NonCon=     1 RMS=3.50D-09 Max=3.56D-08 NDo=     1
 LinEq1:  Iter= 10 NonCon=     0 RMS=8.75D-10 Max=8.39D-09 NDo=     1
 Linear equations converged to 2.252D-09 2.252D-08 after    10 iterations.
 LinEq1:  Iter=  0 NonCon=     1 RMS=6.83D-04 Max=5.85D-03 NDo=     1
 LinEq1:  Iter=  1 NonCon=     1 RMS=2.39D-04 Max=1.81D-03 NDo=     1
 LinEq1:  Iter=  2 NonCon=     1 RMS=6.33D-05 Max=5.46D-04 NDo=     1
 LinEq1:  Iter=  3 NonCon=     1 RMS=1.57D-05 Max=1.08D-04 NDo=     1
 LinEq1:  Iter=  4 NonCon=     1 RMS=3.94D-06 Max=3.18D-05 NDo=     1
 LinEq1:  Iter=  5 NonCon=     1 RMS=1.33D-06 Max=1.09D-05 NDo=     1
 LinEq1:  Iter=  6 NonCon=     1 RMS=2.27D-07 Max=1.55D-06 NDo=     1
 LinEq1:  Iter=  7 NonCon=     1 RMS=5.07D-08 Max=2.80D-07 NDo=     1
 LinEq1:  Iter=  8 NonCon=     1 RMS=1.24D-08 Max=6.82D-08 NDo=     1
 LinEq1:  Iter=  9 NonCon=     1 RMS=2.87D-09 Max=2.64D-08 NDo=     1
 LinEq1:  Iter= 10 NonCon=     0 RMS=6.87D-10 Max=6.51D-09 NDo=     1
 Linear equations converged to 2.252D-09 2.252D-08 after    10 iterations.
     Accept linear search using points  1 and  2.
 LinEq1:  Iter=  0 NonCon=     1 RMS=2.80D-04 Max=2.66D-03 NDo=     1
 LinEq1:  Iter=  1 NonCon=     1 RMS=8.67D-05 Max=9.01D-04 NDo=     1
 LinEq1:  Iter=  2 NonCon=     1 RMS=2.54D-05 Max=2.52D-04 NDo=     1
 LinEq1:  Iter=  3 NonCon=     1 RMS=5.61D-06 Max=4.39D-05 NDo=     1
 LinEq1:  Iter=  4 NonCon=     1 RMS=1.23D-06 Max=9.04D-06 NDo=     1
 LinEq1:  Iter=  5 NonCon=     1 RMS=3.85D-07 Max=1.94D-06 NDo=     1
 LinEq1:  Iter=  6 NonCon=     1 RMS=8.37D-08 Max=4.88D-07 NDo=     1
 LinEq1:  Iter=  7 NonCon=     1 RMS=1.26D-08 Max=8.61D-08 NDo=     1
 LinEq1:  Iter=  8 NonCon=     1 RMS=3.25D-09 Max=2.49D-08 NDo=     1
 LinEq1:  Iter=  9 NonCon=     0 RMS=7.90D-10 Max=6.42D-09 NDo=     1
 Linear equations converged to 2.252D-09 2.252D-08 after     9 iterations.
     Minimum is close to point  2 DX=  4.43D-02 DF= -1.21D-07 DXR=  4.24D-02 DFR=  1.80D-03 which will be used.
 LinEq1:  Iter=  0 NonCon=     1 RMS=9.29D-06 Max=1.06D-04 NDo=     1
 LinEq1:  Iter=  1 NonCon=     1 RMS=1.97D-06 Max=1.18D-05 NDo=     1
 LinEq1:  Iter=  2 NonCon=     1 RMS=5.15D-07 Max=4.63D-06 NDo=     1
 LinEq1:  Iter=  3 NonCon=     1 RMS=1.19D-07 Max=7.04D-07 NDo=     1
 LinEq1:  Iter=  4 NonCon=     1 RMS=3.08D-08 Max=1.65D-07 NDo=     1
 LinEq1:  Iter=  5 NonCon=     1 RMS=7.80D-09 Max=6.78D-08 NDo=     1
 LinEq1:  Iter=  6 NonCon=     1 RMS=1.22D-09 Max=6.81D-09 NDo=     1
 LinEq1:  Iter=  7 NonCon=     0 RMS=2.80D-10 Max=1.89D-09 NDo=     1
 Linear equations converged to 9.049D-10 9.049D-09 after     7 iterations.
 LinEq1:  Iter=  0 NonCon=     1 RMS=2.73D-07 Max=1.77D-06 NDo=     1
 LinEq1:  Iter=  1 NonCon=     1 RMS=9.96D-08 Max=7.42D-07 NDo=     1
 LinEq1:  Iter=  2 NonCon=     1 RMS=2.07D-08 Max=1.06D-07 NDo=     1
 LinEq1:  Iter=  3 NonCon=     1 RMS=5.12D-09 Max=4.76D-08 NDo=     1
 LinEq1:  Iter=  4 NonCon=     1 RMS=1.42D-09 Max=8.92D-09 NDo=     1
 LinEq1:  Iter=  5 NonCon=     1 RMS=4.02D-10 Max=2.46D-09 NDo=     1
 LinEq1:  Iter=  6 NonCon=     1 RMS=9.58D-11 Max=5.18D-10 NDo=     1
 LinEq1:  Iter=  7 NonCon=     0 RMS=2.05D-11 Max=1.62D-10 NDo=     1
 Linear equations converged to 3.462D-11 3.462D-10 after     7 iterations.
 SCF Done:  E(UAM1) =  0.603649469008     a.u. after   14 cycles
            Convg  =    0.2022D-06                   157 Fock formations.
              S**2 =  1.9485                  -V/T =  1.0089
 <Sx>= 0.0000 <Sy>= 0.0000 <Sz>= 0.5000 <S**2>= 1.9485 S= 0.9827
 <L.S>=  0.00000000000    
 Annihilation of the first spin contaminant:
 S**2 before annihilation     1.9485,   after     3.0316

 **********************************************************************

            Population analysis using the SCF Density.

 **********************************************************************

 Orbital symmetries:
 Alpha Orbitals:
       Occupied  (A') (A') (A') (A') (A') (A') (A') (A') (A") (A')
                 (A") (A') (A') (A') (A') (A') (A") (A")
       Virtual   (A') (A") (A') (A') (A") (A') (A') (A") (A') (A')
                 (A') (A') (A') (A')
 Beta  Orbitals:
       Occupied  (A') (A') (A') (A') (A') (A') (A') (A') (A") (A')
                 (A") (A') (A') (A') (A') (A") (A")
       Virtual   (A') (A') (A") (A') (A") (A') (A') (A') (A") (A')
                 (A') (A') (A') (A') (A')
 The electronic state is 2-A'.
 Alpha  occ. eigenvalues --   -1.40413  -1.35526  -1.10421  -1.08501  -0.80538
 Alpha  occ. eigenvalues --   -0.78566  -0.59494  -0.57765  -0.51635  -0.48592
 Alpha  occ. eigenvalues --   -0.45349  -0.44663  -0.44566  -0.42693  -0.37522
 Alpha  occ. eigenvalues --   -0.37428  -0.36238  -0.35800
 Alpha virt. eigenvalues --   -0.00189   0.01292   0.02115   0.02340   0.03090
 Alpha virt. eigenvalues --    0.04482   0.04683   0.10195   0.15589   0.15842
 Alpha virt. eigenvalues --    0.17910   0.18720   0.18934   0.20564
  Beta  occ. eigenvalues --   -1.39978  -1.35155  -1.08601  -1.08128  -0.78784
  Beta  occ. eigenvalues --   -0.78227  -0.58496  -0.57074  -0.51245  -0.46607
  Beta  occ. eigenvalues --   -0.44276  -0.44191  -0.43630  -0.42976  -0.37077
  Beta  occ. eigenvalues --   -0.36803  -0.34526
  Beta virt. eigenvalues --   -0.02808   0.01112   0.02130   0.02485   0.02572
  Beta virt. eigenvalues --    0.03309   0.04757   0.06173   0.10960   0.15903
  Beta virt. eigenvalues --    0.16110   0.18540   0.19036   0.19643   0.22333
          Condensed to atoms (all electrons):
               1          2          3          4          5          6
     1  C    4.115261   0.000000   0.000000   0.000000   0.000000   0.000000
     2  C    0.000000   4.156589   0.000000   0.000000   0.000000   0.000000
     3  C    0.000000   0.000000   4.004648   0.000000   0.000000   0.000000
     4  C    0.000000   0.000000   0.000000   4.156592   0.000000   0.000000
     5  C    0.000000   0.000000   0.000000   0.000000   4.115265   0.000000
     6  C    0.000000   0.000000   0.000000   0.000000   0.000000   4.056445
     7  Cl   0.000000   0.000000   0.000000   0.000000   0.000000   0.000000
     8  H    0.000000   0.000000   0.000000   0.000000   0.000000   0.000000
     9  H    0.000000   0.000000   0.000000   0.000000   0.000000   0.000000
    10  H    0.000000   0.000000   0.000000   0.000000   0.000000   0.000000
    11  H    0.000000   0.000000   0.000000   0.000000   0.000000   0.000000
               7          8          9         10         11
     1  C    0.000000   0.000000   0.000000   0.000000   0.000000
     2  C    0.000000   0.000000   0.000000   0.000000   0.000000
     3  C    0.000000   0.000000   0.000000   0.000000   0.000000
     4  C    0.000000   0.000000   0.000000   0.000000   0.000000
     5  C    0.000000   0.000000   0.000000   0.000000   0.000000
     6  C    0.000000   0.000000   0.000000   0.000000   0.000000
     7  Cl   7.040052   0.000000   0.000000   0.000000   0.000000
     8  H    0.000000   0.842832   0.000000   0.000000   0.000000
     9  H    0.000000   0.000000   0.834747   0.000000   0.000000
    10  H    0.000000   0.000000   0.000000   0.834744   0.000000
    11  H    0.000000   0.000000   0.000000   0.000000   0.842826
          Atomic-Atomic Spin Densities.
               1          2          3          4          5          6
     1  C   -0.858805   0.000000   0.000000   0.000000   0.000000   0.000000
     2  C    0.000000   0.796375   0.000000   0.000000   0.000000   0.000000
     3  C    0.000000   0.000000   0.535247   0.000000   0.000000   0.000000
     4  C    0.000000   0.000000   0.000000   0.796357   0.000000   0.000000
     5  C    0.000000   0.000000   0.000000   0.000000  -0.858763   0.000000
     6  C    0.000000   0.000000   0.000000   0.000000   0.000000   0.452841
     7  Cl   0.000000   0.000000   0.000000   0.000000   0.000000   0.000000
     8  H    0.000000   0.000000   0.000000   0.000000   0.000000   0.000000
     9  H    0.000000   0.000000   0.000000   0.000000   0.000000   0.000000
    10  H    0.000000   0.000000   0.000000   0.000000   0.000000   0.000000
    11  H    0.000000   0.000000   0.000000   0.000000   0.000000   0.000000
               7          8          9         10         11
     1  C    0.000000   0.000000   0.000000   0.000000   0.000000
     2  C    0.000000   0.000000   0.000000   0.000000   0.000000
     3  C    0.000000   0.000000   0.000000   0.000000   0.000000
     4  C    0.000000   0.000000   0.000000   0.000000   0.000000
     5  C    0.000000   0.000000   0.000000   0.000000   0.000000
     6  C    0.000000   0.000000   0.000000   0.000000   0.000000
     7  Cl   0.001149   0.000000   0.000000   0.000000   0.000000
     8  H    0.000000   0.470942   0.000000   0.000000   0.000000
     9  H    0.000000   0.000000  -0.403132   0.000000   0.000000
    10  H    0.000000   0.000000   0.000000  -0.403114   0.000000
    11  H    0.000000   0.000000   0.000000   0.000000   0.470904
 Mulliken charges and spin densities:
               1          2
     1  C   -0.115261  -0.858805
     2  C   -0.156589   0.796375
     3  C   -0.004648   0.535247
     4  C   -0.156592   0.796357
     5  C   -0.115265  -0.858763
     6  C   -0.056445   0.452841
     7  Cl  -0.040052   0.001149
     8  H    0.157168   0.470942
     9  H    0.165253  -0.403132
    10  H    0.165256  -0.403114
    11  H    0.157174   0.470904
 Sum of Mulliken charges =  -0.00000   1.00000
 Mulliken charges and spin densities with hydrogens summed into heavy atoms:
               1          2
     1  C    0.041908  -0.387864
     2  C    0.008664   0.393243
     3  C   -0.004648   0.535247
     4  C    0.008665   0.393243
     5  C    0.041910  -0.387859
     6  C   -0.056445   0.452841
     7  Cl  -0.040052   0.001149
 Charge=             -0.0000 electrons
 Dipole moment (field-independent basis, Debye):
    X=              0.0001    Y=             -0.4736    Z=              0.0000  Tot=              0.4736
 N-N= 1.477484294433D+02 E-N=-2.028760989385D+02  KE=-6.799864198782D+01
 Symmetry A'   KE=-5.319025694575D+01
 Symmetry A"   KE=-1.480838504208D+01
 Symmetry A'   SP= 1.000000000000D+00
 Symmetry A"   SP=-1.110223024625D-16
 Calling FoFJK, ICntrl=      2127 FMM=F ISym2X=1 I1Cent= 0 IOpClX= 1 NMat=1 NMatS=1 NMatT=0.
 ***** Axes restored to original set *****
 -------------------------------------------------------------------
 Center     Atomic                   Forces (Hartrees/Bohr)
 Number     Number              X              Y              Z
 -------------------------------------------------------------------
      1        6          -0.036618149    0.041221065   -0.000000000
      2        6           0.005195398    0.067144001   -0.000000000
      3        6          -0.055536611   -0.034133687   -0.000000000
      4        6           0.062247306   -0.025694969   -0.000000000
      5        6           0.020245976   -0.051293436   -0.000000000
      6        6          -0.021378960   -0.013133448   -0.000000000
      7       17           0.031720607    0.019494848   -0.000000000
      8        1           0.084269763   -0.046266473    0.000000000
      9        1           0.003052394   -0.102403950    0.000000000
     10        1          -0.089984264    0.048980453    0.000000000
     11        1          -0.003213461    0.096085596    0.000000000
 -------------------------------------------------------------------
 Cartesian Forces:  Max     0.102403950 RMS     0.042956409

 GradGradGradGradGradGradGradGradGradGradGradGradGradGradGradGradGradGrad
 Berny optimization.
 FormGI is forming the generalized inverse of G from B-inverse, IUseBI=4.
 Internal  Forces:  Max     0.102450941 RMS     0.033073679
 Search for a local minimum.
 Step number   1 out of a maximum of   57
 All quantities printed in internal units (Hartrees-Bohrs-Radians)
 Mixed Optimization -- RFO/linear search
 Second derivative matrix not updated -- first step.
 ITU=  0
     Eigenvalues ---    0.02011   0.02011   0.02011   0.02011   0.02011
     Eigenvalues ---    0.02011   0.02011   0.02011   0.06524   0.06524
     Eigenvalues ---    0.06524   0.06524   0.16000   0.16000   0.16000
     Eigenvalues ---    0.16000   0.22000   0.22834   0.23883   0.25000
     Eigenvalues ---    0.29033   0.40686   0.41477   0.44656   0.44657
     Eigenvalues ---    0.44657   0.44657
 RFO step:  Lambda=-1.80660480D-01 EMin= 2.01064753D-02
 Linear search not attempted -- first point.
 Maximum step size (   0.300) exceeded in Quadratic search.
    -- Step size scaled by   0.362
 Iteration  1 RMS(Cart)=  0.04995237 RMS(Int)=  0.00004831
 Iteration  2 RMS(Cart)=  0.00008482 RMS(Int)=  0.00000961
 Iteration  3 RMS(Cart)=  0.00000001 RMS(Int)=  0.00000961
 ClnCor:  largest displacement from symmetrization is 5.73D-09 for atom     7.
 Variable       Old X    -DE/DX   Delta X   Delta X   Delta X     New X
                                 (Linear)    (Quad)   (Total)
    R1        2.65676  -0.04403   0.00000  -0.02540  -0.02540   2.63136
    R2        2.65677  -0.02452   0.00000  -0.01382  -0.01383   2.64294
    R3        3.33635  -0.09613   0.00000  -0.14147  -0.14147   3.19488
    R4        2.65677  -0.04990   0.00000  -0.02912  -0.02910   2.62766
    R5        3.33634  -0.10245   0.00000  -0.15076  -0.15076   3.18558
    R6        2.65677  -0.04990   0.00000  -0.02912  -0.02910   2.62766
    R7        2.65678  -0.04403   0.00000  -0.02540  -0.02540   2.63137
    R8        3.33633  -0.10245   0.00000  -0.15076  -0.15076   3.18557
    R9        2.65675  -0.02451   0.00000  -0.01381  -0.01383   2.64292
   R10        3.33632  -0.09614   0.00000  -0.14147  -0.14147   3.19485
   R11        3.33633  -0.03723   0.00000  -0.02861  -0.02861   3.30773
    A1        2.09439   0.00262   0.00000   0.00303   0.00301   2.09740
    A2        2.09439  -0.00035   0.00000  -0.00050  -0.00049   2.09390
    A3        2.09440  -0.00227   0.00000  -0.00253  -0.00252   2.09188
    A4        2.09439  -0.00563   0.00000  -0.00547  -0.00546   2.08894
    A5        2.09440   0.00321   0.00000   0.00316   0.00315   2.09755
    A6        2.09439   0.00241   0.00000   0.00231   0.00230   2.09670
    A7        2.09440   0.01540   0.00000   0.01168   0.01171   2.10611
    A8        2.09439  -0.00563   0.00000  -0.00547  -0.00546   2.08894
    A9        2.09440   0.00241   0.00000   0.00231   0.00230   2.09670
   A10        2.09440   0.00321   0.00000   0.00316   0.00315   2.09755
   A11        2.09439   0.00262   0.00000   0.00303   0.00301   2.09741
   A12        2.09439  -0.00035   0.00000  -0.00050  -0.00049   2.09390
   A13        2.09440  -0.00227   0.00000  -0.00253  -0.00252   2.09188
   A14        2.09440  -0.00939   0.00000  -0.00679  -0.00682   2.08758
   A15        2.09439   0.00470   0.00000   0.00340   0.00341   2.09780
   A16        2.09439   0.00470   0.00000   0.00340   0.00341   2.09780
    D1       -0.00000   0.00000   0.00000  -0.00000   0.00000   0.00000
    D2        3.14159   0.00000   0.00000   0.00000   0.00000   3.14159
    D3        3.14159  -0.00000   0.00000  -0.00000   0.00000   3.14159
    D4       -0.00000   0.00000   0.00000   0.00000   0.00000   0.00000
    D5        0.00000   0.00000   0.00000   0.00000  -0.00000   0.00000
    D6        3.14159  -0.00000   0.00000  -0.00000   0.00000   3.14159
    D7        3.14159   0.00000   0.00000   0.00000   0.00000   3.14159
    D8        0.00000   0.00000   0.00000   0.00000  -0.00000   0.00000
    D9       -0.00000  -0.00000   0.00000  -0.00000   0.00000   0.00000
   D10        3.14159  -0.00000   0.00000  -0.00000   0.00000   3.14159
   D11        0.00000   0.00000   0.00000   0.00000   0.00000   0.00000
   D12        3.14159   0.00000   0.00000   0.00000   0.00000   3.14159
   D13       -0.00000   0.00000   0.00000   0.00000   0.00000   0.00000
   D14        3.14159   0.00000   0.00000   0.00000   0.00000   3.14159
   D15        3.14159  -0.00000   0.00000  -0.00000   0.00000   3.14159
   D16        0.00000   0.00000   0.00000   0.00000   0.00000   0.00000
   D17        0.00000  -0.00000   0.00000  -0.00000  -0.00000   0.00000
   D18        3.14159   0.00000   0.00000   0.00000   0.00000   3.14159
   D19        3.14159  -0.00000   0.00000  -0.00000   0.00000   3.14159
   D20       -0.00000  -0.00000   0.00000  -0.00000   0.00000   0.00000
         Item               Value     Threshold  Converged?
 Maximum Force            0.102451     0.000450     NO 
 RMS     Force            0.033074     0.000300     NO 
 Maximum Displacement     0.173295     0.001800     NO 
 RMS     Displacement     0.049967     0.001200     NO 
 Predicted change in Energy=-6.167529D-02
 GradGradGradGradGradGradGradGradGradGradGradGradGradGradGradGradGradGrad

                          Input orientation:                          
 ---------------------------------------------------------------------
 Center     Atomic      Atomic             Coordinates (Angstroms)
 Number     Number       Type             X           Y           Z
 ---------------------------------------------------------------------
      1          6           0       -3.200084    0.194835    0.000000
      2          6           0       -2.013464    0.923442    0.000000
      3          6           0       -0.794515    0.254373    0.000000
      4          6           0       -0.748189   -1.135354    0.000000
      5          6           0       -1.934234   -1.864910    0.000000
      6          6           0       -3.166443   -1.203342   -0.000000
      7         17           0       -4.657707   -2.119826   -0.000000
      8          1           0       -4.686182    1.000961   -0.000000
      9          1           0       -2.053767    2.608696    0.000000
     10          1           0        0.737131   -1.932544    0.000000
     11          1           0       -1.886296   -3.554872   -0.000000
 ---------------------------------------------------------------------
                    Distance matrix (angstroms):
                    1          2          3          4          5
     1  C    0.000000
     2  C    1.392457   0.000000
     3  C    2.406306   1.390500   0.000000
     4  C    2.789478   2.416518   1.390499   0.000000
     5  C    2.417628   2.789477   2.406309   1.392464   0.000000
     6  C    1.398582   2.419209   2.784058   2.419210   1.398575
     7  Cl   2.735383   4.031563   4.534432   4.031565   2.735377
     8  H    1.690659   2.673842   3.962633   4.480137   3.973215
     9  H    2.672222   1.685736   2.669935   3.965154   4.475203
    10  H    4.475198   3.965152   2.669934   1.685731   2.672221
    11  H    3.973203   4.480119   3.962617   2.673828   1.690642
                    6          7          8          9         10
     6  C    0.000000
     7  Cl   1.750374   0.000000
     8  H    2.677416   3.120917   0.000000
     9  H    3.971106   5.398095   3.084545   0.000000
    10  H    3.971099   5.398087   6.165855   5.330288   0.000000
    11  H    2.677400   3.120909   5.347427   6.165843   3.084528
                   11
    11  H    0.000000
 Stoichiometry    C6H4Cl(2)
 Framework group  CS[SG(C6H4Cl)]
 Deg. of freedom    19
 Full point group                 CS      NOp   2
 Largest Abelian subgroup         CS      NOp   2
 Largest concise Abelian subgroup C1      NOp   1
                         Standard orientation:                         
 ---------------------------------------------------------------------
 Center     Atomic      Atomic             Coordinates (Angstroms)
 Number     Number       Type             X           Y           Z
 ---------------------------------------------------------------------
      1          6           0       -1.208814   -0.244717    0.000000
      2          6           0       -1.208254   -1.637173    0.000000
      3          6           0        0.000007   -2.325355    0.000000
      4          6           0        1.208264   -1.637168    0.000000
      5          6           0        1.208814   -0.244704    0.000000
      6          6           0       -0.000000    0.458703    0.000000
      7         17           0       -0.000006    2.209077    0.000000
      8          1           0       -2.673722    0.599305    0.000000
      9          1           0       -2.665137   -2.485229    0.000000
     10          1           0        2.665152   -2.485205    0.000000
     11          1           0        2.673705    0.599312    0.000000
 ---------------------------------------------------------------------
 Rotational constants (GHZ):           5.1134427           1.5958288           1.2162541
 Standard basis: VSTO-6G (5D, 7F)
 There are    25 symmetry adapted cartesian basis functions of A'  symmetry.
 There are     7 symmetry adapted cartesian basis functions of A"  symmetry.
 There are    25 symmetry adapted basis functions of A'  symmetry.
 There are     7 symmetry adapted basis functions of A"  symmetry.
    32 basis functions,   192 primitive gaussians,    32 cartesian basis functions
    18 alpha electrons       17 beta electrons
       nuclear repulsion energy       148.8064662854 Hartrees.
 Integral buffers will be    131072 words long.
 Regular integral format.
 Two-electron integral symmetry is turned off.
 Do NDO integrals.
 One-electron integrals computed using PRISM.
 NBasis=    32 RedAO= T EigKep=  1.00D+00  NBF=    25     7
 NBsUse=    32 1.00D-06 EigRej= -1.00D+00 NBFU=    25     7
 Initial guess from the checkpoint file:  "geometry_chks/14-1_-ClBzNeutralRadical.chk"
 B after Tr=     0.000000   -0.000000   -0.000000
         Rot=    1.000000    0.000000   -0.000000   -0.000001 Ang=  -0.00 deg.
 Initial guess orbital symmetries:
 Alpha Orbitals:
       Occupied  (A') (A') (A') (A') (A') (A') (A') (A') (A") (A')
                 (A") (A') (A') (A') (A') (A') (A") (A")
       Virtual   (A') (A") (A') (A') (A") (A') (A') (A") (A') (A')
                 (A') (A') (A') (A')
 Beta  Orbitals:
       Occupied  (A') (A') (A') (A') (A') (A') (A') (A') (A") (A')
                 (A") (A') (A') (A') (A') (A") (A")
       Virtual   (A') (A') (A") (A') (A") (A') (A') (A') (A") (A')
                 (A') (A') (A') (A') (A')
 Initial guess <Sx>= 0.0000 <Sy>= 0.0000 <Sz>= 0.5000 <S**2>= 1.9485 S= 0.9827
 Keep J ints in memory in canonical form, NReq=862079.
 Overlap will be assumed to be unity.
 Requested convergence on RMS density matrix=1.00D-08 within  32 cycles.
 Requested convergence on MAX density matrix=1.00D-06.
 Requested convergence on             energy=1.00D-06.
 No special actions if energy rises.
 Fock symm off for IB=2 I1=    1 I=   26 J=    9 Cut=1.00D-07 Err=9.17D-04
 Fock matrix is not symmetric: symmetry in diagonalization turned off.
 Rare condition: small coef for last iteration:  0.000D+00
 Rare condition: small coef for last iteration:  0.000D+00
 Rare condition: small coef for last iteration:  0.000D+00
 Rare condition: small coef for last iteration:  0.000D+00
 Rare condition: small coef for last iteration:  0.000D+00
 Rare condition: small coef for last iteration:  0.000D+00
 Rare condition: small coef for last iteration:  0.000D+00
 Rare condition: small coef for last iteration:  0.000D+00
 Rare condition: small coef for last iteration:  0.000D+00
 Rare condition: small coef for last iteration:  0.000D+00
 >>>>>>>>>> Convergence criterion not met.
 SCF Done:  E(UAM1) =  0.531664126636     A.U. after   33 cycles
            NFock= 32  Conv=0.11D-01     -V/T= 1.0078
 <Sx>= 0.0000 <Sy>= 0.0000 <Sz>= 0.5000 <S**2>= 1.3935 S= 0.7820
 <L.S>=  0.00000000000    
 Annihilation of the first spin contaminant:
 S**2 before annihilation     1.3935,   after     1.2859
 Keep J ints in memory in canonical form, NReq=862479.
 LinEq1:  Iter=  0 NonCon=     1 RMS=5.74D-04 Max=6.92D-03 NDo=     1
 AX will form     1 AO Fock derivatives at one time.
 LinEq1:  Iter=  1 NonCon=     1 RMS=8.38D-05 Max=5.28D-04 NDo=     1
 LinEq1:  Iter=  2 NonCon=     1 RMS=2.35D-05 Max=2.25D-04 NDo=     1
 LinEq1:  Iter=  3 NonCon=     1 RMS=5.89D-06 Max=3.92D-05 NDo=     1
 LinEq1:  Iter=  4 NonCon=     1 RMS=1.55D-06 Max=9.74D-06 NDo=     1
 LinEq1:  Iter=  5 NonCon=     1 RMS=4.26D-07 Max=3.68D-06 NDo=     1
 LinEq1:  Iter=  6 NonCon=     1 RMS=8.84D-08 Max=8.75D-07 NDo=     1
 LinEq1:  Iter=  7 NonCon=     1 RMS=1.92D-08 Max=1.53D-07 NDo=     1
 LinEq1:  Iter=  8 NonCon=     1 RMS=4.91D-09 Max=3.46D-08 NDo=     1
 LinEq1:  Iter=  9 NonCon=     0 RMS=1.06D-09 Max=7.85D-09 NDo=     1
 Linear equations converged to 2.252D-09 2.252D-08 after     9 iterations.
 Gradient too large for Newton-Raphson -- use scaled steepest descent instead.
 LinEq1:  Iter=  0 NonCon=     1 RMS=4.03D-04 Max=3.85D-03 NDo=     1
 LinEq1:  Iter=  1 NonCon=     1 RMS=1.41D-04 Max=1.10D-03 NDo=     1
 LinEq1:  Iter=  2 NonCon=     1 RMS=3.69D-05 Max=4.85D-04 NDo=     1
 LinEq1:  Iter=  3 NonCon=     1 RMS=9.09D-06 Max=8.18D-05 NDo=     1
 LinEq1:  Iter=  4 NonCon=     1 RMS=1.48D-06 Max=9.41D-06 NDo=     1
 LinEq1:  Iter=  5 NonCon=     1 RMS=4.54D-07 Max=2.70D-06 NDo=     1
 LinEq1:  Iter=  6 NonCon=     1 RMS=8.65D-08 Max=8.82D-07 NDo=     1
 LinEq1:  Iter=  7 NonCon=     1 RMS=1.40D-08 Max=1.05D-07 NDo=     1
 LinEq1:  Iter=  8 NonCon=     0 RMS=1.93D-09 Max=1.36D-08 NDo=     1
 Linear equations converged to 2.252D-09 2.252D-08 after     8 iterations.
     Accept linear search using points  1 and  2.
     Minimum is close to point  2 DX= -8.91D-02 DF= -2.90D-06 DXR=  9.78D-02 DFR=  1.03D-02 which will be used.
 LinEq1:  Iter=  0 NonCon=     1 RMS=3.90D-05 Max=3.40D-04 NDo=     1
 LinEq1:  Iter=  1 NonCon=     1 RMS=1.04D-05 Max=1.36D-04 NDo=     1
 LinEq1:  Iter=  2 NonCon=     1 RMS=1.27D-06 Max=7.98D-06 NDo=     1
 LinEq1:  Iter=  3 NonCon=     1 RMS=3.12D-07 Max=3.21D-06 NDo=     1
 LinEq1:  Iter=  4 NonCon=     1 RMS=9.42D-08 Max=8.82D-07 NDo=     1
 LinEq1:  Iter=  5 NonCon=     1 RMS=1.79D-08 Max=1.10D-07 NDo=     1
 LinEq1:  Iter=  6 NonCon=     1 RMS=4.53D-09 Max=2.66D-08 NDo=     1
 LinEq1:  Iter=  7 NonCon=     0 RMS=9.93D-10 Max=5.73D-09 NDo=     1
 Linear equations converged to 2.252D-09 2.252D-08 after     7 iterations.
     Minimum is close to point  2 DX=  2.40D-02 DF= -2.25D-09 DXR=  2.34D-02 DFR=  5.48D-04 which will be used.
 LinEq1:  Iter=  0 NonCon=     1 RMS=1.41D-06 Max=1.15D-05 NDo=     1
 LinEq1:  Iter=  1 NonCon=     1 RMS=4.54D-07 Max=3.49D-06 NDo=     1
 LinEq1:  Iter=  2 NonCon=     1 RMS=1.01D-07 Max=6.79D-07 NDo=     1
 LinEq1:  Iter=  3 NonCon=     1 RMS=2.24D-08 Max=2.49D-07 NDo=     1
 LinEq1:  Iter=  4 NonCon=     1 RMS=5.98D-09 Max=6.05D-08 NDo=     1
 LinEq1:  Iter=  5 NonCon=     1 RMS=1.48D-09 Max=1.11D-08 NDo=     1
 LinEq1:  Iter=  6 NonCon=     1 RMS=2.94D-10 Max=2.08D-09 NDo=     1
 LinEq1:  Iter=  7 NonCon=     0 RMS=6.87D-11 Max=7.14D-10 NDo=     1
 Linear equations converged to 2.421D-10 2.421D-09 after     7 iterations.
 LinEq1:  Iter=  0 NonCon=     1 RMS=5.12D-08 Max=5.32D-07 NDo=     1
 LinEq1:  Iter=  1 NonCon=     1 RMS=1.71D-08 Max=1.58D-07 NDo=     1
 LinEq1:  Iter=  2 NonCon=     1 RMS=4.03D-09 Max=2.69D-08 NDo=     1
 LinEq1:  Iter=  3 NonCon=     1 RMS=8.40D-10 Max=6.28D-09 NDo=     1
 LinEq1:  Iter=  4 NonCon=     1 RMS=1.74D-10 Max=1.86D-09 NDo=     1
 LinEq1:  Iter=  5 NonCon=     1 RMS=4.57D-11 Max=3.51D-10 NDo=     1
 LinEq1:  Iter=  6 NonCon=     1 RMS=1.12D-11 Max=9.41D-11 NDo=     1
 LinEq1:  Iter=  7 NonCon=     0 RMS=2.85D-12 Max=2.28D-11 NDo=     1
 Linear equations converged to 6.822D-12 6.822D-11 after     7 iterations.
 SCF Done:  E(UAM1) =  0.522754279634     a.u. after    7 cycles
            Convg  =    0.2571D-07                    55 Fock formations.
              S**2 =  1.6286                  -V/T =  1.0077
 <Sx>= 0.0000 <Sy>= 0.0000 <Sz>= 0.5000 <S**2>= 1.6286 S= 0.8706
 <L.S>=  0.00000000000    
 Annihilation of the first spin contaminant:
 S**2 before annihilation     1.6286,   after     1.8085
 Calling FoFJK, ICntrl=      2127 FMM=F ISym2X=1 I1Cent= 0 IOpClX= 1 NMat=1 NMatS=1 NMatT=0.
 ***** Axes restored to original set *****
 -------------------------------------------------------------------
 Center     Atomic                   Forces (Hartrees/Bohr)
 Number     Number              X              Y              Z
 -------------------------------------------------------------------
      1        6          -0.076328254    0.058480905   -0.000000000
      2        6           0.006060569    0.095658214   -0.000000000
      3        6          -0.038247501   -0.023506332   -0.000000000
      4        6           0.088078056   -0.037804448   -0.000000000
      5        6           0.017706044   -0.094515839   -0.000000000
      6        6          -0.024481528   -0.015041170   -0.000000000
      7       17           0.025321452    0.015562044   -0.000000000
      8        1           0.102249545   -0.056013785    0.000000000
      9        1           0.003095214   -0.113277302    0.000000000
     10        1          -0.099665280    0.053929914    0.000000000
     11        1          -0.003788317    0.116527800    0.000000000
 -------------------------------------------------------------------
 Cartesian Forces:  Max     0.116527800 RMS     0.053217618

 GradGradGradGradGradGradGradGradGradGradGradGradGradGradGradGradGradGrad
 Berny optimization.
 Using GEDIIS/GDIIS optimizer.
 FormGI is forming the generalized inverse of G from B-inverse, IUseBI=4.
 Internal  Forces:  Max     0.116588363 RMS     0.034905950
 Search for a local minimum.
 Step number   2 out of a maximum of   57
 All quantities printed in internal units (Hartrees-Bohrs-Radians)
 Mixed Optimization -- RFO/linear search
 Update second derivatives using D2CorX and points    1    2
 DE= -8.09D-02 DEPred=-6.17D-02 R= 1.31D+00
 TightC=F SS=  1.41D+00  RLast= 3.00D-01 DXNew= 5.0454D-01 9.0000D-01
 Trust test= 1.31D+00 RLast= 3.00D-01 DXMaxT set to 5.05D-01
 ITU=  1  0
 Use linear search instead of GDIIS.
     Eigenvalues ---   -0.27997   0.02011   0.02011   0.02011   0.02011
     Eigenvalues ---    0.02011   0.02011   0.02011   0.02011   0.04678
     Eigenvalues ---    0.06524   0.06524   0.11476   0.15999   0.16000
     Eigenvalues ---    0.16000   0.16012   0.22000   0.23241   0.23993
     Eigenvalues ---    0.25000   0.30115   0.40641   0.41215   0.44653
     Eigenvalues ---    0.44656   0.44657
 RFO step:  Lambda=-3.58969534D-01 EMin=-2.79966346D-01
 Skip linear search -- no minimum in search direction.
 Maximum step size (   0.505) exceeded in Quadratic search.
    -- Step size scaled by   0.463
 Iteration  1 RMS(Cart)=  0.04655520 RMS(Int)=  0.01542728
 Iteration  2 RMS(Cart)=  0.01517617 RMS(Int)=  0.00001118
 Iteration  3 RMS(Cart)=  0.00000118 RMS(Int)=  0.00001117
 Iteration  4 RMS(Cart)=  0.00000000 RMS(Int)=  0.00001117
 ClnCor:  largest displacement from symmetrization is 9.72D-09 for atom     1.
 Variable       Old X    -DE/DX   Delta X   Delta X   Delta X     New X
                                 (Linear)    (Quad)   (Total)
    R1        2.63136  -0.02387   0.00000   0.05119   0.05119   2.68255
    R2        2.64294  -0.00760   0.00000   0.05391   0.05392   2.69686
    R3        3.19488  -0.11659   0.00000  -0.27387  -0.27387   2.92102
    R4        2.62766  -0.03090   0.00000   0.04076   0.04075   2.66841
    R5        3.18558  -0.11332   0.00000  -0.21161  -0.21161   2.97397
    R6        2.62766  -0.03090   0.00000   0.04077   0.04075   2.66842
    R7        2.63137  -0.02388   0.00000   0.05119   0.05119   2.68256
    R8        3.18557  -0.11332   0.00000  -0.21161  -0.21161   2.97396
    R9        2.64292  -0.00759   0.00000   0.05391   0.05392   2.69685
   R10        3.19485  -0.11659   0.00000  -0.27386  -0.27386   2.92099
   R11        3.30773  -0.02972   0.00000   0.00221   0.00221   3.30994
    A1        2.09740   0.00039   0.00000  -0.00938  -0.00936   2.08804
    A2        2.09390   0.00058   0.00000   0.00464   0.00463   2.09853
    A3        2.09188  -0.00097   0.00000   0.00474   0.00473   2.09661
    A4        2.08894  -0.00490   0.00000  -0.00222  -0.00224   2.08670
    A5        2.09755   0.00307   0.00000   0.00295   0.00295   2.10050
    A6        2.09670   0.00184   0.00000  -0.00072  -0.00072   2.09598
    A7        2.10611   0.01490   0.00000   0.01233   0.01229   2.11839
    A8        2.08894  -0.00490   0.00000  -0.00223  -0.00224   2.08670
    A9        2.09670   0.00184   0.00000  -0.00072  -0.00072   2.09599
   A10        2.09755   0.00307   0.00000   0.00295   0.00296   2.10050
   A11        2.09741   0.00039   0.00000  -0.00938  -0.00936   2.08805
   A12        2.09390   0.00058   0.00000   0.00464   0.00463   2.09853
   A13        2.09188  -0.00097   0.00000   0.00474   0.00473   2.09661
   A14        2.08758  -0.00588   0.00000   0.01088   0.01091   2.09849
   A15        2.09780   0.00294   0.00000  -0.00544  -0.00546   2.09235
   A16        2.09780   0.00294   0.00000  -0.00544  -0.00546   2.09235
    D1       -0.00000  -0.00000   0.00000  -0.00000   0.00000   0.00000
    D2        3.14159   0.00000   0.00000  -0.00000   0.00000   3.14159
    D3        3.14159  -0.00000   0.00000   0.00000   0.00000   3.14159
    D4        0.00000   0.00000   0.00000  -0.00000   0.00000   0.00000
    D5        0.00000   0.00000   0.00000  -0.00000   0.00000   0.00000
    D6        3.14159  -0.00000   0.00000   0.00000   0.00000   3.14159
    D7        3.14159   0.00000   0.00000  -0.00000   0.00000   3.14159
    D8       -0.00000   0.00000   0.00000  -0.00000   0.00000   0.00000
    D9        0.00000  -0.00000   0.00000   0.00000   0.00000   0.00000
   D10        3.14159  -0.00000   0.00000   0.00000   0.00000   3.14159
   D11       -0.00000   0.00000   0.00000   0.00000   0.00000   0.00000
   D12        3.14159   0.00000   0.00000  -0.00000   0.00000   3.14159
   D13        0.00000   0.00000   0.00000  -0.00000  -0.00000   0.00000
   D14        3.14159   0.00000   0.00000  -0.00000   0.00000   3.14159
   D15        3.14159  -0.00000   0.00000   0.00000   0.00000   3.14159
   D16       -0.00000  -0.00000   0.00000  -0.00000   0.00000   0.00000
   D17       -0.00000  -0.00000   0.00000   0.00000   0.00000   0.00000
   D18        3.14159   0.00000   0.00000   0.00000   0.00000   3.14159
   D19        3.14159  -0.00000   0.00000   0.00000   0.00000   3.14159
   D20        0.00000  -0.00000   0.00000   0.00000  -0.00000   0.00000
         Item               Value     Threshold  Converged?
 Maximum Force            0.116588     0.000450     NO 
 RMS     Force            0.034906     0.000300     NO 
 Maximum Displacement     0.212342     0.001800     NO 
 RMS     Displacement     0.058558     0.001200     NO 
 Predicted change in Energy=-1.346311D-01
 GradGradGradGradGradGradGradGradGradGradGradGradGradGradGradGradGradGrad

                          Input orientation:                          
 ---------------------------------------------------------------------
 Center     Atomic      Atomic             Coordinates (Angstroms)
 Number     Number       Type             X           Y           Z
 ---------------------------------------------------------------------
      1          6           0       -3.228268    0.211037    0.000000
      2          6           0       -2.015674    0.949090    0.000000
      3          6           0       -0.782019    0.262055    0.000000
      4          6           0       -0.726306   -1.148910    0.000000
      5          6           0       -1.932510   -1.897373    0.000000
      6          6           0       -3.186159   -1.215458   -0.000000
      7         17           0       -4.678420   -2.132556   -0.000000
      8          1           0       -4.587510    0.947079   -0.000000
      9          1           0       -2.042507    2.522619    0.000000
     10          1           0        0.665422   -1.883618    0.000000
     11          1           0       -1.889800   -3.442505   -0.000000
 ---------------------------------------------------------------------
                    Distance matrix (angstroms):
                    1          2          3          4          5
     1  C    0.000000
     2  C    1.419545   0.000000
     3  C    2.446782   1.412063   0.000000
     4  C    2.847679   2.462534   1.412065   0.000000
     5  C    2.474749   2.847677   2.446786   1.419551   0.000000
     6  C    1.427117   2.460752   2.821867   2.460753   1.427110
     7  Cl   2.755969   4.072684   4.573413   4.072685   2.755963
     8  H    1.545735   2.571838   3.866656   4.393412   3.891007
     9  H    2.597969   1.573758   2.588239   3.900323   4.421361
    10  H    4.421358   3.900321   2.588242   1.573754   2.597969
    11  H    3.890999   4.393399   3.866646   2.571828   1.545722
                    6          7          8          9         10
     6  C    0.000000
     7  Cl   1.751546   0.000000
     8  H    2.576889   3.080976   0.000000
     9  H    3.909113   5.349644   2.993220   0.000000
    10  H    3.909106   5.349637   5.967088   5.171828   0.000000
    11  H    2.576875   3.080969   5.152290   5.967079   2.993207
                   11
    11  H    0.000000
 Stoichiometry    C6H4Cl(2)
 Framework group  CS[SG(C6H4Cl)]
 Deg. of freedom    19
 Full point group                 CS      NOp   2
 Largest Abelian subgroup         CS      NOp   2
 Largest concise Abelian subgroup C1      NOp   1
                         Standard orientation:                         
 ---------------------------------------------------------------------
 Center     Atomic      Atomic             Coordinates (Angstroms)
 Number     Number       Type             X           Y           Z
 ---------------------------------------------------------------------
      1          6           0       -1.237375   -0.237454   -0.000000
      2          6           0       -1.231261   -1.656986    0.000000
      3          6           0        0.000006   -2.348290    0.000000
      4          6           0        1.231273   -1.656980    0.000000
      5          6           0        1.237374   -0.237442    0.000000
      6          6           0        0.000000    0.473577   -0.000000
      7         17           0       -0.000006    2.225122   -0.000000
      8          1           0       -2.576152    0.535186   -0.000000
      9          1           0       -2.585906   -2.458018    0.000000
     10          1           0        2.585922   -2.457996    0.000000
     11          1           0        2.576138    0.535196    0.000000
 ---------------------------------------------------------------------
 Rotational constants (GHZ):           5.0544875           1.5710453           1.1985193
 Standard basis: VSTO-6G (5D, 7F)
 There are    25 symmetry adapted cartesian basis functions of A'  symmetry.
 There are     7 symmetry adapted cartesian basis functions of A"  symmetry.
 There are    25 symmetry adapted basis functions of A'  symmetry.
 There are     7 symmetry adapted basis functions of A"  symmetry.
    32 basis functions,   192 primitive gaussians,    32 cartesian basis functions
    18 alpha electrons       17 beta electrons
       nuclear repulsion energy       148.4346978879 Hartrees.
 Integral buffers will be    131072 words long.
 Regular integral format.
 Two-electron integral symmetry is turned off.
 Do NDO integrals.
 One-electron integrals computed using PRISM.
 NBasis=    32 RedAO= T EigKep=  1.00D+00  NBF=    25     7
 NBsUse=    32 1.00D-06 EigRej= -1.00D+00 NBFU=    25     7
 Initial guess from the checkpoint file:  "geometry_chks/14-1_-ClBzNeutralRadical.chk"
 B after Tr=    -0.000000    0.000000    0.000000
         Rot=    1.000000    0.000000    0.000000    0.000000 Ang=   0.00 deg.
 Initial guess orbital symmetries:
 Alpha Orbitals:
       Occupied  (A') (A') (A') (A') (A') (A') (A') (A') (A") (A')
                 (A") (A') (A') (A') (A') (A') (A") (A")
       Virtual   (A') (A") (A') (A') (A") (A') (A') (A") (A') (A')
                 (A') (A') (A') (A')
 Beta  Orbitals:
       Occupied  (A') (A') (A') (A') (A') (A') (A') (A') (A") (A')
                 (A") (A') (A') (A') (A') (A") (A")
       Virtual   (A') (A') (A') (A') (A") (A") (A') (A') (A") (A')
                 (A') (A') (A') (A') (A')
 Initial guess <Sx>= 0.0000 <Sy>= 0.0000 <Sz>= 0.5000 <S**2>= 1.6286 S= 0.8706
 Keep J ints in memory in canonical form, NReq=862079.
 Overlap will be assumed to be unity.
 Requested convergence on RMS density matrix=1.00D-08 within  32 cycles.
 Requested convergence on MAX density matrix=1.00D-06.
 Requested convergence on             energy=1.00D-06.
 No special actions if energy rises.
 Fock symm off for IB=2 I1=    1 I=   26 J=   10 Cut=1.00D-07 Err=1.63D-03
 Fock matrix is not symmetric: symmetry in diagonalization turned off.
 SCF Done:  E(UAM1) =  0.416143025416     A.U. after   19 cycles
            NFock= 18  Conv=0.82D-08     -V/T= 1.0061
 <Sx>= 0.0000 <Sy>= 0.0000 <Sz>= 0.5000 <S**2>= 1.4450 S= 0.8019
 <L.S>=  0.00000000000    
 Annihilation of the first spin contaminant:
 S**2 before annihilation     1.4450,   after     1.2410
 QCSCF skips out because SCF is already converged.
 Calling FoFJK, ICntrl=      2127 FMM=F ISym2X=1 I1Cent= 0 IOpClX= 1 NMat=1 NMatS=1 NMatT=0.
 ***** Axes restored to original set *****
 -------------------------------------------------------------------
 Center     Atomic                   Forces (Hartrees/Bohr)
 Number     Number              X              Y              Z
 -------------------------------------------------------------------
      1        6          -0.056338213    0.041700039   -0.000000000
      2        6           0.003733247    0.078041284   -0.000000000
      3        6          -0.060006367   -0.036881413   -0.000000000
      4        6           0.071308558   -0.031920066    0.000000000
      5        6           0.011763453   -0.069098609   -0.000000000
      6        6           0.003552172    0.002186986   -0.000000000
      7       17           0.028186046    0.017322546   -0.000000000
      8        1           0.107292799   -0.058571000    0.000000000
      9        1           0.002138576   -0.121955110    0.000000000
     10        1          -0.107838642    0.056995783    0.000000000
     11        1          -0.003791629    0.122179559    0.000000000
 -------------------------------------------------------------------
 Cartesian Forces:  Max     0.122179559 RMS     0.051565443

 GradGradGradGradGradGradGradGradGradGradGradGradGradGradGradGradGradGrad
 Berny optimization.
 Using GEDIIS/GDIIS optimizer.
 FormGI is forming the generalized inverse of G from B-inverse, IUseBI=4.
 Internal  Forces:  Max     0.122238027 RMS     0.040331884
 Search for a local minimum.
 Step number   3 out of a maximum of   57
 All quantities printed in internal units (Hartrees-Bohrs-Radians)
 Mixed Optimization -- RFO/linear search
 Update second derivatives using D2CorX and points    2    3
 DE= -1.07D-01 DEPred=-1.35D-01 R= 7.92D-01
 TightC=F SS=  1.41D+00  RLast= 5.05D-01 DXNew= 8.4853D-01 1.5136D+00
 Trust test= 7.92D-01 RLast= 5.05D-01 DXMaxT set to 8.49D-01
 ITU=  1  1  0
 Use linear search instead of GDIIS.
     Eigenvalues ---    0.00029   0.02011   0.02011   0.02011   0.02011
     Eigenvalues ---    0.02011   0.02011   0.02011   0.02011   0.06524
     Eigenvalues ---    0.06524   0.06740   0.15993   0.16000   0.16000
     Eigenvalues ---    0.16003   0.22000   0.22458   0.23691   0.25000
     Eigenvalues ---    0.28080   0.39643   0.40800   0.44579   0.44656
     Eigenvalues ---    0.44657   3.04670
 RFO step:  Lambda=-2.22741244D-01 EMin= 2.87791508D-04
 Skip linear search -- no minimum in search direction.
 Maximum step size (   0.849) exceeded in Quadratic search.
    -- Step size scaled by   0.870
 Iteration  1 RMS(Cart)=  0.04831327 RMS(Int)=  0.06367814
 Iteration  2 RMS(Cart)=  0.05841685 RMS(Int)=  0.00692769
 Iteration  3 RMS(Cart)=  0.00678426 RMS(Int)=  0.00001702
 Iteration  4 RMS(Cart)=  0.00000017 RMS(Int)=  0.00001702
 ClnCor:  largest displacement from symmetrization is 2.33D-08 for atom    10.
 Variable       Old X    -DE/DX   Delta X   Delta X   Delta X     New X
                                 (Linear)    (Quad)   (Total)
    R1        2.68255  -0.05322   0.00000   0.04269   0.04269   2.72524
    R2        2.69686  -0.04138   0.00000   0.07909   0.07911   2.77597
    R3        2.92102  -0.12224   0.00000  -0.43350  -0.43350   2.48752
    R4        2.66841  -0.05607   0.00000   0.01557   0.01554   2.68396
    R5        2.97397  -0.12197   0.00000  -0.40135  -0.40135   2.57262
    R6        2.66842  -0.05607   0.00000   0.01557   0.01555   2.68397
    R7        2.68256  -0.05323   0.00000   0.04269   0.04269   2.72525
    R8        2.97396  -0.12197   0.00000  -0.40136  -0.40136   2.57261
    R9        2.69685  -0.04137   0.00000   0.07910   0.07912   2.77597
   R10        2.92099  -0.12224   0.00000  -0.43351  -0.43351   2.48748
   R11        3.30994  -0.03308   0.00000  -0.05591  -0.05591   3.25403
    A1        2.08804   0.00075   0.00000  -0.00380  -0.00378   2.08427
    A2        2.09853   0.00023   0.00000   0.00438   0.00436   2.10290
    A3        2.09661  -0.00098   0.00000  -0.00057  -0.00059   2.09602
    A4        2.08670  -0.00640   0.00000  -0.01135  -0.01137   2.07533
    A5        2.10050   0.00329   0.00000   0.00946   0.00947   2.10997
    A6        2.09598   0.00311   0.00000   0.00190   0.00191   2.09789
    A7        2.11839   0.01426   0.00000   0.03962   0.03956   2.15795
    A8        2.08670  -0.00640   0.00000  -0.01135  -0.01137   2.07532
    A9        2.09599   0.00311   0.00000   0.00190   0.00191   2.09789
   A10        2.10050   0.00329   0.00000   0.00946   0.00947   2.10997
   A11        2.08805   0.00075   0.00000  -0.00380  -0.00378   2.08427
   A12        2.09853   0.00023   0.00000   0.00438   0.00436   2.10289
   A13        2.09661  -0.00098   0.00000  -0.00057  -0.00059   2.09603
   A14        2.09849  -0.00296   0.00000  -0.00931  -0.00926   2.08923
   A15        2.09235   0.00148   0.00000   0.00465   0.00463   2.09697
   A16        2.09235   0.00148   0.00000   0.00465   0.00463   2.09698
    D1        0.00000  -0.00000   0.00000  -0.00000  -0.00000   0.00000
    D2        3.14159   0.00000   0.00000   0.00000   0.00000   3.14159
    D3        3.14159  -0.00000   0.00000  -0.00000   0.00000   3.14159
    D4        0.00000  -0.00000   0.00000   0.00000   0.00000   0.00000
    D5       -0.00000   0.00000   0.00000   0.00000   0.00000   0.00000
    D6        3.14159   0.00000   0.00000  -0.00000   0.00000   3.14159
    D7        3.14159   0.00000   0.00000   0.00000   0.00000   3.14159
    D8        0.00000   0.00000   0.00000  -0.00000  -0.00000   0.00000
    D9        0.00000  -0.00000   0.00000   0.00000   0.00000   0.00000
   D10        3.14159  -0.00000   0.00000  -0.00000   0.00000   3.14159
   D11       -0.00000   0.00000   0.00000  -0.00000   0.00000   0.00000
   D12        3.14159   0.00000   0.00000   0.00000   0.00000   3.14159
   D13       -0.00000   0.00000   0.00000   0.00000   0.00000   0.00000
   D14        3.14159   0.00000   0.00000   0.00000   0.00000   3.14159
   D15        3.14159  -0.00000   0.00000  -0.00000   0.00000   3.14159
   D16       -0.00000   0.00000   0.00000  -0.00000   0.00000   0.00000
   D17        0.00000  -0.00000   0.00000  -0.00000  -0.00000   0.00000
   D18        3.14159  -0.00000   0.00000   0.00000   0.00000   3.14159
   D19        3.14159  -0.00000   0.00000  -0.00000   0.00000   3.14159
   D20       -0.00000  -0.00000   0.00000   0.00000   0.00000   0.00000
         Item               Value     Threshold  Converged?
 Maximum Force            0.122238     0.000450     NO 
 RMS     Force            0.040332     0.000300     NO 
 Maximum Displacement     0.368805     0.001800     NO 
 RMS     Displacement     0.108274     0.001200     NO 
 Predicted change in Energy=-1.896676D-01
 GradGradGradGradGradGradGradGradGradGradGradGradGradGradGradGradGradGrad

                          Input orientation:                          
 ---------------------------------------------------------------------
 Center     Atomic      Atomic             Coordinates (Angstroms)
 Number     Number       Type             X           Y           Z
 ---------------------------------------------------------------------
      1          6           0       -3.255715    0.232785    0.000000
      2          6           0       -2.017563    0.972204    0.000000
      3          6           0       -0.790631    0.256763    0.000000
      4          6           0       -0.706536   -1.161040    0.000000
      5          6           0       -1.925501   -1.931685    0.000000
      6          6           0       -3.219165   -1.235743   -0.000000
      7         17           0       -4.686218   -2.137347   -0.000000
      8          1           0       -4.410695    0.864266   -0.000000
      9          1           0       -2.016447    2.333577    0.000000
     10          1           0        0.508534   -1.774978    0.000000
     11          1           0       -1.883814   -3.247342   -0.000000
 ---------------------------------------------------------------------
                    Distance matrix (angstroms):
                    1          2          3          4          5
     1  C    0.000000
     2  C    1.442138   0.000000
     3  C    2.465200   1.420288   0.000000
     4  C    2.905350   2.503901   1.420295   0.000000
     5  C    2.540551   2.905348   2.465204   1.442140   0.000000
     6  C    1.468983   2.513737   2.850500   2.513739   1.468980
     7  Cl   2.768368   4.097685   4.572456   4.097687   2.768367
     8  H    1.316338   2.395565   3.670684   4.221689   3.740793
     9  H    2.439081   1.361374   2.411594   3.732053   4.266232
    10  H    4.266226   3.732047   2.411597   1.361366   2.439075
    11  H    3.740775   4.221665   3.670667   2.395545   1.316317
                    6          7          8          9         10
     6  C    0.000000
     7  Cl   1.721957   0.000000
     8  H    2.414494   3.014231   0.000000
     9  H    3.766507   5.207383   2.809146   0.000000
    10  H    3.766499   5.207376   5.582511   4.822422   0.000000
    11  H    2.414476   3.014226   4.826018   5.582495   2.809125
                   11
    11  H    0.000000
 Stoichiometry    C6H4Cl(2)
 Framework group  CS[SG(C6H4Cl)]
 Deg. of freedom    19
 Full point group                 CS      NOp   2
 Largest Abelian subgroup         CS      NOp   2
 Largest concise Abelian subgroup C1      NOp   1
                         Standard orientation:                         
 ---------------------------------------------------------------------
 Center     Atomic      Atomic             Coordinates (Angstroms)
 Number     Number       Type             X           Y           Z
 ---------------------------------------------------------------------
      1          6           0       -1.270275   -0.232574    0.000000
      2          6           0       -1.251945   -1.674595   -0.000000
      3          6           0        0.000003   -2.345299   -0.000000
      4          6           0        1.251956   -1.674590   -0.000000
      5          6           0        1.270276   -0.232567   -0.000000
      6          6           0       -0.000000    0.505200    0.000000
      7         17           0       -0.000005    2.227157    0.000000
      8          1           0       -2.413018    0.420790    0.000000
      9          1           0       -2.411206   -2.388355   -0.000000
     10          1           0        2.411216   -2.388336   -0.000000
     11          1           0        2.413000    0.420789   -0.000000
 ---------------------------------------------------------------------
 Rotational constants (GHZ):           5.0639814           1.5663612           1.1963219
 Standard basis: VSTO-6G (5D, 7F)
 There are    25 symmetry adapted cartesian basis functions of A'  symmetry.
 There are     7 symmetry adapted cartesian basis functions of A"  symmetry.
 There are    25 symmetry adapted basis functions of A'  symmetry.
 There are     7 symmetry adapted basis functions of A"  symmetry.
    32 basis functions,   192 primitive gaussians,    32 cartesian basis functions
    18 alpha electrons       17 beta electrons
       nuclear repulsion energy       149.0016247343 Hartrees.
 Integral buffers will be    131072 words long.
 Regular integral format.
 Two-electron integral symmetry is turned off.
 Do NDO integrals.
 One-electron integrals computed using PRISM.
 NBasis=    32 RedAO= T EigKep=  1.00D+00  NBF=    25     7
 NBsUse=    32 1.00D-06 EigRej= -1.00D+00 NBFU=    25     7
 Initial guess from the checkpoint file:  "geometry_chks/14-1_-ClBzNeutralRadical.chk"
 B after Tr=     0.000000   -0.000000   -0.000000
         Rot=    1.000000   -0.000000    0.000000    0.000000 Ang=   0.00 deg.
 Initial guess orbital symmetries:
 Alpha Orbitals:
       Occupied  (A') (A') (A') (A') (A') (A') (A') (A') (A') (A")
                 (A') (A') (A") (A') (A') (A') (A") (A")
       Virtual   (A") (A") (A') (A') (A') (A') (A') (A") (A') (A')
                 (A') (A') (A') (A')
 Beta  Orbitals:
       Occupied  (A') (A') (A') (A') (A') (A') (A') (A') (A") (A')
                 (A') (A') (A") (A') (A') (A") (A")
       Virtual   (A') (A") (A') (A") (A') (A') (A') (A') (A") (A')
                 (A') (A') (A') (A') (A')
 Initial guess <Sx>= 0.0000 <Sy>= 0.0000 <Sz>= 0.5000 <S**2>= 1.4450 S= 0.8019
 Keep J ints in memory in canonical form, NReq=862079.
 Overlap will be assumed to be unity.
 Requested convergence on RMS density matrix=1.00D-08 within  32 cycles.
 Requested convergence on MAX density matrix=1.00D-06.
 Requested convergence on             energy=1.00D-06.
 No special actions if energy rises.
 Fock symm off for IB=2 I1=    1 I=   26 J=   15 Cut=1.00D-07 Err=4.66D-03
 Fock matrix is not symmetric: symmetry in diagonalization turned off.
 SCF Done:  E(UAM1) =  0.238338147762     A.U. after   18 cycles
            NFock= 17  Conv=0.18D-08     -V/T= 1.0035
 <Sx>= 0.0000 <Sy>= 0.0000 <Sz>= 0.5000 <S**2>= 1.5375 S= 0.8370
 <L.S>=  0.00000000000    
 Annihilation of the first spin contaminant:
 S**2 before annihilation     1.5375,   after     1.3558
 QCSCF skips out because SCF is already converged.
 Calling FoFJK, ICntrl=      2127 FMM=F ISym2X=1 I1Cent= 0 IOpClX= 1 NMat=1 NMatS=1 NMatT=0.
 ***** Axes restored to original set *****
 -------------------------------------------------------------------
 Center     Atomic                   Forces (Hartrees/Bohr)
 Number     Number              X              Y              Z
 -------------------------------------------------------------------
      1        6          -0.023731371    0.005546262   -0.000000000
      2        6           0.000371825    0.047709466   -0.000000000
      3        6          -0.065247393   -0.040104464   -0.000000000
      4        6           0.042729502   -0.021214038    0.000000000
      5        6          -0.005767970   -0.023673492   -0.000000000
      6        6           0.044534503    0.027371419    0.000000000
      7       17           0.021266466    0.013069728   -0.000000000
      8        1           0.084620710   -0.046755130    0.000000000
      9        1          -0.000928130   -0.105293201    0.000000000
     10        1          -0.094357389    0.046733048    0.000000000
     11        1          -0.003490754    0.096610401    0.000000000
 -------------------------------------------------------------------
 Cartesian Forces:  Max     0.105293201 RMS     0.041131085

 GradGradGradGradGradGradGradGradGradGradGradGradGradGradGradGradGradGrad
 Berny optimization.
 Using GEDIIS/GDIIS optimizer.
 FormGI is forming the generalized inverse of G from B-inverse, IUseBI=4.
 Internal  Forces:  Max     0.105293927 RMS     0.038746835
 Search for a local minimum.
[...]
 RFO step:  Lambda=-6.08263365D-07 EMin= 2.01064748D-02
 Quartic linear search produced a step of -0.03588.
 Iteration  1 RMS(Cart)=  0.00025224 RMS(Int)=  0.00000003
 Iteration  2 RMS(Cart)=  0.00000004 RMS(Int)=  0.00000000
 ClnCor:  largest displacement from symmetrization is 2.86D-13 for atom     7.
 Variable       Old X    -DE/DX   Delta X   Delta X   Delta X     New X
                                 (Linear)    (Quad)   (Total)
    R1        2.65851   0.00017   0.00005   0.00019   0.00024   2.65874
    R2        2.65947   0.00016   0.00015   0.00007   0.00023   2.65969
    R3        2.07628   0.00021  -0.00008   0.00038   0.00030   2.07658
    R4        2.59144  -0.00005  -0.00000  -0.00017  -0.00017   2.59127
    R5        2.07207   0.00001   0.00002   0.00008   0.00009   2.07216
    R6        2.59144  -0.00005  -0.00000  -0.00017  -0.00017   2.59127
    R7        2.65851   0.00017   0.00005   0.00020   0.00025   2.65875
    R8        2.07208   0.00001   0.00002   0.00002   0.00004   2.07212
    R9        2.65946   0.00017   0.00015   0.00009   0.00024   2.65970
   R10        2.07611   0.00027  -0.00007   0.00130   0.00123   2.07733
   R11        3.21091   0.00000   0.00010  -0.00016  -0.00006   3.21085
    A1        2.08137  -0.00003  -0.00004  -0.00003  -0.00007   2.08130
    A2        2.09810  -0.00001   0.00002  -0.00011  -0.00009   2.09800
    A3        2.10372   0.00004   0.00002   0.00014   0.00017   2.10388
    A4        2.00976   0.00006   0.00009   0.00013   0.00021   2.00997
    A5        2.12826  -0.00005  -0.00001  -0.00024  -0.00025   2.12801
    A6        2.14517  -0.00001  -0.00008   0.00011   0.00004   2.14520
    A7        2.25360  -0.00000  -0.00006  -0.00009  -0.00016   2.25344
    A8        2.00976   0.00006   0.00009   0.00013   0.00022   2.00998
    A9        2.14517  -0.00001  -0.00008   0.00011   0.00003   2.14520
   A10        2.12826  -0.00005  -0.00001  -0.00024  -0.00025   2.12801
   A11        2.08138  -0.00003  -0.00004  -0.00005  -0.00009   2.08129
   A12        2.09809  -0.00001   0.00002  -0.00010  -0.00009   2.09801
   A13        2.10371   0.00004   0.00002   0.00015   0.00018   2.10389
   A14        2.13050  -0.00006  -0.00003  -0.00008  -0.00012   2.13039
   A15        2.07634   0.00003   0.00002   0.00004   0.00006   2.07640
   A16        2.07634   0.00003   0.00002   0.00004   0.00006   2.07640
    D1        0.00000   0.00000   0.00000   0.00000   0.00000   0.00000
    D2        3.14159   0.00000   0.00000   0.00000   0.00000   3.14159
    D3        3.14159  -0.00000   0.00000  -0.00000   0.00000   3.14159
    D4        0.00000  -0.00000   0.00000  -0.00000   0.00000   0.00000
    D5        0.00000   0.00000   0.00000   0.00000   0.00000   0.00000
    D6        3.14159  -0.00000   0.00000  -0.00000   0.00000   3.14159
    D7        3.14159   0.00000   0.00000   0.00000   0.00000   3.14159
    D8        0.00000   0.00000   0.00000   0.00000   0.00000   0.00000
    D9        0.00000  -0.00000   0.00000  -0.00000   0.00000   0.00000
   D10        3.14159  -0.00000   0.00000  -0.00000   0.00000   3.14159
   D11        0.00000  -0.00000   0.00000  -0.00000   0.00000   0.00000
   D12        3.14159   0.00000   0.00000   0.00000   0.00000   3.14159
   D13        0.00000   0.00000   0.00000   0.00000   0.00000   0.00000
   D14        3.14159   0.00000   0.00000   0.00000   0.00000   3.14159
   D15        3.14159  -0.00000   0.00000  -0.00000   0.00000   3.14159
   D16        0.00000   0.00000   0.00000   0.00000   0.00000   0.00000
   D17        0.00000  -0.00000   0.00000  -0.00000   0.00000   0.00000
   D18        3.14159   0.00000   0.00000   0.00000   0.00000   3.14159
   D19        3.14159  -0.00000   0.00000  -0.00000   0.00000   3.14159
   D20        0.00000  -0.00000   0.00000  -0.00000   0.00000   0.00000
         Item               Value     Threshold  Converged?
 Maximum Force            0.000274     0.000450     YES
 RMS     Force            0.000074     0.000300     YES
 Maximum Displacement     0.001308     0.001800     YES
 RMS     Displacement     0.000252     0.001200     YES
 Predicted change in Energy=-3.294457D-07
 Optimization completed.
    -- Stationary point found.
                           ----------------------------
                           !   Optimized Parameters   !
                           ! (Angstroms and Degrees)  !
 --------------------------                            --------------------------
 ! Name  Definition              Value          Derivative Info.                !
 --------------------------------------------------------------------------------
 ! R1    R(1,2)                  1.4068         -DE/DX =    0.0002              !
 ! R2    R(1,6)                  1.4073         -DE/DX =    0.0002              !
 ! R3    R(1,8)                  1.0987         -DE/DX =    0.0002              !
 ! R4    R(2,3)                  1.3713         -DE/DX =   -0.0001              !
 ! R5    R(2,9)                  1.0965         -DE/DX =    0.0                 !
 ! R6    R(3,4)                  1.3713         -DE/DX =   -0.0001              !
 ! R7    R(4,5)                  1.4068         -DE/DX =    0.0002              !
 ! R8    R(4,10)                 1.0965         -DE/DX =    0.0                 !
 ! R9    R(5,6)                  1.4073         -DE/DX =    0.0002              !
 ! R10   R(5,11)                 1.0986         -DE/DX =    0.0003              !
 ! R11   R(6,7)                  1.6991         -DE/DX =    0.0                 !
 ! A1    A(2,1,6)              119.254          -DE/DX =    0.0                 !
 ! A2    A(2,1,8)              120.212          -DE/DX =    0.0                 !
 ! A3    A(6,1,8)              120.534          -DE/DX =    0.0                 !
 ! A4    A(1,2,3)              115.1507         -DE/DX =    0.0001              !
 ! A5    A(1,2,9)              121.9404         -DE/DX =   -0.0001              !
 ! A6    A(3,2,9)              122.9089         -DE/DX =    0.0                 !
 ! A7    A(2,3,4)              129.1218         -DE/DX =    0.0                 !
 ! A8    A(3,4,5)              115.1506         -DE/DX =    0.0001              !
 ! A9    A(3,4,10)             122.9089         -DE/DX =    0.0                 !
 ! A10   A(5,4,10)             121.9404         -DE/DX =   -0.0001              !
 ! A11   A(4,5,6)              119.2541         -DE/DX =    0.0                 !
 ! A12   A(4,5,11)             120.212          -DE/DX =    0.0                 !
 ! A13   A(6,5,11)             120.5339         -DE/DX =    0.0                 !
 ! A14   A(1,6,5)              122.0688         -DE/DX =   -0.0001              !
 ! A15   A(1,6,7)              118.9656         -DE/DX =    0.0                 !
 ! A16   A(5,6,7)              118.9656         -DE/DX =    0.0                 !
 ! D1    D(6,1,2,3)              0.0            -DE/DX =    0.0                 !
 ! D2    D(6,1,2,9)            180.0            -DE/DX =    0.0                 !
 ! D3    D(8,1,2,3)            180.0            -DE/DX =    0.0                 !
 ! D4    D(8,1,2,9)              0.0            -DE/DX =    0.0                 !
 ! D5    D(2,1,6,5)              0.0            -DE/DX =    0.0                 !
 ! D6    D(2,1,6,7)            180.0            -DE/DX =    0.0                 !
 ! D7    D(8,1,6,5)            180.0            -DE/DX =    0.0                 !
 ! D8    D(8,1,6,7)              0.0            -DE/DX =    0.0                 !
 ! D9    D(1,2,3,4)              0.0            -DE/DX =    0.0                 !
 ! D10   D(9,2,3,4)            180.0            -DE/DX =    0.0                 !
 ! D11   D(2,3,4,5)              0.0            -DE/DX =    0.0                 !
 ! D12   D(2,3,4,10)           180.0            -DE/DX =    0.0                 !
 ! D13   D(3,4,5,6)              0.0            -DE/DX =    0.0                 !
 ! D14   D(3,4,5,11)           180.0            -DE/DX =    0.0                 !
 ! D15   D(10,4,5,6)           180.0            -DE/DX =    0.0                 !
 ! D16   D(10,4,5,11)            0.0            -DE/DX =    0.0                 !
 ! D17   D(4,5,6,1)              0.0            -DE/DX =    0.0                 !
 ! D18   D(4,5,6,7)            180.0            -DE/DX =    0.0                 !
 ! D19   D(11,5,6,1)           180.0            -DE/DX =    0.0                 !
 ! D20   D(11,5,6,7)             0.0            -DE/DX =    0.0                 !
 --------------------------------------------------------------------------------
 GradGradGradGradGradGradGradGradGradGradGradGradGradGradGradGradGradGrad

                          Input orientation:                          
 ---------------------------------------------------------------------
 Center     Atomic      Atomic             Coordinates (Angstroms)
 Number     Number       Type             X           Y           Z
 ---------------------------------------------------------------------
      1          6           0       -3.219210    0.209451   -0.000000
      2          6           0       -2.024364    0.952076   -0.000000
      3          6           0       -0.874106    0.205451   -0.000000
      4          6           0       -0.727563   -1.158026   -0.000000
      5          6           0       -1.929824   -1.888583   -0.000000
      6          6           0       -3.155173   -1.196420   -0.000000
      7         17           0       -4.602785   -2.086078   -0.000000
      8          1           0       -4.189988    0.724017   -0.000000
      9          1           0       -2.022864    2.048567   -0.000000
     10          1           0        0.251375   -1.651977   -0.000000
     11          1           0       -1.909249   -2.987018   -0.000000
 ---------------------------------------------------------------------
                    Distance matrix (angstroms):
                    1          2          3          4          5
     1  C    0.000000
     2  C    1.406822   0.000000
     3  C    2.345108   1.371329   0.000000
     4  C    2.842234   2.476737   1.371329   0.000000
     5  C    2.462572   2.842232   2.345105   1.406820   0.000000
     6  C    1.407328   2.427913   2.677407   2.427913   1.407328
     7  Cl   2.680249   3.984800   4.376546   3.984799   2.680247
     8  H    1.098721   2.177599   3.356186   3.940872   3.454565
     9  H    2.193990   1.096492   2.171802   3.458330   3.938249
    10  H    3.938258   3.458335   2.171807   1.096498   2.193995
    11  H    3.454477   3.940776   3.356096   2.177519   1.098628
                    6          7          8          9         10
     6  C    0.000000
     7  Cl   1.699139   0.000000
     8  H    2.181494   2.840253   0.000000
     9  H    3.436869   4.873529   2.539854   0.000000
    10  H    3.436874   4.873532   5.036969   4.343523   0.000000
    11  H    2.181415   2.840217   4.355864   5.036867   2.539809
                   11
    11  H    0.000000
 Stoichiometry    C6H4Cl(2)
 Framework group  CS[SG(C6H4Cl)]
 Deg. of freedom    19
 Full point group                 CS      NOp   2
 Largest Abelian subgroup         CS      NOp   2
 Largest concise Abelian subgroup C1      NOp   1
                         Standard orientation:                         
 ---------------------------------------------------------------------
 Center     Atomic      Atomic             Coordinates (Angstroms)
 Number     Number       Type             X           Y           Z
 ---------------------------------------------------------------------
      1          6           0       -1.231286   -0.225528    0.000000
      2          6           0       -1.238364   -1.632332    0.000000
      3          6           0        0.000005   -2.221387    0.000000
      4          6           0        1.238372   -1.632327    0.000000
      5          6           0        1.231287   -0.225525    0.000000
      6          6           0        0.000000    0.456021    0.000000
      7         17           0       -0.000001    2.155159    0.000000
      8          1           0       -2.177973    0.332120    0.000000
      9          1           0       -2.171754   -2.207727    0.000000
     10          1           0        2.171769   -2.207722    0.000000
     11          1           0        2.177891    0.332080    0.000000
 ---------------------------------------------------------------------
 Rotational constants (GHZ):           5.4778384           1.6899952           1.2915368

 **********************************************************************

            Population analysis using the SCF Density.

 **********************************************************************

 Orbital symmetries:
 Alpha Orbitals:
       Occupied  (A') (A') (A') (A') (A') (A') (A') (A') (A') (A')
                 (A") (A') (A') (A") (A') (A') (A") (A")
       Virtual   (A") (A") (A') (A") (A') (A') (A') (A') (A') (A')
                 (A') (A') (A') (A')
 Beta  Orbitals:
       Occupied  (A') (A') (A') (A') (A') (A') (A') (A') (A') (A')
                 (A") (A') (A') (A") (A') (A") (A")
       Virtual   (A") (A') (A") (A') (A") (A') (A') (A') (A') (A')
                 (A') (A') (A') (A') (A')
 The electronic state is 2-A'.
 Alpha  occ. eigenvalues --   -1.45992  -1.38067  -1.18022  -1.13471  -0.87758
 Alpha  occ. eigenvalues --   -0.84532  -0.67157  -0.59915  -0.59785  -0.54557
 Alpha  occ. eigenvalues --   -0.53344  -0.53006  -0.47375  -0.46421  -0.43771
 Alpha  occ. eigenvalues --   -0.38844  -0.37991  -0.37001
 Alpha virt. eigenvalues --    0.00645   0.00755   0.05163   0.08918   0.12662
 Alpha virt. eigenvalues --    0.13233   0.13939   0.14774   0.15924   0.17042
 Alpha virt. eigenvalues --    0.17081   0.18255   0.19323   0.19876
  Beta  occ. eigenvalues --   -1.45364  -1.37861  -1.17803  -1.11928  -0.87429
  Beta  occ. eigenvalues --   -0.82247  -0.67143  -0.59369  -0.58063  -0.54299
  Beta  occ. eigenvalues --   -0.53536  -0.51509  -0.46983  -0.46329  -0.43658
  Beta  occ. eigenvalues --   -0.38016  -0.35981
  Beta virt. eigenvalues --    0.00715   0.00804   0.02211   0.04286   0.09836
  Beta virt. eigenvalues --    0.12962   0.13421   0.14265   0.15533   0.16406
  Beta virt. eigenvalues --    0.17084   0.17992   0.18241   0.20110   0.21246
          Condensed to atoms (all electrons):
               1          2          3          4          5          6
     1  C    4.117100   0.000000   0.000000   0.000000   0.000000   0.000000
     2  C    0.000000   4.114393   0.000000   0.000000   0.000000   0.000000
     3  C    0.000000   0.000000   4.073676   0.000000   0.000000   0.000000
     4  C    0.000000   0.000000   0.000000   4.114395   0.000000   0.000000
     5  C    0.000000   0.000000   0.000000   0.000000   4.117090   0.000000
     6  C    0.000000   0.000000   0.000000   0.000000   0.000000   4.079289
     7  Cl   0.000000   0.000000   0.000000   0.000000   0.000000   0.000000
     8  H    0.000000   0.000000   0.000000   0.000000   0.000000   0.000000
     9  H    0.000000   0.000000   0.000000   0.000000   0.000000   0.000000
    10  H    0.000000   0.000000   0.000000   0.000000   0.000000   0.000000
    11  H    0.000000   0.000000   0.000000   0.000000   0.000000   0.000000
               7          8          9         10         11
     1  C    0.000000   0.000000   0.000000   0.000000   0.000000
     2  C    0.000000   0.000000   0.000000   0.000000   0.000000
     3  C    0.000000   0.000000   0.000000   0.000000   0.000000
     4  C    0.000000   0.000000   0.000000   0.000000   0.000000
     5  C    0.000000   0.000000   0.000000   0.000000   0.000000
     6  C    0.000000   0.000000   0.000000   0.000000   0.000000
     7  Cl   7.010416   0.000000   0.000000   0.000000   0.000000
     8  H    0.000000   0.847169   0.000000   0.000000   0.000000
     9  H    0.000000   0.000000   0.839647   0.000000   0.000000
    10  H    0.000000   0.000000   0.000000   0.839646   0.000000
    11  H    0.000000   0.000000   0.000000   0.000000   0.847180
          Atomic-Atomic Spin Densities.
               1          2          3          4          5          6
     1  C    0.484189   0.000000   0.000000   0.000000   0.000000   0.000000
     2  C    0.000000  -0.461174   0.000000   0.000000   0.000000   0.000000
     3  C    0.000000   0.000000   1.368111   0.000000   0.000000   0.000000
     4  C    0.000000   0.000000   0.000000  -0.461173   0.000000   0.000000
     5  C    0.000000   0.000000   0.000000   0.000000   0.484186   0.000000
     6  C    0.000000   0.000000   0.000000   0.000000   0.000000  -0.438327
     7  Cl   0.000000   0.000000   0.000000   0.000000   0.000000   0.000000
     8  H    0.000000   0.000000   0.000000   0.000000   0.000000   0.000000
     9  H    0.000000   0.000000   0.000000   0.000000   0.000000   0.000000
    10  H    0.000000   0.000000   0.000000   0.000000   0.000000   0.000000
    11  H    0.000000   0.000000   0.000000   0.000000   0.000000   0.000000
               7          8          9         10         11
     1  C    0.000000   0.000000   0.000000   0.000000   0.000000
     2  C    0.000000   0.000000   0.000000   0.000000   0.000000
     3  C    0.000000   0.000000   0.000000   0.000000   0.000000
     4  C    0.000000   0.000000   0.000000   0.000000   0.000000
     5  C    0.000000   0.000000   0.000000   0.000000   0.000000
     6  C    0.000000   0.000000   0.000000   0.000000   0.000000
     7  Cl   0.001263   0.000000   0.000000   0.000000   0.000000
     8  H    0.000000  -0.019441   0.000000   0.000000   0.000000
     9  H    0.000000   0.000000   0.030902   0.000000   0.000000
    10  H    0.000000   0.000000   0.000000   0.030902   0.000000
    11  H    0.000000   0.000000   0.000000   0.000000  -0.019439
 Mulliken charges and spin densities:
               1          2
     1  C   -0.117100   0.484189
     2  C   -0.114393  -0.461174
     3  C   -0.073676   1.368111
     4  C   -0.114395  -0.461173
     5  C   -0.117090   0.484186
     6  C   -0.079289  -0.438327
     7  Cl  -0.010416   0.001263
     8  H    0.152831  -0.019441
     9  H    0.160353   0.030902
    10  H    0.160354   0.030902
    11  H    0.152820  -0.019439
 Sum of Mulliken charges =   0.00000   1.00000
 Mulliken charges and spin densities with hydrogens summed into heavy atoms:
               1          2
     1  C    0.035731   0.464748
     2  C    0.045960  -0.430272
     3  C   -0.073676   1.368111
     4  C    0.045959  -0.430271
     5  C    0.035730   0.464748
     6  C   -0.079289  -0.438327
     7  Cl  -0.010416   0.001263
 Charge=              0.0000 electrons
 Dipole moment (field-independent basis, Debye):
    X=             -0.0001    Y=             -0.2199    Z=              0.0000  Tot=              0.2199
 N-N= 1.533818163939D+02 E-N=-2.124841497163D+02  KE=-6.882382700045D+01
 Symmetry A'   KE=-5.401813235777D+01
 Symmetry A"   KE=-1.480569464268D+01
 Symmetry A'   SP= 1.000000000000D+00
 Symmetry A"   SP= 1.276756478319D-15
 1\1\GINC-SH02-01N13\FOpt\UAM1\ZDO\C6H4Cl1(2)\JLAPIER\10-Dec-2025\0\\# 
 opt am1 SCF=XQC\\Neutral Radical (removed 4) 1_\\0,2\C,-3.2192097419,0
 .209450922,0.\C,-2.0243642326,0.9520761026,0.\C,-0.8741056226,0.205450
 7629,0.\C,-0.7275633988,-1.1580263353,0.\C,-1.9298239438,-1.8885830116
 ,0.\C,-3.1551732246,-1.1964197602,0.\Cl,-4.6027851607,-2.0860780109,0.
 \H,-4.189987654,0.7240169475,0.\H,-2.0228635782,2.0485672129,0.\H,0.25
 13753472,-1.6519769401,0.\H,-1.90924879,-2.9870178899,0.\\Version=ES64
 L-G16RevB.01\State=2-A'\HF=0.1051936\S2=1.196674\S2-1=0.\S2A=0.918858\
 RMSD=3.573e-09\RMSF=8.770e-05\Dipole=0.0736914,0.0453282,0.\PG=CS [SG(
 C6H4Cl1)]\\@


 WOE UNTO THEM THAT CALL EVIL GOOD, AND GOOD EVIL      
 Job cpu time:       0 days  0 hours  0 minutes 10.4 seconds.
 Elapsed time:       0 days  0 hours  0 minutes 21.5 seconds.
 File lengths (MBytes):  RWF=     10 Int=      0 D2E=      0 Chk=      2 Scr=      1
 Normal termination of Gaussian 16 at Wed Dec 10 10:42:07 2025.
