 Entering Gaussian System, Link 0=g16
 Initial command:
 /share/software/user/restricted/gaussian/g16.B01/l1.exe "/home/users/jlapier/Chloroaromatics/Gau-11917.inp" -scrdir="/home/users/jlapier/Chloroaromatics/"
 Entering Link 1 = /share/software/user/restricted/gaussian/g16.B01/l1.exe PID=     11918.
  
 Copyright (c) 1988-2017, Gaussian, Inc.  All Rights Reserved.
  
 This is part of the Gaussian(R) 16 program.  It is based on
 the Gaussian(R) 09 system (copyright 2009, Gaussian, Inc.),
 the Gaussian(R) 03 system (copyright 2003, Gaussian, Inc.),
 the Gaussian(R) 98 system (copyright 1998, Gaussian, Inc.),
 the Gaussian(R) 94 system (copyright 1995, Gaussian, Inc.),
 the Gaussian 92(TM) system (copyright 1992, Gaussian, Inc.),
 the Gaussian 90(TM) system (copyright 1990, Gaussian, Inc.),
 the Gaussian 88(TM) system (copyright 1988, Gaussian, Inc.),
 the Gaussian 86(TM) system (copyright 1986, Carnegie Mellon
 University), and the Gaussian 82(TM) system (copyright 1983,
 Carnegie Mellon University). Gaussian is a federally registered
 trademark of Gaussian, Inc.
  
 This software contains proprietary and confidential information,
 including trade secrets, belonging to Gaussian, Inc.
  
 This software is provided under written license and may be
 used, copied, transmitted, or stored only in accord with that
 written license.
  
 The following legend is applicable only to US Government
 contracts under FAR:
  
                    RESTRICTED RIGHTS LEGEND
  
 Use, reproduction and disclosure by the US Government is
 subject to restrictions as set forth in subparagraphs (a)
 and (c) of the Commercial Computer Software - Restricted
 Rights clause in FAR 52.227-19.
  
 Gaussian, Inc.
 340 Quinnipiac St., Bldg. 40, Wallingford CT 06492
  
  
 ---------------------------------------------------------------
 Warning -- This program may not be used in any manner that
 competes with the business of Gaussian, Inc. or will provide
 assistance to any competitor of Gaussian, Inc.  The licensee
 of this program is prohibited from giving any competitor of
 Gaussian, Inc. access to this program.  By using this program,
 the user acknowledges that Gaussian, Inc. is engaged in the
 business of creating and licensing software in the field of
 computational chemistry and represents and warrants to the
 licensee that it is not a competitor of Gaussian, Inc. and that
 it will not use this program in any manner prohibited above.
 ---------------------------------------------------------------
  

 Cite this work as:
 Gaussian 16, Revision B.01,
 M. J. Frisch, G. W. Trucks, H. B. Schlegel, G. E. Scuseria, 
 M. A. Robb, J. R. Cheeseman, G. Scalmani, V. Barone, 
 G. A. Petersson, H. Nakatsuji, X. Li, M. Caricato, A. V. Marenich, 
 J. Bloino, B. G. Janesko, R. Gomperts, B. Mennucci, H. P. Hratchian, 
 J. V. Ortiz, A. F. Izmaylov, J. L. Sonnenberg, D. Williams-Young, 
 F. Ding, F. Lipparini, F. Egidi, J. Goings, B. Peng, A. Petrone, 
 T. Henderson, D. Ranasinghe, V. G. Zakrzewski, J. Gao, N. Rega, 
 G. Zheng, W. Liang, M. Hada, M. Ehara, K. Toyota, R. Fukuda, 
 J. Hasegawa, M. Ishida, T. Nakajima, Y. Honda, O. Kitao, H. Nakai, 
 T. Vreven, K. Throssell, J. A. Montgomery, Jr., J. E. Peralta, 
 F. Ogliaro, M. J. Bearpark, J. J. Heyd, E. N. Brothers, K. N. Kudin, 
 V. N. Staroverov, T. A. Keith, R. Kobayashi, J. Normand, 
 K. Raghavachari, A. P. Rendell, J. C. Burant, S. S. Iyengar, 
 J. Tomasi, M. Cossi, J. M. Millam, M. Klene, C. Adamo, R. Cammi, 
 J. W. Ochterski, R. L. Martin, K. Morokuma, O. Farkas, 
 J. B. Foresman, and D. J. Fox, Gaussian, Inc., Wallingford CT, 2016.
 
 ******************************************
 Gaussian 16:  ES64L-G16RevB.01 20-Dec-2017
                10-Dec-2025 
 ******************************************
 %mem=2GB
 %nprocshare=1
 Will use up to    1 processors via shared memory.
 %chk=geometry_chks/14-_4-ClBzNeutralRadical.chk
 -----------------
 # opt am1 SCF=XQC
 -----------------
 1/18=20,19=15,26=1,38=1/1,3;
 2/9=110,12=2,17=6,18=5,40=1/2;
 3/5=2,25=1,41=700000,71=1/1,2,3;
 4/35=1/1;
 5/5=2,8=3,13=1,35=1,38=5/2,8;
 6/7=2,8=2,9=2,10=2,28=1/1;
 7//1,2,3,16;
 1/18=20,19=15,26=1/3(2);
 2/9=110/2;
 99//99;
 2/9=110/2;
 3/5=2,25=1,41=700000,71=1,135=20/1,2,3;
 4/5=5,16=3,35=1/1;
 5/5=2,8=3,13=1,35=1,38=5/2,8;
 7//1,2,3,16;
 1/18=20,19=15,26=1/3(-5);
 2/9=110/2;
 6/7=2,8=2,9=2,10=2,19=2,28=1/1;
 99/9=1/99;
 ------------------------------
 Neutral Radical (removed 1) _4
 ------------------------------
 Symbolic Z-matrix:
 Charge =  0 Multiplicity = 2
 C                    -3.20928   0.19943   0. 
 C                    -2.0115    0.93555   0. 
 C                    -0.77511   0.2663    0. 
 C                    -0.7365   -1.13907   0. 
 C                    -1.93429  -1.87519   0. 
 C                    -3.17067  -1.20594   0. 
 H                    -4.76193   1.03987   0. 
 H                    -2.05998   2.7004    0. 
 Cl                    0.72905   1.19071   0. 
 H                     0.81614  -1.97951   0. 
 H                    -1.8858   -3.64003   0. 
 
 Add virtual bond connecting atoms H11        and C5         Dist= 3.34D+00.
 Add virtual bond connecting atoms H10        and C4         Dist= 3.34D+00.
 Add virtual bond connecting atoms H8         and C2         Dist= 3.34D+00.
 Add virtual bond connecting atoms H7         and C1         Dist= 3.34D+00.

 GradGradGradGradGradGradGradGradGradGradGradGradGradGradGradGradGradGrad
 Berny optimization.
 Initialization pass.
                           ----------------------------
                           !    Initial Parameters    !
                           ! (Angstroms and Degrees)  !
 --------------------------                            --------------------------
 ! Name  Definition              Value          Derivative Info.                !
 --------------------------------------------------------------------------------
 ! R1    R(1,2)                  1.4059         estimate D2E/DX2                !
 ! R2    R(1,6)                  1.4059         estimate D2E/DX2                !
 ! R3    R(1,7)                  1.7655         estimate D2E/DX2                !
 ! R4    R(2,3)                  1.4059         estimate D2E/DX2                !
 ! R5    R(2,8)                  1.7655         estimate D2E/DX2                !
 ! R6    R(3,4)                  1.4059         estimate D2E/DX2                !
 ! R7    R(3,9)                  1.7655         estimate D2E/DX2                !
 ! R8    R(4,5)                  1.4059         estimate D2E/DX2                !
 ! R9    R(4,10)                 1.7655         estimate D2E/DX2                !
 ! R10   R(5,6)                  1.4059         estimate D2E/DX2                !
 ! R11   R(5,11)                 1.7655         estimate D2E/DX2                !
 ! A1    A(2,1,6)              119.9999         estimate D2E/DX2                !
 ! A2    A(2,1,7)              119.9999         estimate D2E/DX2                !
 ! A3    A(6,1,7)              120.0001         estimate D2E/DX2                !
 ! A4    A(1,2,3)              120.0            estimate D2E/DX2                !
 ! A5    A(1,2,8)              120.0001         estimate D2E/DX2                !
 ! A6    A(3,2,8)              119.9999         estimate D2E/DX2                !
 ! A7    A(2,3,4)              120.0001         estimate D2E/DX2                !
 ! A8    A(2,3,9)              120.0            estimate D2E/DX2                !
 ! A9    A(4,3,9)              119.9999         estimate D2E/DX2                !
 ! A10   A(3,4,5)              119.9997         estimate D2E/DX2                !
 ! A11   A(3,4,10)             120.0003         estimate D2E/DX2                !
 ! A12   A(5,4,10)             120.0            estimate D2E/DX2                !
 ! A13   A(4,5,6)              120.0            estimate D2E/DX2                !
 ! A14   A(4,5,11)             119.9996         estimate D2E/DX2                !
 ! A15   A(6,5,11)             120.0004         estimate D2E/DX2                !
 ! A16   A(1,6,5)              120.0003         estimate D2E/DX2                !
 ! D1    D(6,1,2,3)              0.0            estimate D2E/DX2                !
 ! D2    D(6,1,2,8)            180.0            estimate D2E/DX2                !
 ! D3    D(7,1,2,3)            180.0            estimate D2E/DX2                !
 ! D4    D(7,1,2,8)              0.0            estimate D2E/DX2                !
 ! D5    D(2,1,6,5)              0.0            estimate D2E/DX2                !
 ! D6    D(7,1,6,5)            180.0            estimate D2E/DX2                !
 ! D7    D(1,2,3,4)              0.0            estimate D2E/DX2                !
 ! D8    D(1,2,3,9)            180.0            estimate D2E/DX2                !
 ! D9    D(8,2,3,4)            180.0            estimate D2E/DX2                !
 ! D10   D(8,2,3,9)              0.0            estimate D2E/DX2                !
 ! D11   D(2,3,4,5)              0.0            estimate D2E/DX2                !
 ! D12   D(2,3,4,10)           180.0            estimate D2E/DX2                !
 ! D13   D(9,3,4,5)            180.0            estimate D2E/DX2                !
 ! D14   D(9,3,4,10)             0.0            estimate D2E/DX2                !
 ! D15   D(3,4,5,6)              0.0            estimate D2E/DX2                !
 ! D16   D(3,4,5,11)           180.0            estimate D2E/DX2                !
 ! D17   D(10,4,5,6)           180.0            estimate D2E/DX2                !
 ! D18   D(10,4,5,11)            0.0            estimate D2E/DX2                !
 ! D19   D(4,5,6,1)              0.0            estimate D2E/DX2                !
 ! D20   D(11,5,6,1)           180.0            estimate D2E/DX2                !
 --------------------------------------------------------------------------------
 Trust Radius=3.00D-01 FncErr=1.00D-07 GrdErr=1.00D-07 EigMax=2.50D+02 EigMin=1.00D-04
 Number of steps in this run=     57 maximum allowed number of steps=    100.
 GradGradGradGradGradGradGradGradGradGradGradGradGradGradGradGradGradGrad

                          Input orientation:                          
 ---------------------------------------------------------------------
 Center     Atomic      Atomic             Coordinates (Angstroms)
 Number     Number       Type             X           Y           Z
 ---------------------------------------------------------------------
      1          6           0       -3.209280    0.199430    0.000000
      2          6           0       -2.011500    0.935550    0.000000
      3          6           0       -0.775110    0.266300    0.000000
      4          6           0       -0.736500   -1.139070    0.000000
      5          6           0       -1.934290   -1.875190    0.000000
      6          6           0       -3.170670   -1.205940    0.000000
      7          1           0       -4.761930    1.039870    0.000000
      8          1           0       -2.059980    2.700400    0.000000
      9         17           0        0.729050    1.190710    0.000000
     10          1           0        0.816140   -1.979510    0.000000
     11          1           0       -1.885800   -3.640030    0.000000
 ---------------------------------------------------------------------
                    Distance matrix (angstroms):
                    1          2          3          4          5
     1  C    0.000000
     2  C    1.405898   0.000000
     3  C    2.435088   1.405900   0.000000
     4  C    2.811801   2.435092   1.405900   0.000000
     5  C    2.435087   2.811800   2.435093   1.405907   0.000000
     6  C    1.405900   2.435088   2.811796   2.435088   1.405892
     7  H    1.765520   2.752408   4.061175   4.577321   4.061173
     8  H    2.752406   1.765516   2.752405   4.061173   4.577316
     9  Cl   4.061167   2.752403   1.765512   2.752401   4.061173
    10  H    4.577312   4.061173   2.752406   1.765511   2.752408
    11  H    4.061164   4.577306   4.061163   2.752397   1.765506
                    6          7          8          9         10
     6  C    0.000000
     7  H    2.752412   0.000000
     8  H    4.061173   3.171418   0.000000
     9  Cl   4.577308   5.493051   3.171412   0.000000
    10  H    4.061165   6.342832   5.493052   3.171416   0.000000
    11  H    2.752396   5.493049   6.342822   5.493040   3.171404
                   11
    11  H    0.000000
 Stoichiometry    C6H4Cl(2)
 Framework group  CS[SG(C6H4Cl)]
 Deg. of freedom    19
 Full point group                 CS      NOp   2
 Largest Abelian subgroup         CS      NOp   2
 Largest concise Abelian subgroup C1      NOp   1
                         Standard orientation:                         
 ---------------------------------------------------------------------
 Center     Atomic      Atomic             Coordinates (Angstroms)
 Number     Number       Type             X           Y           Z
 ---------------------------------------------------------------------
      1          6           0       -1.217546   -1.648807    0.000000
      2          6           0       -1.217546   -0.242909    0.000000
      3          6           0        0.000000    0.460040    0.000000
      4          6           0        1.217546   -0.242909    0.000000
      5          6           0        1.217541   -1.648816    0.000000
      6          6           0        0.000000   -2.351756    0.000000
      7          1           0       -2.746532   -2.531566    0.000000
      8          1           0       -2.746525    0.639853    0.000000
      9         17           0        0.000002    2.225552    0.000000
     10          1           0        2.746527    0.639841    0.000000
     11          1           0        2.746517   -2.531564    0.000000
 ---------------------------------------------------------------------
 Rotational constants (GHZ):           4.9758856           1.5685124           1.1925831
 Standard basis: VSTO-6G (5D, 7F)
 There are    25 symmetry adapted cartesian basis functions of A'  symmetry.
 There are     7 symmetry adapted cartesian basis functions of A"  symmetry.
 There are    25 symmetry adapted basis functions of A'  symmetry.
 There are     7 symmetry adapted basis functions of A"  symmetry.
    32 basis functions,   192 primitive gaussians,    32 cartesian basis functions
    18 alpha electrons       17 beta electrons
       nuclear repulsion energy       147.7484065394 Hartrees.
 Integral buffers will be    131072 words long.
 Regular integral format.
 Two-electron integral symmetry is turned off.
 Do NDO integrals.
 One-electron integrals computed using PRISM.
 NBasis=    32 RedAO= T EigKep=  1.00D+00  NBF=    25     7
 NBsUse=    32 1.00D-06 EigRej= -1.00D+00 NBFU=    25     7
 Simple Huckel Guess.
 Initial guess orbital symmetries:
 Alpha Orbitals:
       Occupied  (A') (A') (A') (A') (A') (A') (A') (A') (A") (A')
                 (A') (A') (A") (A') (A") (A') (A") (A')
       Virtual   (A') (A") (A') (A") (A') (A') (A") (A') (A') (A')
                 (A') (A') (A') (A')
 Beta  Orbitals:
       Occupied  (A') (A') (A') (A') (A') (A') (A') (A') (A") (A')
                 (A') (A') (A") (A') (A") (A') (A")
       Virtual   (A') (A') (A") (A') (A") (A') (A') (A") (A') (A')
                 (A') (A') (A') (A') (A')
 The electronic state of the initial guess is 2-A'.
 Initial guess <Sx>= 0.0000 <Sy>= 0.0000 <Sz>= 0.5000 <S**2>= 0.7500 S= 0.5000
 Keep J ints in memory in canonical form, NReq=862079.
 Overlap will be assumed to be unity.
 Requested convergence on RMS density matrix=1.00D-08 within  32 cycles.
 Requested convergence on MAX density matrix=1.00D-06.
 Requested convergence on             energy=1.00D-06.
 No special actions if energy rises.
 Fock symm off for IB=2 I1=    1 I=   26 J=   22 Cut=1.00D-07 Err=3.83D-03
 Fock matrix is not symmetric: symmetry in diagonalization turned off.
 Rare condition: small coef for last iteration:  0.000D+00
 Rare condition: small coef for last iteration:  0.000D+00
 Rare condition: small coef for last iteration:  0.000D+00
 SCF Done:  E(UAM1) =  0.605806345738     A.U. after   32 cycles
            NFock= 31  Conv=0.87D-08     -V/T= 1.0089
 <Sx>= 0.0000 <Sy>= 0.0000 <Sz>= 0.5000 <S**2>= 1.0484 S= 0.6395
 <L.S>=  0.00000000000    
 Annihilation of the first spin contaminant:
 S**2 before annihilation     1.0484,   after     0.8224
 QCSCF skips out because SCF is already converged.

 **********************************************************************

            Population analysis using the SCF Density.

 **********************************************************************

 Orbital symmetries:
 Alpha Orbitals:
       Occupied  (A') (A') (A') (A') (A') (A') (A') (A') (A") (A')
                 (A") (A') (A') (A') (A') (A') (A") (A")
       Virtual   (A') (A") (A') (A') (A") (A') (A') (A") (A') (A')
                 (A') (A') (A') (A')
 Beta  Orbitals:
       Occupied  (A') (A') (A') (A') (A') (A') (A') (A') (A") (A')
                 (A") (A') (A') (A') (A') (A") (A")
       Virtual   (A') (A') (A") (A') (A") (A') (A') (A') (A") (A')
                 (A') (A') (A') (A') (A')
 The electronic state is 2-A'.
 Alpha  occ. eigenvalues --   -1.39838  -1.35086  -1.09837  -1.07685  -0.80226
 Alpha  occ. eigenvalues --   -0.77967  -0.58496  -0.57287  -0.50968  -0.48623
 Alpha  occ. eigenvalues --   -0.44751  -0.44022  -0.43766  -0.42204  -0.37197
 Alpha  occ. eigenvalues --   -0.36804  -0.34879  -0.34610
 Alpha virt. eigenvalues --   -0.00298   0.00802   0.00984   0.01173   0.02684
 Alpha virt. eigenvalues --    0.04218   0.05408   0.10559   0.16201   0.16437
 Alpha virt. eigenvalues --    0.18437   0.19339   0.19548   0.21113
  Beta  occ. eigenvalues --   -1.39667  -1.34794  -1.08321  -1.08012  -0.78338
  Beta  occ. eigenvalues --   -0.78285  -0.58522  -0.56844  -0.51022  -0.45573
  Beta  occ. eigenvalues --   -0.44097  -0.43856  -0.43501  -0.42291  -0.35895
  Beta  occ. eigenvalues --   -0.35576  -0.33620
  Beta virt. eigenvalues --   -0.01928   0.01160   0.01705   0.01995   0.02164
  Beta virt. eigenvalues --    0.02972   0.04404   0.06070   0.11127   0.16340
  Beta virt. eigenvalues --    0.16616   0.18868   0.19367   0.19921   0.22362
          Condensed to atoms (all electrons):
               1          2          3          4          5          6
     1  C    4.169254   0.000000   0.000000   0.000000   0.000000   0.000000
     2  C    0.000000   4.117657   0.000000   0.000000   0.000000   0.000000
     3  C    0.000000   0.000000   4.065488   0.000000   0.000000   0.000000
     4  C    0.000000   0.000000   0.000000   4.117657   0.000000   0.000000
     5  C    0.000000   0.000000   0.000000   0.000000   4.169256   0.000000
     6  C    0.000000   0.000000   0.000000   0.000000   0.000000   4.016092
     7  H    0.000000   0.000000   0.000000   0.000000   0.000000   0.000000
     8  H    0.000000   0.000000   0.000000   0.000000   0.000000   0.000000
     9  Cl   0.000000   0.000000   0.000000   0.000000   0.000000   0.000000
    10  H    0.000000   0.000000   0.000000   0.000000   0.000000   0.000000
    11  H    0.000000   0.000000   0.000000   0.000000   0.000000   0.000000
               7          8          9         10         11
     1  C    0.000000   0.000000   0.000000   0.000000   0.000000
     2  C    0.000000   0.000000   0.000000   0.000000   0.000000
     3  C    0.000000   0.000000   0.000000   0.000000   0.000000
     4  C    0.000000   0.000000   0.000000   0.000000   0.000000
     5  C    0.000000   0.000000   0.000000   0.000000   0.000000
     6  C    0.000000   0.000000   0.000000   0.000000   0.000000
     7  H    0.817529   0.000000   0.000000   0.000000   0.000000
     8  H    0.000000   0.831360   0.000000   0.000000   0.000000
     9  Cl   0.000000   0.000000   7.046822   0.000000   0.000000
    10  H    0.000000   0.000000   0.000000   0.831358   0.000000
    11  H    0.000000   0.000000   0.000000   0.000000   0.817529
          Atomic-Atomic Spin Densities.
               1          2          3          4          5          6
     1  C    0.130026   0.000000   0.000000   0.000000   0.000000   0.000000
     2  C    0.000000  -0.376456   0.000000   0.000000   0.000000   0.000000
     3  C    0.000000   0.000000   0.048009   0.000000   0.000000   0.000000
     4  C    0.000000   0.000000   0.000000  -0.376439   0.000000   0.000000
     5  C    0.000000   0.000000   0.000000   0.000000   0.130005   0.000000
     6  C    0.000000   0.000000   0.000000   0.000000   0.000000   0.942280
     7  H    0.000000   0.000000   0.000000   0.000000   0.000000   0.000000
     8  H    0.000000   0.000000   0.000000   0.000000   0.000000   0.000000
     9  Cl   0.000000   0.000000   0.000000   0.000000   0.000000   0.000000
    10  H    0.000000   0.000000   0.000000   0.000000   0.000000   0.000000
    11  H    0.000000   0.000000   0.000000   0.000000   0.000000   0.000000
               7          8          9         10         11
     1  C    0.000000   0.000000   0.000000   0.000000   0.000000
     2  C    0.000000   0.000000   0.000000   0.000000   0.000000
     3  C    0.000000   0.000000   0.000000   0.000000   0.000000
     4  C    0.000000   0.000000   0.000000   0.000000   0.000000
     5  C    0.000000   0.000000   0.000000   0.000000   0.000000
     6  C    0.000000   0.000000   0.000000   0.000000   0.000000
     7  H   -0.108096   0.000000   0.000000   0.000000   0.000000
     8  H    0.000000   0.357356   0.000000   0.000000   0.000000
     9  Cl   0.000000   0.000000   0.004059   0.000000   0.000000
    10  H    0.000000   0.000000   0.000000   0.357340   0.000000
    11  H    0.000000   0.000000   0.000000   0.000000  -0.108084
 Mulliken charges and spin densities:
               1          2
     1  C   -0.169254   0.130026
     2  C   -0.117657  -0.376456
     3  C   -0.065488   0.048009
     4  C   -0.117657  -0.376439
     5  C   -0.169256   0.130005
     6  C   -0.016092   0.942280
     7  H    0.182471  -0.108096
     8  H    0.168640   0.357356
     9  Cl  -0.046822   0.004059
    10  H    0.168642   0.357340
    11  H    0.182471  -0.108084
 Sum of Mulliken charges =   0.00000   1.00000
 Mulliken charges and spin densities with hydrogens summed into heavy atoms:
               1          2
     1  C    0.013218   0.021930
     2  C    0.050983  -0.019100
     3  C   -0.065488   0.048009
     4  C    0.050986  -0.019099
     5  C    0.013216   0.021921
     6  C   -0.016092   0.942280
     9  Cl  -0.046822   0.004059
 Charge=              0.0000 electrons
 Dipole moment (field-independent basis, Debye):
    X=              0.0000    Y=             -0.6696    Z=              0.0000  Tot=              0.6696
 N-N= 1.477484065394D+02 E-N=-2.029251043449D+02  KE=-6.813550542730D+01
 Symmetry A'   KE=-5.329782505540D+01
 Symmetry A"   KE=-1.483768037190D+01
 Symmetry A'   SP= 1.000000000000D+00
 Symmetry A"   SP=-3.108624468950D-15
 Calling FoFJK, ICntrl=      2127 FMM=F ISym2X=1 I1Cent= 0 IOpClX= 1 NMat=1 NMatS=1 NMatT=0.
 ***** Axes restored to original set *****
 -------------------------------------------------------------------
 Center     Atomic                   Forces (Hartrees/Bohr)
 Number     Number              X              Y              Z
 -------------------------------------------------------------------
      1        6          -0.069673267    0.030077616    0.000000000
      2        6          -0.021453584    0.055009852    0.000000000
      3        6           0.014396349    0.008844451    0.000000000
      4        6           0.039384596   -0.043988875    0.000000000
      5        6          -0.004628812   -0.075747256   -0.000000000
      6        6           0.062472820    0.038398360   -0.000000000
      7        1           0.102447391   -0.055820244   -0.000000000
      8        1           0.003579159   -0.105226800   -0.000000000
      9       17          -0.030733942   -0.018887996   -0.000000000
     10        1          -0.092264492    0.050725334   -0.000000000
     11        1          -0.003526218    0.116615558   -0.000000000
 -------------------------------------------------------------------
 Cartesian Forces:  Max     0.116615558 RMS     0.047625108

 GradGradGradGradGradGradGradGradGradGradGradGradGradGradGradGradGradGrad
 Berny optimization.
 FormGI is forming the generalized inverse of G from B-inverse, IUseBI=4.
 Internal  Forces:  Max     0.116668414 RMS     0.037055118
 Search for a local minimum.
 Step number   1 out of a maximum of   57
 All quantities printed in internal units (Hartrees-Bohrs-Radians)
 Mixed Optimization -- RFO/linear search
 Second derivative matrix not updated -- first step.
 ITU=  0
     Eigenvalues ---    0.02011   0.02011   0.02011   0.02011   0.02011
     Eigenvalues ---    0.02011   0.02011   0.02011   0.06524   0.06524
     Eigenvalues ---    0.06524   0.06524   0.16000   0.16000   0.16000
     Eigenvalues ---    0.16000   0.22000   0.22834   0.23883   0.25000
     Eigenvalues ---    0.29033   0.40686   0.41477   0.44656   0.44657
     Eigenvalues ---    0.44657   0.44657
 RFO step:  Lambda=-2.06174528D-01 EMin= 2.01065650D-02
 Linear search not attempted -- first point.
 Maximum step size (   0.300) exceeded in Quadratic search.
    -- Step size scaled by   0.356
 Iteration  1 RMS(Cart)=  0.05042691 RMS(Int)=  0.00005233
 Iteration  2 RMS(Cart)=  0.00009357 RMS(Int)=  0.00001102
 Iteration  3 RMS(Cart)=  0.00000001 RMS(Int)=  0.00001102
 ClnCor:  largest displacement from symmetrization is 6.40D-12 for atom     9.
 Variable       Old X    -DE/DX   Delta X   Delta X   Delta X     New X
                                 (Linear)    (Quad)   (Total)
    R1        2.65676  -0.05111   0.00000  -0.02789  -0.02789   2.62888
    R2        2.65677  -0.05609   0.00000  -0.03091  -0.03090   2.62587
    R3        3.33635  -0.11667   0.00000  -0.15308  -0.15308   3.18327
    R4        2.65677  -0.02984   0.00000  -0.01597  -0.01599   2.64078
    R5        3.33634  -0.10529   0.00000  -0.13815  -0.13815   3.19819
    R6        2.65677  -0.02984   0.00000  -0.01597  -0.01599   2.64078
    R7        3.33633  -0.03607   0.00000  -0.02587  -0.02587   3.31046
    R8        2.65678  -0.05111   0.00000  -0.02789  -0.02789   2.62889
    R9        3.33633  -0.10529   0.00000  -0.13815  -0.13815   3.19818
   R10        2.65675  -0.05609   0.00000  -0.03091  -0.03089   2.62586
   R11        3.33632  -0.11667   0.00000  -0.15308  -0.15308   3.18324
    A1        2.09439  -0.00646   0.00000  -0.00574  -0.00572   2.08867
    A2        2.09439   0.00377   0.00000   0.00339   0.00338   2.09778
    A3        2.09440   0.00269   0.00000   0.00235   0.00234   2.09674
    A4        2.09439   0.00192   0.00000   0.00224   0.00223   2.09662
    A5        2.09440   0.00019   0.00000  -0.00000   0.00000   2.09440
    A6        2.09439  -0.00211   0.00000  -0.00224  -0.00223   2.09216
    A7        2.09440  -0.00821   0.00000  -0.00537  -0.00540   2.08900
    A8        2.09440   0.00411   0.00000   0.00268   0.00270   2.09709
    A9        2.09439   0.00411   0.00000   0.00268   0.00270   2.09709
   A10        2.09439   0.00193   0.00000   0.00224   0.00223   2.09662
   A11        2.09440  -0.00211   0.00000  -0.00224  -0.00223   2.09217
   A12        2.09440   0.00019   0.00000  -0.00000   0.00000   2.09440
   A13        2.09439  -0.00646   0.00000  -0.00573  -0.00572   2.08867
   A14        2.09439   0.00377   0.00000   0.00339   0.00338   2.09777
   A15        2.09440   0.00269   0.00000   0.00235   0.00234   2.09674
   A16        2.09440   0.01729   0.00000   0.01235   0.01239   2.10679
    D1        0.00000  -0.00000   0.00000  -0.00000   0.00000   0.00000
    D2        3.14159  -0.00000   0.00000  -0.00000   0.00000   3.14159
    D3        3.14159   0.00000   0.00000   0.00000   0.00000   3.14159
    D4        0.00000  -0.00000   0.00000   0.00000   0.00000   0.00000
    D5        0.00000   0.00000   0.00000   0.00000   0.00000   0.00000
    D6        3.14159  -0.00000   0.00000  -0.00000   0.00000   3.14159
    D7        0.00000   0.00000   0.00000   0.00000   0.00000   0.00000
    D8        3.14159  -0.00000   0.00000  -0.00000   0.00000   3.14159
    D9        3.14159   0.00000   0.00000   0.00000   0.00000   3.14159
   D10        0.00000   0.00000   0.00000   0.00000   0.00000   0.00000
   D11        0.00000  -0.00000   0.00000  -0.00000   0.00000   0.00000
   D12        3.14159  -0.00000   0.00000  -0.00000   0.00000   3.14159
   D13        3.14159   0.00000   0.00000   0.00000   0.00000   3.14159
   D14        0.00000   0.00000   0.00000  -0.00000   0.00000   0.00000
   D15        0.00000   0.00000   0.00000   0.00000   0.00000   0.00000
   D16        3.14159  -0.00000   0.00000  -0.00000   0.00000   3.14159
   D17        3.14159   0.00000   0.00000   0.00000   0.00000   3.14159
   D18        0.00000   0.00000   0.00000   0.00000   0.00000   0.00000
   D19        0.00000  -0.00000   0.00000  -0.00000   0.00000   0.00000
   D20        3.14159   0.00000   0.00000   0.00000   0.00000   3.14159
         Item               Value     Threshold  Converged?
 Maximum Force            0.116668     0.000450     NO 
 RMS     Force            0.037055     0.000300     NO 
 Maximum Displacement     0.177000     0.001800     NO 
 RMS     Displacement     0.050443     0.001200     NO 
 Predicted change in Energy=-6.962816D-02
 GradGradGradGradGradGradGradGradGradGradGradGradGradGradGradGradGradGrad

                          Input orientation:                          
 ---------------------------------------------------------------------
 Center     Atomic      Atomic             Coordinates (Angstroms)
 Number     Number       Type             X           Y           Z
 ---------------------------------------------------------------------
      1          6           0       -3.196888    0.195453    0.000000
      2          6           0       -2.012025    0.924409    0.000000
      3          6           0       -0.781283    0.262506    0.000000
      4          6           0       -0.746677   -1.134506    0.000000
      5          6           0       -1.932239   -1.862337    0.000000
      6          6           0       -3.150120   -1.193310    0.000000
      7          1           0       -4.681380    0.991610    0.000000
      8          1           0       -2.059293    2.616160    0.000000
      9         17           0        0.711212    1.179746    0.000000
     10          1           0        0.741293   -1.940845    0.000000
     11          1           0       -1.892470   -3.546366    0.000000
 ---------------------------------------------------------------------
                    Distance matrix (angstroms):
                    1          2          3          4          5
     1  C    0.000000
     2  C    1.391142   0.000000
     3  C    2.416535   1.397441   0.000000
     4  C    2.787889   2.416659   1.397440   0.000000
     5  C    2.415334   2.787888   2.416538   1.391149   0.000000
     6  C    1.389551   2.404162   2.780430   2.404163   1.389544
     7  H    1.684512   2.670200   3.967663   4.472388   3.962674
     8  H    2.674686   1.692411   2.678245   3.973721   4.480299
     9  Cl   4.030146   2.735181   1.751819   2.735179   4.030149
    10  H    4.480295   3.973719   2.678245   1.692406   2.674685
    11  H    3.962665   4.472373   3.967649   2.670189   1.684498
                    6          7          8          9         10
     6  C    0.000000
     7  H    2.668077   0.000000
     8  H    3.962571   3.084559   0.000000
     9  Cl   4.532249   5.395872   3.120734   0.000000
    10  H    3.962563   6.164793   5.348792   3.120737   0.000000
    11  H    2.668062   5.326466   6.164783   5.395859   3.084543
                   11
    11  H    0.000000
 Stoichiometry    C6H4Cl(2)
 Framework group  CS[SG(C6H4Cl)]
 Deg. of freedom    19
 Full point group                 CS      NOp   2
 Largest Abelian subgroup         CS      NOp   2
 Largest concise Abelian subgroup C1      NOp   1
                         Standard orientation:                         
 ---------------------------------------------------------------------
 Center     Atomic      Atomic             Coordinates (Angstroms)
 Number     Number       Type             X           Y           Z
 ---------------------------------------------------------------------
      1          6           0       -1.207667   -1.636321    0.000000
      2          6           0       -1.208329   -0.245179    0.000000
      3          6           0       -0.000000    0.456806    0.000000
      4          6           0        1.208330   -0.245176   -0.000000
      5          6           0        1.207667   -1.636325   -0.000000
      6          6           0        0.000003   -2.323624   -0.000000
      7          1           0       -2.663237   -2.484199    0.000000
      8          1           0       -2.674396    0.600339    0.000000
      9         17           0       -0.000001    2.208625    0.000000
     10          1           0        2.674396    0.600334   -0.000000
     11          1           0        2.663229   -2.484189   -0.000000
 ---------------------------------------------------------------------
 Rotational constants (GHZ):           5.1173575           1.5971176           1.2172242
 Standard basis: VSTO-6G (5D, 7F)
 There are    25 symmetry adapted cartesian basis functions of A'  symmetry.
 There are     7 symmetry adapted cartesian basis functions of A"  symmetry.
 There are    25 symmetry adapted basis functions of A'  symmetry.
 There are     7 symmetry adapted basis functions of A"  symmetry.
    32 basis functions,   192 primitive gaussians,    32 cartesian basis functions
    18 alpha electrons       17 beta electrons
       nuclear repulsion energy       148.8454413261 Hartrees.
 Integral buffers will be    131072 words long.
 Regular integral format.
 Two-electron integral symmetry is turned off.
 Do NDO integrals.
 One-electron integrals computed using PRISM.
 NBasis=    32 RedAO= T EigKep=  1.00D+00  NBF=    25     7
 NBsUse=    32 1.00D-06 EigRej= -1.00D+00 NBFU=    25     7
 Initial guess from the checkpoint file:  "geometry_chks/14-_4-ClBzNeutralRadical.chk"
 B after Tr=     0.000000    0.000000   -0.000000
         Rot=    1.000000    0.000000   -0.000000   -0.000001 Ang=  -0.00 deg.
 Initial guess orbital symmetries:
 Alpha Orbitals:
       Occupied  (A') (A') (A') (A') (A') (A') (A') (A') (A") (A')
                 (A") (A') (A') (A') (A') (A') (A") (A")
       Virtual   (A') (A") (A') (A') (A") (A') (A') (A") (A') (A')
                 (A') (A') (A') (A')
 Beta  Orbitals:
       Occupied  (A') (A') (A') (A') (A') (A') (A') (A') (A") (A')
                 (A") (A') (A') (A') (A') (A") (A")
       Virtual   (A') (A') (A") (A') (A") (A') (A') (A') (A") (A')
                 (A') (A') (A') (A') (A')
 Initial guess <Sx>= 0.0000 <Sy>= 0.0000 <Sz>= 0.5000 <S**2>= 1.0484 S= 0.6395
 Keep J ints in memory in canonical form, NReq=862079.
 Overlap will be assumed to be unity.
 Requested convergence on RMS density matrix=1.00D-08 within  32 cycles.
 Requested convergence on MAX density matrix=1.00D-06.
 Requested convergence on             energy=1.00D-06.
 No special actions if energy rises.
 Fock symm off for IB=2 I1=    1 I=   26 J=   17 Cut=1.00D-07 Err=5.82D-04
 Fock matrix is not symmetric: symmetry in diagonalization turned off.
 Rare condition: small coef for last iteration:  0.000D+00
 Rare condition: small coef for last iteration:  0.000D+00
 Rare condition: small coef for last iteration:  0.000D+00
 Rare condition: small coef for last iteration:  0.000D+00
 Rare condition: small coef for last iteration:  0.000D+00
 Rare condition: small coef for last iteration:  0.000D+00
 Rare condition: small coef for last iteration:  0.000D+00
 Rare condition: small coef for last iteration:  0.000D+00
 Rare condition: small coef for last iteration:  0.000D+00
 Rare condition: small coef for last iteration:  0.000D+00
 Rare condition: small coef for last iteration:  0.000D+00
 Rare condition: small coef for last iteration:  0.000D+00
 Rare condition: small coef for last iteration:  0.000D+00
 Rare condition: small coef for last iteration:  0.000D+00
 >>>>>>>>>> Convergence criterion not met.
 SCF Done:  E(UAM1) =  0.532849899492     A.U. after   33 cycles
            NFock= 32  Conv=0.80D-03     -V/T= 1.0078
 <Sx>= 0.0000 <Sy>= 0.0000 <Sz>= 0.5000 <S**2>= 1.0995 S= 0.6617
 <L.S>=  0.00000000000    
 Annihilation of the first spin contaminant:
 S**2 before annihilation     1.0995,   after     0.8847
 Keep J ints in memory in canonical form, NReq=862479.
 LinEq1:  Iter=  0 NonCon=     1 RMS=3.59D-04 Max=4.08D-03 NDo=     1
 AX will form     1 AO Fock derivatives at one time.
 LinEq1:  Iter=  1 NonCon=     1 RMS=3.97D-05 Max=2.89D-04 NDo=     1
 LinEq1:  Iter=  2 NonCon=     1 RMS=1.23D-05 Max=9.51D-05 NDo=     1
 LinEq1:  Iter=  3 NonCon=     1 RMS=3.29D-06 Max=2.14D-05 NDo=     1
 LinEq1:  Iter=  4 NonCon=     1 RMS=8.52D-07 Max=7.80D-06 NDo=     1
 LinEq1:  Iter=  5 NonCon=     1 RMS=2.40D-07 Max=2.69D-06 NDo=     1
 LinEq1:  Iter=  6 NonCon=     1 RMS=4.20D-08 Max=3.00D-07 NDo=     1
 LinEq1:  Iter=  7 NonCon=     1 RMS=8.72D-09 Max=6.06D-08 NDo=     1
 LinEq1:  Iter=  8 NonCon=     0 RMS=2.19D-09 Max=1.26D-08 NDo=     1
 Linear equations converged to 2.252D-09 2.252D-08 after     8 iterations.
 Gradient too large for Newton-Raphson -- use scaled steepest descent instead.
     Accept linear search using points  4 and  5.
     Minimum is close to point  5 DX= -2.02D-01 DF= -4.53D-06 DXR=  9.20D-02 DFR=  9.62D-03 which will be used.
 LinEq1:  Iter=  0 NonCon=     1 RMS=5.16D-04 Max=3.17D-03 NDo=     1
 LinEq1:  Iter=  1 NonCon=     1 RMS=1.85D-04 Max=1.25D-03 NDo=     1
 LinEq1:  Iter=  2 NonCon=     1 RMS=2.95D-05 Max=2.10D-04 NDo=     1
 LinEq1:  Iter=  3 NonCon=     1 RMS=7.67D-06 Max=1.11D-04 NDo=     1
 LinEq1:  Iter=  4 NonCon=     1 RMS=1.97D-06 Max=2.25D-05 NDo=     1
 LinEq1:  Iter=  5 NonCon=     1 RMS=5.24D-07 Max=5.11D-06 NDo=     1
 LinEq1:  Iter=  6 NonCon=     1 RMS=1.13D-07 Max=7.41D-07 NDo=     1
 LinEq1:  Iter=  7 NonCon=     1 RMS=2.10D-08 Max=1.73D-07 NDo=     1
 LinEq1:  Iter=  8 NonCon=     1 RMS=5.94D-09 Max=4.21D-08 NDo=     1
 LinEq1:  Iter=  9 NonCon=     0 RMS=1.31D-09 Max=1.00D-08 NDo=     1
 Linear equations converged to 2.252D-09 2.252D-08 after     9 iterations.
     Accept linear search using points  1 and  2.
 LinEq1:  Iter=  0 NonCon=     1 RMS=7.78D-05 Max=4.88D-04 NDo=     1
 LinEq1:  Iter=  1 NonCon=     1 RMS=1.45D-05 Max=1.50D-04 NDo=     1
 LinEq1:  Iter=  2 NonCon=     1 RMS=3.99D-06 Max=3.21D-05 NDo=     1
 LinEq1:  Iter=  3 NonCon=     1 RMS=1.02D-06 Max=1.29D-05 NDo=     1
 LinEq1:  Iter=  4 NonCon=     1 RMS=2.61D-07 Max=2.55D-06 NDo=     1
 LinEq1:  Iter=  5 NonCon=     1 RMS=6.57D-08 Max=4.71D-07 NDo=     1
 LinEq1:  Iter=  6 NonCon=     1 RMS=1.53D-08 Max=1.37D-07 NDo=     1
 LinEq1:  Iter=  7 NonCon=     1 RMS=3.10D-09 Max=2.78D-08 NDo=     1
 LinEq1:  Iter=  8 NonCon=     0 RMS=7.10D-10 Max=6.44D-09 NDo=     1
 Linear equations converged to 2.252D-09 2.252D-08 after     8 iterations.
     Minimum is close to point  2 DX=  1.97D-03 DF= -1.32D-11 DXR=  1.97D-03 DFR=  3.87D-06 which will be used.
 LinEq1:  Iter=  0 NonCon=     1 RMS=8.18D-07 Max=6.86D-06 NDo=     1
 LinEq1:  Iter=  1 NonCon=     1 RMS=3.00D-07 Max=2.49D-06 NDo=     1
 LinEq1:  Iter=  2 NonCon=     1 RMS=6.31D-08 Max=5.18D-07 NDo=     1
 LinEq1:  Iter=  3 NonCon=     1 RMS=1.18D-08 Max=7.89D-08 NDo=     1
 LinEq1:  Iter=  4 NonCon=     1 RMS=3.24D-09 Max=2.39D-08 NDo=     1
 LinEq1:  Iter=  5 NonCon=     1 RMS=8.02D-10 Max=8.19D-09 NDo=     1
 LinEq1:  Iter=  6 NonCon=     1 RMS=1.86D-10 Max=2.09D-09 NDo=     1
 LinEq1:  Iter=  7 NonCon=     0 RMS=5.41D-11 Max=5.04D-10 NDo=     1
 Linear equations converged to 1.023D-10 1.023D-09 after     7 iterations.
 LinEq1:  Iter=  0 NonCon=     1 RMS=4.12D-08 Max=3.85D-07 NDo=     1
 LinEq1:  Iter=  1 NonCon=     1 RMS=1.46D-08 Max=1.39D-07 NDo=     1
 LinEq1:  Iter=  2 NonCon=     1 RMS=3.17D-09 Max=3.15D-08 NDo=     1
 LinEq1:  Iter=  3 NonCon=     1 RMS=7.20D-10 Max=6.45D-09 NDo=     1
 LinEq1:  Iter=  4 NonCon=     1 RMS=2.04D-10 Max=1.61D-09 NDo=     1
 LinEq1:  Iter=  5 NonCon=     1 RMS=4.12D-11 Max=3.96D-10 NDo=     1
 LinEq1:  Iter=  6 NonCon=     1 RMS=8.36D-12 Max=7.12D-11 NDo=     1
 LinEq1:  Iter=  7 NonCon=     0 RMS=2.86D-12 Max=2.63D-11 NDo=     1
 Linear equations converged to 5.755D-12 5.755D-11 after     7 iterations.
 SCF Done:  E(UAM1) =  0.522830269871     a.u. after    7 cycles
            Convg  =    0.2350D-07                    54 Fock formations.
              S**2 =  1.6218                  -V/T =  1.0077
 <Sx>= 0.0000 <Sy>= 0.0000 <Sz>= 0.5000 <S**2>= 1.6218 S= 0.8681
 <L.S>=  0.00000000000    
 Annihilation of the first spin contaminant:
 S**2 before annihilation     1.6218,   after     1.7915
 Calling FoFJK, ICntrl=      2127 FMM=F ISym2X=1 I1Cent= 0 IOpClX= 1 NMat=1 NMatS=1 NMatT=0.
 ***** Axes restored to original set *****
 -------------------------------------------------------------------
 Center     Atomic                   Forces (Hartrees/Bohr)
 Number     Number              X              Y              Z
 -------------------------------------------------------------------
      1        6          -0.089730764    0.038271983    0.000000000
      2        6          -0.017469133    0.095590047    0.000000000
      3        6           0.026420830    0.016236426    0.000000000
      4        6           0.077387892   -0.058765884    0.000000000
      5        6          -0.006377310   -0.097345410    0.000000000
      6        6           0.037054605    0.022777885    0.000000000
      7        1           0.099807069   -0.053974498   -0.000000000
      8        1           0.003739946   -0.116332616   -0.000000000
      9       17          -0.025661271   -0.015770462    0.000000000
     10        1          -0.102099700    0.055885133   -0.000000000
     11        1          -0.003072163    0.113427397   -0.000000000
 -------------------------------------------------------------------
 Cartesian Forces:  Max     0.116332616 RMS     0.053519618

 GradGradGradGradGradGradGradGradGradGradGradGradGradGradGradGradGradGrad
 Berny optimization.
 Using GEDIIS/GDIIS optimizer.
 FormGI is forming the generalized inverse of G from B-inverse, IUseBI=4.
 Internal  Forces:  Max     0.116392686 RMS     0.034797896
 Search for a local minimum.
 Step number   2 out of a maximum of   57
 All quantities printed in internal units (Hartrees-Bohrs-Radians)
 Mixed Optimization -- RFO/linear search
 Update second derivatives using D2CorX and points    1    2
 DE= -8.30D-02 DEPred=-6.96D-02 R= 1.19D+00
 TightC=F SS=  1.41D+00  RLast= 3.00D-01 DXNew= 5.0454D-01 9.0000D-01
 Trust test= 1.19D+00 RLast= 3.00D-01 DXMaxT set to 5.05D-01
 ITU=  1  0
 Use linear search instead of GDIIS.
     Eigenvalues ---    0.00288   0.02011   0.02011   0.02011   0.02011
     Eigenvalues ---    0.02011   0.02011   0.02011   0.02011   0.06524
     Eigenvalues ---    0.06524   0.07765   0.16000   0.16000   0.16000
     Eigenvalues ---    0.16004   0.22000   0.22936   0.23871   0.25000
     Eigenvalues ---    0.28902   0.40640   0.41070   0.44655   0.44656
     Eigenvalues ---    0.44657   2.43579
 RFO step:  Lambda=-7.25298299D-03 EMin= 2.88303243D-03
 Quartic linear search produced a step of  0.65969.
 Maximum step size (   0.505) exceeded in Quadratic search.
    -- Step size scaled by   0.901
 Iteration  1 RMS(Cart)=  0.07394803 RMS(Int)=  0.04432114
 Iteration  2 RMS(Cart)=  0.04139885 RMS(Int)=  0.00246461
 Iteration  3 RMS(Cart)=  0.00240622 RMS(Int)=  0.00010155
 Iteration  4 RMS(Cart)=  0.00000002 RMS(Int)=  0.00010155
 ClnCor:  largest displacement from symmetrization is 2.67D-09 for atom    11.
 Variable       Old X    -DE/DX   Delta X   Delta X   Delta X     New X
                                 (Linear)    (Quad)   (Total)
    R1        2.62888  -0.02211  -0.01840  -0.03339  -0.05178   2.57709
    R2        2.62587  -0.02961  -0.02038  -0.04969  -0.06993   2.55594
    R3        3.18327  -0.11347  -0.10099  -0.13388  -0.23487   2.94840
    R4        2.64078  -0.00621  -0.01055  -0.00336  -0.01404   2.62674
    R5        3.19819  -0.11639  -0.09113  -0.32077  -0.41190   2.78629
    R6        2.64078  -0.00621  -0.01055  -0.00336  -0.01405   2.62673
    R7        3.31046  -0.03012  -0.01707  -0.06547  -0.08254   3.22792
    R8        2.62889  -0.02212  -0.01840  -0.03340  -0.05179   2.57710
    R9        3.19818  -0.11639  -0.09114  -0.32077  -0.41190   2.78628
   R10        2.62586  -0.02961  -0.02038  -0.04968  -0.06992   2.55594
   R11        3.18324  -0.11347  -0.10099  -0.13391  -0.23489   2.94834
    A1        2.08867  -0.00486  -0.00378  -0.01029  -0.01394   2.07473
    A2        2.09778   0.00306   0.00223   0.00715   0.00932   2.10710
    A3        2.09674   0.00180   0.00154   0.00314   0.00462   2.10135
    A4        2.09662   0.00056   0.00147  -0.00001   0.00130   2.09792
    A5        2.09440   0.00050   0.00000   0.00086   0.00094   2.09534
    A6        2.09216  -0.00106  -0.00147  -0.00085  -0.00224   2.08993
    A7        2.08900  -0.00618  -0.00356  -0.01024  -0.01410   2.07489
    A8        2.09709   0.00309   0.00178   0.00512   0.00705   2.10415
    A9        2.09709   0.00309   0.00178   0.00512   0.00705   2.10415
   A10        2.09662   0.00056   0.00147  -0.00001   0.00130   2.09792
   A11        2.09217  -0.00106  -0.00147  -0.00085  -0.00224   2.08993
   A12        2.09440   0.00050   0.00000   0.00086   0.00094   2.09534
   A13        2.08867  -0.00486  -0.00377  -0.01029  -0.01394   2.07473
   A14        2.09777   0.00306   0.00223   0.00715   0.00932   2.10710
   A15        2.09674   0.00180   0.00154   0.00314   0.00462   2.10136
   A16        2.10679   0.01479   0.00818   0.03083   0.03939   2.14618
    D1        0.00000   0.00000   0.00000   0.00000   0.00000   0.00000
    D2        3.14159  -0.00000   0.00000  -0.00000   0.00000   3.14159
    D3        3.14159   0.00000   0.00000   0.00000   0.00000   3.14159
    D4        0.00000   0.00000   0.00000   0.00000  -0.00000   0.00000
    D5       -0.00000  -0.00000   0.00000  -0.00000   0.00000   0.00000
    D6        3.14159  -0.00000   0.00000  -0.00000   0.00000   3.14159
    D7       -0.00000   0.00000   0.00000   0.00000   0.00000   0.00000
    D8        3.14159  -0.00000   0.00000  -0.00000   0.00000   3.14159
    D9        3.14159   0.00000   0.00000   0.00000   0.00000   3.14159
   D10       -0.00000   0.00000   0.00000   0.00000   0.00000   0.00000
   D11       -0.00000  -0.00000   0.00000  -0.00000   0.00000   0.00000
   D12        3.14159  -0.00000   0.00000  -0.00000   0.00000   3.14159
   D13        3.14159  -0.00000   0.00000  -0.00000   0.00000   3.14159
   D14        0.00000  -0.00000   0.00000  -0.00000   0.00000   0.00000
   D15        0.00000   0.00000   0.00000   0.00000   0.00000   0.00000
   D16        3.14159  -0.00000   0.00000  -0.00000   0.00000   3.14159
   D17        3.14159   0.00000   0.00000   0.00000   0.00000   3.14159
   D18       -0.00000   0.00000   0.00000   0.00000   0.00000   0.00000
   D19       -0.00000   0.00000   0.00000   0.00000   0.00000   0.00000
   D20        3.14159   0.00000   0.00000   0.00000   0.00000   3.14159
         Item               Value     Threshold  Converged?
 Maximum Force            0.116393     0.000450     NO 
 RMS     Force            0.034798     0.000300     NO 
 Maximum Displacement     0.430387     0.001800     NO 
 RMS     Displacement     0.110529     0.001200     NO 
 Predicted change in Energy=-1.573733D-01
 GradGradGradGradGradGradGradGradGradGradGradGradGradGradGradGradGradGrad

                          Input orientation:                          
 ---------------------------------------------------------------------
 Center     Atomic      Atomic             Coordinates (Angstroms)
 Number     Number       Type             X           Y           Z
 ---------------------------------------------------------------------
      1          6           0       -3.163386    0.193491   -0.000000
      2          6           0       -2.005992    0.914758   -0.000000
      3          6           0       -0.777183    0.265023    0.000000
      4          6           0       -0.752563   -1.124767    0.000000
      5          6           0       -1.918852   -1.831562    0.000000
      6          6           0       -3.091251   -1.157130    0.000000
      7          1           0       -4.549311    0.910094   -0.000000
      8          1           0       -2.054267    2.388409   -0.000000
      9         17           0        0.678099    1.159394    0.000000
     10          1           0        0.540372   -1.833488    0.000000
     11          1           0       -1.905537   -3.391703    0.000000
 ---------------------------------------------------------------------
                    Distance matrix (angstroms):
                    1          2          3          4          5
     1  C    0.000000
     2  C    1.363740   0.000000
     3  C    2.387275   1.390010   0.000000
     4  C    2.747703   2.393898   1.390008   0.000000
     5  C    2.376911   2.747702   2.387274   1.363742   0.000000
     6  C    1.352546   2.338911   2.716142   2.338912   1.352546
     7  H    1.560227   2.543323   3.826887   4.307663   3.799473
     8  H    2.459229   1.474442   2.477844   3.746577   4.222144
     9  Cl   3.961057   2.695216   1.708141   2.695215   3.961057
    10  H    4.222140   3.746575   2.477842   1.474438   2.459225
    11  H    3.799447   4.307632   3.826856   2.543294   1.560197
                    6          7          8          9         10
     6  C    0.000000
     7  H    2.529694   0.000000
     8  H    3.694074   2.900114   0.000000
     9  Cl   4.424283   5.233351   2.996048   0.000000
    10  H    3.694069   5.782051   4.955459   2.996049   0.000000
    11  H    2.529671   5.049257   5.782025   5.233321   2.900086
                   11
    11  H    0.000000
 Stoichiometry    C6H4Cl(2)
 Framework group  CS[SG(C6H4Cl)]
 Deg. of freedom    19
 Full point group                 CS      NOp   2
 Largest Abelian subgroup         CS      NOp   2
 Largest concise Abelian subgroup C1      NOp   1
                         Standard orientation:                         
 ---------------------------------------------------------------------
 Center     Atomic      Atomic             Coordinates (Angstroms)
 Number     Number       Type             X           Y           Z
 ---------------------------------------------------------------------
      1          6           0       -1.188453   -1.609224    0.000000
      2          6           0       -1.196948   -0.245510    0.000000
      3          6           0        0.000000    0.461202    0.000000
      4          6           0        1.196950   -0.245505    0.000000
      5          6           0        1.188458   -1.609220    0.000000
      6          6           0        0.000004   -2.254941    0.000000
      7          1           0       -2.524635   -2.414782    0.000000
      8          1           0       -2.477730    0.484952    0.000000
      9         17           0       -0.000003    2.169342    0.000000
     10          1           0        2.477728    0.484955    0.000000
     11          1           0        2.524622   -2.414752    0.000000
 ---------------------------------------------------------------------
 Rotational constants (GHZ):           5.4048726           1.6643908           1.2725258
 Standard basis: VSTO-6G (5D, 7F)
 There are    25 symmetry adapted cartesian basis functions of A'  symmetry.
 There are     7 symmetry adapted cartesian basis functions of A"  symmetry.
 There are    25 symmetry adapted basis functions of A'  symmetry.
 There are     7 symmetry adapted basis functions of A"  symmetry.
    32 basis functions,   192 primitive gaussians,    32 cartesian basis functions
    18 alpha electrons       17 beta electrons
       nuclear repulsion energy       151.2699437262 Hartrees.
 Integral buffers will be    131072 words long.
 Regular integral format.
 Two-electron integral symmetry is turned off.
 Do NDO integrals.
 One-electron integrals computed using PRISM.
 NBasis=    32 RedAO= T EigKep=  1.00D+00  NBF=    25     7
 NBsUse=    32 1.00D-06 EigRej= -1.00D+00 NBFU=    25     7
 Initial guess from the checkpoint file:  "geometry_chks/14-_4-ClBzNeutralRadical.chk"
 B after Tr=    -0.000000   -0.000000    0.000000
         Rot=    1.000000    0.000000   -0.000000   -0.000001 Ang=  -0.00 deg.
 Initial guess orbital symmetries:
 Alpha Orbitals:
       Occupied  (A') (A') (A') (A') (A') (A') (A') (A') (A") (A')
                 (A") (A') (A') (A') (A') (A') (A") (A")
       Virtual   (A') (A") (A') (A') (A") (A') (A') (A") (A') (A')
                 (A') (A') (A') (A')
 Beta  Orbitals:
       Occupied  (A') (A') (A') (A') (A') (A') (A') (A') (A") (A')
                 (A") (A') (A') (A') (A') (A") (A")
       Virtual   (A') (A') (A') (A') (A") (A") (A') (A') (A") (A')
                 (A') (A') (A') (A') (A')
 Initial guess <Sx>= 0.0000 <Sy>= 0.0000 <Sz>= 0.5000 <S**2>= 1.6218 S= 0.8681
 Keep J ints in memory in canonical form, NReq=862079.
 Overlap will be assumed to be unity.
 Requested convergence on RMS density matrix=1.00D-08 within  32 cycles.
 Requested convergence on MAX density matrix=1.00D-06.
 Requested convergence on             energy=1.00D-06.
 No special actions if energy rises.
 Fock symm off for IB=2 I1=    1 I=   26 J=    9 Cut=1.00D-07 Err=2.22D-03
 Fock matrix is not symmetric: symmetry in diagonalization turned off.
 SCF Done:  E(UAM1) =  0.365212601081     A.U. after   21 cycles
            NFock= 20  Conv=0.70D-08     -V/T= 1.0053
 <Sx>= 0.0000 <Sy>= 0.0000 <Sz>= 0.5000 <S**2>= 1.1113 S= 0.6668
 <L.S>=  0.00000000000    
 Annihilation of the first spin contaminant:
 S**2 before annihilation     1.1113,   after     0.8639
 QCSCF skips out because SCF is already converged.
 Calling FoFJK, ICntrl=      2127 FMM=F ISym2X=1 I1Cent= 0 IOpClX= 1 NMat=1 NMatS=1 NMatT=0.
 ***** Axes restored to original set *****
 -------------------------------------------------------------------
 Center     Atomic                   Forces (Hartrees/Bohr)
 Number     Number              X              Y              Z
 -------------------------------------------------------------------
      1        6          -0.132951904    0.065418188    0.000000000
      2        6           0.001879952    0.133213622    0.000000000
      3        6           0.020361315    0.012514243    0.000000000
      4        6           0.119696428   -0.058496621   -0.000000000
      5        6          -0.001688315   -0.148165776    0.000000000
      6        6          -0.009515043   -0.005846743   -0.000000000
      7        1           0.106724488   -0.055298001   -0.000000000
      8        1           0.004387661   -0.116349953   -0.000000000
      9       17          -0.005944712   -0.003653324    0.000000000
     10        1          -0.101821425    0.056470263   -0.000000000
     11        1          -0.001128445    0.120194101   -0.000000000
 -------------------------------------------------------------------
 Cartesian Forces:  Max     0.148165776 RMS     0.064235297

 GradGradGradGradGradGradGradGradGradGradGradGradGradGradGradGradGradGrad
 Berny optimization.
 Using GEDIIS/GDIIS optimizer.
 FormGI is forming the generalized inverse of G from B-inverse, IUseBI=4.
 Internal  Forces:  Max     0.120199729 RMS     0.035275857
 Search for a local minimum.
 Step number   3 out of a maximum of   57
 All quantities printed in internal units (Hartrees-Bohrs-Radians)
 Mixed Optimization -- RFO/linear search
 Update second derivatives using D2CorX and points    2    3
 DE= -1.58D-01 DEPred=-1.57D-01 R= 1.00D+00
 TightC=F SS=  1.41D+00  RLast= 6.89D-01 DXNew= 8.4853D-01 2.0665D+00
 Trust test= 1.00D+00 RLast= 6.89D-01 DXMaxT set to 8.49D-01
 ITU=  1  1  0
 Use linear search instead of GDIIS.
     Eigenvalues ---    0.00632   0.02011   0.02011   0.02011   0.02011
     Eigenvalues ---    0.02011   0.02011   0.02011   0.02011   0.06524
     Eigenvalues ---    0.06524   0.08274   0.16000   0.16000   0.16000
     Eigenvalues ---    0.16019   0.22000   0.22868   0.23747   0.25000
     Eigenvalues ---    0.28501   0.40579   0.41684   0.44656   0.44657
     Eigenvalues ---    0.44749   3.26349
 RFO step:  Lambda=-2.28215757D-01 EMin= 6.31627585D-03
 Skip linear search -- no minimum in search direction.
 Maximum step size (   0.849) exceeded in Quadratic search.
    -- Step size scaled by   0.863
 Iteration  1 RMS(Cart)=  0.06624273 RMS(Int)=  0.06490640
 Iteration  2 RMS(Cart)=  0.05789637 RMS(Int)=  0.00942218
 Iteration  3 RMS(Cart)=  0.00918666 RMS(Int)=  0.00002388
 Iteration  4 RMS(Cart)=  0.00000025 RMS(Int)=  0.00002388
 ClnCor:  largest displacement from symmetrization is 3.48D-10 for atom     4.
 Variable       Old X    -DE/DX   Delta X   Delta X   Delta X     New X
                                 (Linear)    (Quad)   (Total)
    R1        2.57709   0.02261   0.00000  -0.02831  -0.02831   2.54878
    R2        2.55594   0.01975   0.00000  -0.03302  -0.03298   2.52296
    R3        2.94840  -0.12020   0.00000  -0.44563  -0.44563   2.50278
    R4        2.62674   0.01636   0.00000  -0.01893  -0.01897   2.60777
    R5        2.78629  -0.11643   0.00000  -0.39657  -0.39657   2.38973
    R6        2.62673   0.01636   0.00000  -0.01893  -0.01897   2.60777
    R7        3.22792  -0.00698   0.00000  -0.04597  -0.04597   3.18195
    R8        2.57710   0.02261   0.00000  -0.02831  -0.02831   2.54878
    R9        2.78628  -0.11643   0.00000  -0.39657  -0.39657   2.38972
   R10        2.55594   0.01975   0.00000  -0.03301  -0.03298   2.52296
   R11        2.94834  -0.12020   0.00000  -0.44562  -0.44562   2.50272
    A1        2.07473  -0.00440   0.00000  -0.01618  -0.01615   2.05858
    A2        2.10710   0.00235   0.00000   0.00862   0.00860   2.11571
    A3        2.10135   0.00205   0.00000   0.00756   0.00754   2.10890
    A4        2.09792   0.00128   0.00000   0.00583   0.00579   2.10371
    A5        2.09534   0.00016   0.00000   0.00052   0.00053   2.09587
    A6        2.08993  -0.00144   0.00000  -0.00635  -0.00633   2.08360
    A7        2.07489   0.00152   0.00000  -0.00596  -0.00603   2.06886
    A8        2.10415  -0.00076   0.00000   0.00298   0.00301   2.10716
    A9        2.10415  -0.00076   0.00000   0.00298   0.00302   2.10716
   A10        2.09792   0.00128   0.00000   0.00583   0.00580   2.10371
   A11        2.08993  -0.00144   0.00000  -0.00635  -0.00633   2.08360
   A12        2.09534   0.00016   0.00000   0.00052   0.00053   2.09587
   A13        2.07473  -0.00441   0.00000  -0.01618  -0.01615   2.05858
   A14        2.10710   0.00235   0.00000   0.00862   0.00861   2.11570
   A15        2.10136   0.00205   0.00000   0.00756   0.00754   2.10890
   A16        2.14618   0.00472   0.00000   0.02664   0.02673   2.17292
    D1        0.00000  -0.00000   0.00000  -0.00000  -0.00000   0.00000
    D2        3.14159  -0.00000   0.00000  -0.00000   0.00000   3.14159
    D3        3.14159   0.00000   0.00000   0.00000   0.00000   3.14159
    D4        0.00000   0.00000   0.00000  -0.00000   0.00000   0.00000
    D5       -0.00000   0.00000   0.00000   0.00000   0.00000   0.00000
    D6        3.14159  -0.00000   0.00000  -0.00000   0.00000   3.14159
    D7       -0.00000   0.00000   0.00000   0.00000   0.00000   0.00000
    D8        3.14159  -0.00000   0.00000  -0.00000   0.00000   3.14159
    D9        3.14159   0.00000   0.00000   0.00000   0.00000   3.14159
   D10        0.00000   0.00000   0.00000   0.00000  -0.00000   0.00000
   D11       -0.00000  -0.00000   0.00000  -0.00000   0.00000   0.00000
   D12        3.14159  -0.00000   0.00000  -0.00000   0.00000   3.14159
   D13        3.14159   0.00000   0.00000   0.00000   0.00000   3.14159
   D14        0.00000  -0.00000   0.00000   0.00000   0.00000   0.00000
   D15        0.00000   0.00000   0.00000   0.00000   0.00000   0.00000
   D16        3.14159  -0.00000   0.00000  -0.00000   0.00000   3.14159
   D17        3.14159   0.00000   0.00000   0.00000   0.00000   3.14159
   D18        0.00000  -0.00000   0.00000  -0.00000  -0.00000   0.00000
   D19        0.00000  -0.00000   0.00000  -0.00000  -0.00000   0.00000
   D20        3.14159   0.00000   0.00000   0.00000   0.00000   3.14159
         Item               Value     Threshold  Converged?
 Maximum Force            0.120200     0.000450     NO 
 RMS     Force            0.035276     0.000300     NO 
 Maximum Displacement     0.462370     0.001800     NO 
 RMS     Displacement     0.130115     0.001200     NO 
 Predicted change in Energy=-1.941233D-01
 GradGradGradGradGradGradGradGradGradGradGradGradGradGradGradGradGradGrad

                          Input orientation:                          
 ---------------------------------------------------------------------
 Center     Atomic      Atomic             Coordinates (Angstroms)
 Number     Number       Type             X           Y           Z
 ---------------------------------------------------------------------
      1          6           0       -3.154850    0.190614   -0.000000
      2          6           0       -2.008192    0.900772   -0.000000
      3          6           0       -0.786316    0.259410    0.000000
      4          6           0       -0.766035   -1.120412    0.000000
      5          6           0       -1.917563   -1.822647    0.000000
      6          6           0       -3.065833   -1.141507    0.000000
      7          1           0       -4.334828    0.792046   -0.000000
      8          1           0       -2.045407    2.164813   -0.000000
      9         17           0        0.648240    1.141043   -0.000000
     10          1           0        0.344888   -1.724584    0.000000
     11          1           0       -1.913974   -3.147027    0.000000
 ---------------------------------------------------------------------
                    Distance matrix (angstroms):
                    1          2          3          4          5
     1  C    0.000000
     2  C    1.348759   0.000000
     3  C    2.369533   1.379973   0.000000
     4  C    2.724927   2.372370   1.379971   0.000000
     5  C    2.363070   2.724927   2.369531   1.348759   0.000000
     6  C    1.335092   2.299894   2.675587   2.299895   1.335094
     7  H    1.324412   2.329175   3.588264   4.048923   3.560869
     8  H    2.264580   1.264588   2.283828   3.525549   3.989509
     9  Cl   3.920053   2.667276   1.683814   2.667275   3.920051
    10  H    3.989505   3.525547   2.283824   1.264584   2.264575
    11  H    3.560845   4.048895   3.588234   2.329148   1.324385
                    6          7          8          9         10
     6  C    0.000000
     7  H    2.312785   0.000000
     8  H    3.460205   2.669444   0.000000
     9  Cl   4.359401   4.995274   2.881639   0.000000
    10  H    3.460202   5.313489   4.565186   2.881639   0.000000
    11  H    2.312766   4.623508   5.313465   4.995246   2.669419
                   11
    11  H    0.000000
 Stoichiometry    C6H4Cl(2)
 Framework group  CS[SG(C6H4Cl)]
 Deg. of freedom    19
 Full point group                 CS      NOp   2
 Largest Abelian subgroup         CS      NOp   2
 Largest concise Abelian subgroup C1      NOp   1
                         Standard orientation:                         
 ---------------------------------------------------------------------
 Center     Atomic      Atomic             Coordinates (Angstroms)
 Number     Number       Type             X           Y           Z
 ---------------------------------------------------------------------
      1          6           0        1.594693   -1.181535    0.000000
      2          6           0        0.245942   -1.186185    0.000000
      3          6           0       -0.459244    0.000001    0.000000
      4          6           0        0.245942    1.186185    0.000000
      5          6           0        1.594693    1.181534    0.000000
      6          6           0        2.216343   -0.000001    0.000000
      7          1           0        2.285090   -2.311765    0.000000
      8          1           0       -0.384195   -2.282593    0.000000
      9         17           0       -2.143058    0.000002    0.000000
     10          1           0       -0.384188    2.282592    0.000000
     11          1           0        2.285072    2.311743    0.000000
 ---------------------------------------------------------------------
 Rotational constants (GHZ):           5.7074344           1.7126995           1.3173779
 Standard basis: VSTO-6G (5D, 7F)
 There are    25 symmetry adapted cartesian basis functions of A'  symmetry.
 There are     7 symmetry adapted cartesian basis functions of A"  symmetry.
 There are    25 symmetry adapted basis functions of A'  symmetry.
 There are     7 symmetry adapted basis functions of A"  symmetry.
    32 basis functions,   192 primitive gaussians,    32 cartesian basis functions
    18 alpha electrons       17 beta electrons
       nuclear repulsion energy       153.6747659638 Hartrees.
 Integral buffers will be    131072 words long.
 Regular integral format.
 Two-electron integral symmetry is turned off.
 Do NDO integrals.
 One-electron integrals computed using PRISM.
 NBasis=    32 RedAO= T EigKep=  1.00D+00  NBF=    25     7
 NBsUse=    32 1.00D-06 EigRej= -1.00D+00 NBFU=    25     7
 Initial guess from the checkpoint file:  "geometry_chks/14-_4-ClBzNeutralRadical.chk"
 B after Tr=    -0.000000    0.000000    0.000000
         Rot=    0.707108   -0.000000   -0.000000   -0.707106 Ang= -90.00 deg.
 Initial guess orbital symmetries:
 Alpha Orbitals:
       Occupied  (A') (A') (A') (A') (A') (A') (A') (A') (A") (A')
                 (A') (A') (A") (A') (A') (A') (A") (A")
       Virtual   (A") (A") (A') (A') (A') (A') (A') (A") (A') (A')
                 (A') (A') (A') (A')
 Beta  Orbitals:
       Occupied  (A') (A') (A') (A') (A') (A') (A') (A') (A") (A')
                 (A') (A') (A") (A') (A') (A") (A")
       Virtual   (A') (A") (A") (A') (A') (A') (A') (A') (A") (A')
                 (A') (A') (A') (A') (A')
 Initial guess <Sx>= 0.0000 <Sy>= 0.0000 <Sz>= 0.5000 <S**2>= 1.1113 S= 0.6668
 Keep J ints in memory in canonical form, NReq=862079.
 Overlap will be assumed to be unity.
 Requested convergence on RMS density matrix=1.00D-08 within  32 cycles.
 Requested convergence on MAX density matrix=1.00D-06.
 Requested convergence on             energy=1.00D-06.
 No special actions if energy rises.
 Fock symm off for IB=2 I1=    1 I=   26 J=    5 Cut=1.00D-07 Err=6.31D-03
 Fock matrix is not symmetric: symmetry in diagonalization turned off.
 SCF Done:  E(UAM1) =  0.192390005755     A.U. after   16 cycles
            NFock= 15  Conv=0.80D-08     -V/T= 1.0028
 <Sx>= 0.0000 <Sy>= 0.0000 <Sz>= 0.5000 <S**2>= 0.9915 S= 0.6142
 <L.S>=  0.00000000000    
 Annihilation of the first spin contaminant:
 S**2 before annihilation     0.9915,   after     0.7939
 QCSCF skips out because SCF is already converged.
 Calling FoFJK, ICntrl=      2127 FMM=F ISym2X=1 I1Cent= 0 IOpClX= 1 NMat=1 NMatS=1 NMatT=0.
 ***** Axes restored to original set *****
 -------------------------------------------------------------------
 Center     Atomic                   Forces (Hartrees/Bohr)
 Number     Number              X              Y              Z
 -------------------------------------------------------------------
      1        6          -0.144724560    0.064935542    0.000000000
      2        6           0.016303943    0.130238640    0.000000000
      3        6           0.021828300    0.013417572    0.000000000
      4        6           0.123558494   -0.044284006    0.000000000
      5        6          -0.007440195   -0.158445282    0.000000000
      6        6          -0.035790597   -0.021996905   -0.000000000
      7        1           0.082962095   -0.041852527   -0.000000000
      8        1           0.002218873   -0.076011732   -0.000000000
      9       17           0.007761483    0.004770068   -0.000000000
     10        1          -0.066811583    0.036313856   -0.000000000
     11        1           0.000133747    0.092914775   -0.000000000
 -------------------------------------------------------------------
 Cartesian Forces:  Max     0.158445282 RMS     0.059318049

 GradGradGradGradGradGradGradGradGradGradGradGradGradGradGradGradGradGrad
 Berny optimization.
 Using GEDIIS/GDIIS optimizer.
 FormGI is forming the generalized inverse of G from B-inverse, IUseBI=4.
 Internal  Forces:  Max     0.092920365 RMS     0.031292189
 Search for a local minimum.
 Step number   4 out of a maximum of   57
 All quantities printed in internal units (Hartrees-Bohrs-Radians)
 Mixed Optimization -- RFO/linear search
 Update second derivatives using D2CorX and points    3    4
 DE= -1.73D-01 DEPred=-1.94D-01 R= 8.90D-01
 TightC=F SS=  1.41D+00  RLast= 8.49D-01 DXNew= 1.4270D+00 2.5456D+00
 Trust test= 8.90D-01 RLast= 8.49D-01 DXMaxT set to 1.43D+00
 ITU=  1  1  1  0
 Use linear search instead of GDIIS.
     Eigenvalues ---    0.02011   0.02011   0.02011   0.02011   0.02011
     Eigenvalues ---    0.02011   0.02011   0.02011   0.05831   0.06524
     Eigenvalues ---    0.06524   0.11708   0.16000   0.16000   0.16003
     Eigenvalues ---    0.16023   0.22000   0.22947   0.23873   0.25000
     Eigenvalues ---    0.28440   0.40548   0.41588   0.44656   0.44657
     Eigenvalues ---    0.44783   2.74769
 RFO step:  Lambda=-3.36288889D-02 EMin= 2.01065622D-02
 Quartic linear search produced a step of  0.81262.
 Iteration  1 RMS(Cart)=  0.04927819 RMS(Int)=  0.08697468
 Iteration  2 RMS(Cart)=  0.04037998 RMS(Int)=  0.04570665
 Iteration  3 RMS(Cart)=  0.04020276 RMS(Int)=  0.00445051
 Iteration  4 RMS(Cart)=  0.00433574 RMS(Int)=  0.00008326
 Iteration  5 RMS(Cart)=  0.00000002 RMS(Int)=  0.00008326
 ClnCor:  largest displacement from symmetrization is 1.25D-08 for atom     8.
 Variable       Old X    -DE/DX   Delta X   Delta X   Delta X     New X
                                 (Linear)    (Quad)   (Total)
    R1        2.54878   0.06153  -0.02301   0.05662   0.03362   2.58240
    R2        2.52296   0.05383  -0.02680   0.03845   0.01177   2.53473
    R3        2.50278  -0.09292  -0.36213  -0.25944  -0.62156   1.88121
    R4        2.60777   0.04217  -0.01541   0.03449   0.01896   2.62673
    R5        2.38973  -0.07604  -0.32226   0.11570  -0.20655   2.18317
    R6        2.60777   0.04217  -0.01541   0.03449   0.01896   2.62672
    R7        3.18195   0.00911  -0.03736   0.01623  -0.02112   3.16082
    R8        2.54878   0.06153  -0.02301   0.05663   0.03362   2.58240
    R9        2.38972  -0.07604  -0.32226   0.11571  -0.20655   2.18316
   R10        2.52296   0.05383  -0.02680   0.03845   0.01177   2.53473
   R11        2.50272  -0.09291  -0.36212  -0.25934  -0.62146   1.88127
    A1        2.05858  -0.00506  -0.01312  -0.02076  -0.03378   2.02481
    A2        2.11571   0.00205   0.00699   0.00649   0.01343   2.12914
    A3        2.10890   0.00301   0.00613   0.01427   0.02034   2.12924
    A4        2.10371  -0.00061   0.00471  -0.00439   0.00019   2.10390
    A5        2.09587   0.00028   0.00043  -0.00091  -0.00041   2.09547
    A6        2.08360   0.00033  -0.00514   0.00530   0.00022   2.08382
    A7        2.06886   0.00784  -0.00490   0.01793   0.01278   2.08164
    A8        2.10716  -0.00392   0.00245  -0.00896  -0.00639   2.10077
    A9        2.10716  -0.00392   0.00245  -0.00896  -0.00639   2.10077
   A10        2.10371  -0.00061   0.00471  -0.00440   0.00018   2.10390
   A11        2.08360   0.00033  -0.00514   0.00530   0.00022   2.08382
   A12        2.09587   0.00028   0.00043  -0.00091  -0.00041   2.09546
   A13        2.05858  -0.00506  -0.01312  -0.02076  -0.03377   2.02481
   A14        2.11570   0.00205   0.00699   0.00649   0.01343   2.12914
   A15        2.10890   0.00301   0.00613   0.01426   0.02034   2.12924
   A16        2.17292   0.00350   0.02172   0.03237   0.05440   2.22732
    D1        0.00000  -0.00000   0.00000   0.00000   0.00000   0.00000
    D2        3.14159  -0.00000   0.00000  -0.00000   0.00000   3.14159
    D3        3.14159   0.00000   0.00000   0.00000   0.00000   3.14159
    D4        0.00000   0.00000   0.00000   0.00000   0.00000   0.00000
    D5        0.00000   0.00000   0.00000   0.00000   0.00000   0.00000
    D6        3.14159  -0.00000   0.00000  -0.00000   0.00000   3.14159
    D7        0.00000   0.00000   0.00000  -0.00000   0.00000   0.00000
    D8        3.14159  -0.00000   0.00000  -0.00000   0.00000   3.14159
    D9        3.14159   0.00000   0.00000   0.00000   0.00000   3.14159
   D10        0.00000   0.00000   0.00000  -0.00000   0.00000   0.00000
   D11        0.00000  -0.00000   0.00000  -0.00000   0.00000   0.00000
   D12        3.14159  -0.00000   0.00000  -0.00000   0.00000   3.14159
   D13        3.14159   0.00000   0.00000   0.00000   0.00000   3.14159
   D14        0.00000  -0.00000   0.00000  -0.00000   0.00000   0.00000
   D15        0.00000   0.00000   0.00000   0.00000   0.00000   0.00000
   D16        3.14159  -0.00000   0.00000  -0.00000   0.00000   3.14159
   D17        3.14159   0.00000   0.00000   0.00000   0.00000   3.14159
   D18        0.00000   0.00000   0.00000   0.00000   0.00000   0.00000
   D19        0.00000  -0.00000   0.00000  -0.00000   0.00000   0.00000
   D20        3.14159   0.00000   0.00000   0.00000   0.00000   3.14159
         Item               Value     Threshold  Converged?
 Maximum Force            0.092920     0.000450     NO 
 RMS     Force            0.031292     0.000300     NO 
 Maximum Displacement     0.554042     0.001800     NO 
 RMS     Displacement     0.123385     0.001200     NO 
 Predicted change in Energy=-1.236968D-01
 GradGradGradGradGradGradGradGradGradGradGradGradGradGradGradGradGradGrad

                          Input orientation:                          
 ---------------------------------------------------------------------
 Center     Atomic      Atomic             Coordinates (Angstroms)
 Number     Number       Type             X           Y           Z
 ---------------------------------------------------------------------
      1          6           0       -3.193882    0.192524    0.000000
      2          6           0       -2.027395    0.904394    0.000000
      3          6           0       -0.800789    0.250519    0.000000
      4          6           0       -0.771481   -1.139174    0.000000
      5          6           0       -1.933495   -1.858325    0.000000
      6          6           0       -3.068083   -1.142885    0.000000
      7          1           0       -4.083893    0.638497    0.000000
      8          1           0       -2.054272    2.059366    0.000000
      9         17           0        0.624244    1.126301    0.000000
     10          1           0        0.246804   -1.684856    0.000000
     11          1           0       -1.937627   -2.853840    0.000000
 ---------------------------------------------------------------------
                    Distance matrix (angstroms):
                    1          2          3          4          5
     1  C    0.000000
     2  C    1.366547   0.000000
     3  C    2.393795   1.390006   0.000000
     4  C    2.764316   2.398644   1.390003   0.000000
     5  C    2.407188   2.764315   2.393793   1.366548   0.000000
     6  C    1.341321   2.296603   2.661240   2.296605   1.341322
     7  H    0.995496   2.073616   3.305949   3.759280   3.295199
     8  H    2.187192   1.155284   2.200715   3.446188   3.919552
     9  Cl   3.930652   2.660908   1.672636   2.660907   3.930651
    10  H    3.919550   3.446186   2.200711   1.155280   2.187189
    11  H    3.295225   3.759306   3.305972   2.073638   0.995524
                    6          7          8          9         10
     6  C    0.000000
     7  H    2.050657   0.000000
     8  H    3.358902   2.477544   0.000000
     9  Cl   4.333876   4.733339   2.836381   0.000000
    10  H    3.358900   4.914561   4.394786   2.836382   0.000000
    11  H    2.050682   4.099131   4.914590   4.733361   2.477552
                   11
    11  H    0.000000
 Stoichiometry    C6H4Cl(2)
 Framework group  CS[SG(C6H4Cl)]
 Deg. of freedom    19
 Full point group                 CS      NOp   2
 Largest Abelian subgroup         CS      NOp   2
 Largest concise Abelian subgroup C1      NOp   1
                         Standard orientation:                         
 ---------------------------------------------------------------------
 Center     Atomic      Atomic             Coordinates (Angstroms)
 Number     Number       Type             X           Y           Z
 ---------------------------------------------------------------------
      1          6           0       -1.203592   -1.609127   -0.000000
      2          6           0       -1.199322   -0.242586   -0.000000
      3          6           0       -0.000000    0.460082    0.000000
      4          6           0        1.199322   -0.242580   -0.000000
      5          6           0        1.203597   -1.609121   -0.000000
      6          6           0        0.000003   -2.201158   -0.000000
      7          1           0       -2.049550   -2.133881   -0.000000
      8          1           0       -2.197395    0.339248    0.000000
      9         17           0       -0.000005    2.132718    0.000000
     10          1           0        2.197391    0.339254    0.000000
     11          1           0        2.049582   -2.133885   -0.000000
 ---------------------------------------------------------------------
 Rotational constants (GHZ):           5.7765446           1.7282849           1.3302787
 Standard basis: VSTO-6G (5D, 7F)
 There are    25 symmetry adapted cartesian basis functions of A'  symmetry.
 There are     7 symmetry adapted cartesian basis functions of A"  symmetry.
 There are    25 symmetry adapted basis functions of A'  symmetry.
 There are     7 symmetry adapted basis functions of A"  symmetry.
    32 basis functions,   192 primitive gaussians,    32 cartesian basis functions
    18 alpha electrons       17 beta electrons
       nuclear repulsion energy       155.0766228161 Hartrees.
 Integral buffers will be    131072 words long.
 Regular integral format.
 Two-electron integral symmetry is turned off.
 Do NDO integrals.
 One-electron integrals computed using PRISM.
 NBasis=    32 RedAO= T EigKep=  1.00D+00  NBF=    25     7
 NBsUse=    32 1.00D-06 EigRej= -1.00D+00 NBFU=    25     7
 Initial guess from the checkpoint file:  "geometry_chks/14-_4-ClBzNeutralRadical.chk"
 B after Tr=    -0.000000   -0.000000    0.000000
         Rot=    0.707108   -0.000000    0.000000    0.707106 Ang=  90.00 deg.
 Initial guess orbital symmetries:
 Alpha Orbitals:
       Occupied  (A') (A') (A') (A') (A') (A') (A') (A') (A') (A")
                 (A') (A') (A") (A') (A') (A') (A") (A")
       Virtual   (A") (A") (A') (A') (A') (A") (A') (A') (A') (A')
                 (A') (A') (A') (A')
 Beta  Orbitals:
       Occupied  (A') (A') (A') (A') (A') (A') (A') (A') (A") (A')
                 (A') (A') (A") (A') (A') (A") (A")
       Virtual   (A') (A") (A") (A') (A') (A') (A") (A') (A') (A')
                 (A') (A') (A') (A') (A')
 Initial guess <Sx>= 0.0000 <Sy>= 0.0000 <Sz>= 0.5000 <S**2>= 0.9915 S= 0.6142
 Keep J ints in memory in canonical form, NReq=862079.
 Overlap will be assumed to be unity.
 Requested convergence on RMS density matrix=1.00D-08 within  32 cycles.
 Requested convergence on MAX density matrix=1.00D-06.
 Requested convergence on             energy=1.00D-06.
 No special actions if energy rises.
 Fock symm off for IB=2 I1=    1 I=   26 J=   14 Cut=1.00D-07 Err=2.56D-03
[...]
 Iteration  1 RMS(Cart)=  0.00009475 RMS(Int)=  0.00000000
 Iteration  2 RMS(Cart)=  0.00000001 RMS(Int)=  0.00000000
 ClnCor:  largest displacement from symmetrization is 1.06D-13 for atom     7.
 Variable       Old X    -DE/DX   Delta X   Delta X   Delta X     New X
                                 (Linear)    (Quad)   (Total)
    R1        2.65899  -0.00013  -0.00013  -0.00007  -0.00020   2.65880
    R2        2.59147  -0.00013  -0.00020  -0.00000  -0.00020   2.59127
    R3        2.07210  -0.00000  -0.00008  -0.00001  -0.00009   2.07201
    R4        2.65969  -0.00002   0.00001  -0.00001  -0.00000   2.65969
    R5        2.07685  -0.00002   0.00003  -0.00013  -0.00010   2.07675
    R6        2.65969  -0.00002   0.00000  -0.00001  -0.00000   2.65969
    R7        3.21081   0.00002   0.00007  -0.00006   0.00001   3.21083
    R8        2.65899  -0.00013  -0.00013  -0.00006  -0.00019   2.65880
    R9        2.07689  -0.00003  -0.00004   0.00007   0.00003   2.07692
   R10        2.59147  -0.00013  -0.00019   0.00000  -0.00019   2.59127
   R11        2.07194   0.00006   0.00003   0.00023   0.00026   2.07220
    A1        2.00998  -0.00001  -0.00006   0.00001  -0.00005   2.00993
    A2        2.12772   0.00002  -0.00006   0.00014   0.00008   2.12780
    A3        2.14549  -0.00001   0.00012  -0.00015  -0.00003   2.14546
    A4        2.08124   0.00001   0.00005   0.00005   0.00010   2.08133
    A5        2.09796  -0.00001  -0.00000  -0.00004  -0.00005   2.09791
    A6        2.10399  -0.00000  -0.00005  -0.00000  -0.00005   2.10394
    A7        2.13054  -0.00006  -0.00012  -0.00007  -0.00019   2.13036
    A8        2.07632   0.00003   0.00006   0.00003   0.00009   2.07641
    A9        2.07632   0.00003   0.00006   0.00003   0.00009   2.07642
   A10        2.08124   0.00001   0.00005   0.00004   0.00010   2.08133
   A11        2.10399  -0.00000  -0.00005  -0.00000  -0.00005   2.10394
   A12        2.09796  -0.00001  -0.00000  -0.00004  -0.00005   2.09791
   A13        2.00998  -0.00001  -0.00006   0.00001  -0.00005   2.00992
   A14        2.12772   0.00002  -0.00006   0.00014   0.00008   2.12780
   A15        2.14549  -0.00001   0.00013  -0.00015  -0.00003   2.14546
   A16        2.25340   0.00004   0.00014  -0.00004   0.00010   2.25350
    D1        0.00000  -0.00000   0.00000  -0.00000   0.00000   0.00000
    D2        3.14159  -0.00000   0.00000  -0.00000   0.00000   3.14159
    D3        3.14159   0.00000   0.00000   0.00000   0.00000   3.14159
    D4        0.00000  -0.00000   0.00000  -0.00000   0.00000   0.00000
    D5        0.00000   0.00000   0.00000   0.00000   0.00000   0.00000
    D6        3.14159  -0.00000   0.00000  -0.00000   0.00000   3.14159
    D7        0.00000   0.00000   0.00000   0.00000   0.00000   0.00000
    D8        3.14159  -0.00000   0.00000  -0.00000   0.00000   3.14159
    D9        3.14159   0.00000   0.00000   0.00000   0.00000   3.14159
   D10        0.00000   0.00000   0.00000   0.00000   0.00000   0.00000
   D11        0.00000  -0.00000   0.00000  -0.00000   0.00000   0.00000
   D12        3.14159  -0.00000   0.00000  -0.00000   0.00000   3.14159
   D13        3.14159   0.00000   0.00000   0.00000   0.00000   3.14159
   D14        0.00000  -0.00000   0.00000  -0.00000   0.00000   0.00000
   D15        0.00000   0.00000   0.00000   0.00000   0.00000   0.00000
   D16        3.14159  -0.00000   0.00000  -0.00000   0.00000   3.14159
   D17        3.14159   0.00000   0.00000   0.00000   0.00000   3.14159
   D18        0.00000   0.00000   0.00000   0.00000   0.00000   0.00000
   D19        0.00000  -0.00000   0.00000  -0.00000   0.00000   0.00000
   D20        3.14159   0.00000   0.00000   0.00000   0.00000   3.14159
         Item               Value     Threshold  Converged?
 Maximum Force            0.000135     0.000450     YES
 RMS     Force            0.000042     0.000300     YES
 Maximum Displacement     0.000230     0.001800     YES
 RMS     Displacement     0.000095     0.001200     YES
 Predicted change in Energy=-7.671203D-08
 Optimization completed.
    -- Stationary point found.
                           ----------------------------
                           !   Optimized Parameters   !
                           ! (Angstroms and Degrees)  !
 --------------------------                            --------------------------
 ! Name  Definition              Value          Derivative Info.                !
 --------------------------------------------------------------------------------
 ! R1    R(1,2)                  1.4071         -DE/DX =   -0.0001              !
 ! R2    R(1,6)                  1.3713         -DE/DX =   -0.0001              !
 ! R3    R(1,7)                  1.0965         -DE/DX =    0.0                 !
 ! R4    R(2,3)                  1.4074         -DE/DX =    0.0                 !
 ! R5    R(2,8)                  1.099          -DE/DX =    0.0                 !
 ! R6    R(3,4)                  1.4074         -DE/DX =    0.0                 !
 ! R7    R(3,9)                  1.6991         -DE/DX =    0.0                 !
 ! R8    R(4,5)                  1.4071         -DE/DX =   -0.0001              !
 ! R9    R(4,10)                 1.099          -DE/DX =    0.0                 !
 ! R10   R(5,6)                  1.3713         -DE/DX =   -0.0001              !
 ! R11   R(5,11)                 1.0964         -DE/DX =    0.0001              !
 ! A1    A(2,1,6)              115.1631         -DE/DX =    0.0                 !
 ! A2    A(2,1,7)              121.9094         -DE/DX =    0.0                 !
 ! A3    A(6,1,7)              122.9275         -DE/DX =    0.0                 !
 ! A4    A(1,2,3)              119.2461         -DE/DX =    0.0                 !
 ! A5    A(1,2,8)              120.2041         -DE/DX =    0.0                 !
 ! A6    A(3,2,8)              120.5498         -DE/DX =    0.0                 !
 ! A7    A(2,3,4)              122.0712         -DE/DX =   -0.0001              !
 ! A8    A(2,3,9)              118.9644         -DE/DX =    0.0                 !
 ! A9    A(4,3,9)              118.9644         -DE/DX =    0.0                 !
 ! A10   A(3,4,5)              119.246          -DE/DX =    0.0                 !
 ! A11   A(3,4,10)             120.5498         -DE/DX =    0.0                 !
 ! A12   A(5,4,10)             120.2042         -DE/DX =    0.0                 !
 ! A13   A(4,5,6)              115.1633         -DE/DX =    0.0                 !
 ! A14   A(4,5,11)             121.9093         -DE/DX =    0.0                 !
 ! A15   A(6,5,11)             122.9274         -DE/DX =    0.0                 !
 ! A16   A(1,6,5)              129.1103         -DE/DX =    0.0                 !
 ! D1    D(6,1,2,3)              0.0            -DE/DX =    0.0                 !
 ! D2    D(6,1,2,8)            180.0            -DE/DX =    0.0                 !
 ! D3    D(7,1,2,3)            180.0            -DE/DX =    0.0                 !
 ! D4    D(7,1,2,8)              0.0            -DE/DX =    0.0                 !
 ! D5    D(2,1,6,5)              0.0            -DE/DX =    0.0                 !
 ! D6    D(7,1,6,5)            180.0            -DE/DX =    0.0                 !
 ! D7    D(1,2,3,4)              0.0            -DE/DX =    0.0                 !
 ! D8    D(1,2,3,9)            180.0            -DE/DX =    0.0                 !
 ! D9    D(8,2,3,4)            180.0            -DE/DX =    0.0                 !
 ! D10   D(8,2,3,9)              0.0            -DE/DX =    0.0                 !
 ! D11   D(2,3,4,5)              0.0            -DE/DX =    0.0                 !
 ! D12   D(2,3,4,10)           180.0            -DE/DX =    0.0                 !
 ! D13   D(9,3,4,5)            180.0            -DE/DX =    0.0                 !
 ! D14   D(9,3,4,10)             0.0            -DE/DX =    0.0                 !
 ! D15   D(3,4,5,6)              0.0            -DE/DX =    0.0                 !
 ! D16   D(3,4,5,11)           180.0            -DE/DX =    0.0                 !
 ! D17   D(10,4,5,6)           180.0            -DE/DX =    0.0                 !
 ! D18   D(10,4,5,11)            0.0            -DE/DX =    0.0                 !
 ! D19   D(4,5,6,1)              0.0            -DE/DX =    0.0                 !
 ! D20   D(11,5,6,1)           180.0            -DE/DX =    0.0                 !
 --------------------------------------------------------------------------------
 GradGradGradGradGradGradGradGradGradGradGradGradGradGradGradGradGradGrad

                          Input orientation:                          
 ---------------------------------------------------------------------
 Center     Atomic      Atomic             Coordinates (Angstroms)
 Number     Number       Type             X           Y           Z
 ---------------------------------------------------------------------
      1          6           0       -3.218357    0.218237   -0.000000
      2          6           0       -2.015963    0.949071   -0.000000
      3          6           0       -0.790522    0.256823   -0.000000
      4          6           0       -0.726450   -1.149167   -0.000000
      5          6           0       -1.921601   -1.891787   -0.000000
      6          6           0       -3.071948   -1.145271   -0.000000
      7          1           0       -4.197096    0.712606   -0.000000
      8          1           0       -2.036826    2.047895   -0.000000
      9         17           0        0.657049    1.146455   -0.000000
     10          1           0        0.244481   -1.664131   -0.000000
     11          1           0       -1.922636   -2.988210   -0.000000
 ---------------------------------------------------------------------
                    Distance matrix (angstroms):
                    1          2          3          4          5
     1  C    0.000000
     2  C    1.407079   0.000000
     3  C    2.428143   1.407449   0.000000
     4  C    2.842428   2.462813   1.407449   0.000000
     5  C    2.476647   2.842425   2.428141   1.407079   0.000000
     6  C    1.371346   2.345501   2.677830   2.345501   1.371345
     7  H    1.096508   2.193914   3.436930   3.938475   3.458431
     8  H    2.177996   1.099022   2.182021   3.455183   3.941367
     9  Cl   3.985017   2.680289   1.699089   2.680289   3.985016
    10  H    3.941391   3.455203   2.182039   1.099043   2.178013
    11  H    3.458352   3.938387   3.436848   2.193841   1.096423
                    6          7          8          9         10
     6  C    0.000000
     7  H    2.172019   0.000000
     8  H    3.356752   2.539638   0.000000
     9  Cl   4.376920   4.873494   2.840697   0.000000
    10  H    3.356772   5.037508   4.357006   2.840705   0.000000
    11  H    2.171945   4.343871   5.037400   4.873420   2.539603
                   11
    11  H    0.000000
 Stoichiometry    C6H4Cl(2)
 Framework group  CS[SG(C6H4Cl)]
 Deg. of freedom    19
 Full point group                 CS      NOp   2
 Largest Abelian subgroup         CS      NOp   2
 Largest concise Abelian subgroup C1      NOp   1
                         Standard orientation:                         
 ---------------------------------------------------------------------
 Center     Atomic      Atomic             Coordinates (Angstroms)
 Number     Number       Type             X           Y           Z
 ---------------------------------------------------------------------
      1          6           0       -1.238323   -1.632495    0.000000
      2          6           0       -1.231405   -0.225433    0.000000
      3          6           0        0.000001    0.456148    0.000000
      4          6           0        1.231408   -0.225432    0.000000
      5          6           0        1.238324   -1.632494    0.000000
      6          6           0        0.000001   -2.221683    0.000000
      7          1           0       -2.171971   -2.207501    0.000000
      8          1           0       -2.178492    0.332128    0.000000
      9         17           0        0.000001    2.155237    0.000000
     10          1           0        2.178514    0.332139    0.000000
     11          1           0        2.171900   -2.207455    0.000000
 ---------------------------------------------------------------------
 Rotational constants (GHZ):           5.4771872           1.6897767           1.2913729

 **********************************************************************

            Population analysis using the SCF Density.

 **********************************************************************

 Orbital symmetries:
 Alpha Orbitals:
       Occupied  (A') (A') (A') (A') (A') (A') (A') (A') (A') (A')
                 (A") (A') (A') (A") (A') (A') (A") (A")
       Virtual   (A") (A") (A') (A") (A') (A') (A') (A') (A') (A')
                 (A') (A') (A') (A')
 Beta  Orbitals:
       Occupied  (A') (A') (A') (A') (A') (A') (A') (A') (A') (A')
                 (A") (A') (A') (A") (A') (A") (A")
       Virtual   (A") (A') (A") (A') (A") (A') (A') (A') (A') (A')
                 (A') (A') (A') (A') (A')
 The electronic state is 2-A'.
 Alpha  occ. eigenvalues --   -1.45973  -1.38065  -1.18005  -1.13468  -0.87753
 Alpha  occ. eigenvalues --   -0.84529  -0.67152  -0.59912  -0.59784  -0.54550
 Alpha  occ. eigenvalues --   -0.53338  -0.53004  -0.47376  -0.46420  -0.43770
 Alpha  occ. eigenvalues --   -0.38845  -0.37987  -0.37002
 Alpha virt. eigenvalues --    0.00648   0.00755   0.05165   0.08917   0.12657
 Alpha virt. eigenvalues --    0.13234   0.13937   0.14769   0.15925   0.17039
 Alpha virt. eigenvalues --    0.17079   0.18254   0.19322   0.19876
  Beta  occ. eigenvalues --   -1.45346  -1.37859  -1.17787  -1.11925  -0.87423
  Beta  occ. eigenvalues --   -0.82243  -0.67139  -0.59365  -0.58061  -0.54292
  Beta  occ. eigenvalues --   -0.53532  -0.51505  -0.46985  -0.46328  -0.43657
  Beta  occ. eigenvalues --   -0.38011  -0.35982
  Beta virt. eigenvalues --    0.00716   0.00803   0.02213   0.04288   0.09836
  Beta virt. eigenvalues --    0.12959   0.13424   0.14262   0.15527   0.16406
  Beta virt. eigenvalues --    0.17082   0.17990   0.18239   0.20110   0.21246
          Condensed to atoms (all electrons):
               1          2          3          4          5          6
     1  C    4.114441   0.000000   0.000000   0.000000   0.000000   0.000000
     2  C    0.000000   4.117150   0.000000   0.000000   0.000000   0.000000
     3  C    0.000000   0.000000   4.079280   0.000000   0.000000   0.000000
     4  C    0.000000   0.000000   0.000000   4.117154   0.000000   0.000000
     5  C    0.000000   0.000000   0.000000   0.000000   4.114432   0.000000
     6  C    0.000000   0.000000   0.000000   0.000000   0.000000   4.073567
     7  H    0.000000   0.000000   0.000000   0.000000   0.000000   0.000000
     8  H    0.000000   0.000000   0.000000   0.000000   0.000000   0.000000
     9  Cl   0.000000   0.000000   0.000000   0.000000   0.000000   0.000000
    10  H    0.000000   0.000000   0.000000   0.000000   0.000000   0.000000
    11  H    0.000000   0.000000   0.000000   0.000000   0.000000   0.000000
               7          8          9         10         11
     1  C    0.000000   0.000000   0.000000   0.000000   0.000000
     2  C    0.000000   0.000000   0.000000   0.000000   0.000000
     3  C    0.000000   0.000000   0.000000   0.000000   0.000000
     4  C    0.000000   0.000000   0.000000   0.000000   0.000000
     5  C    0.000000   0.000000   0.000000   0.000000   0.000000
     6  C    0.000000   0.000000   0.000000   0.000000   0.000000
     7  H    0.839672   0.000000   0.000000   0.000000   0.000000
     8  H    0.000000   0.847109   0.000000   0.000000   0.000000
     9  Cl   0.000000   0.000000   7.010407   0.000000   0.000000
    10  H    0.000000   0.000000   0.000000   0.847106   0.000000
    11  H    0.000000   0.000000   0.000000   0.000000   0.839683
          Atomic-Atomic Spin Densities.
               1          2          3          4          5          6
     1  C   -0.461677   0.000000   0.000000   0.000000   0.000000   0.000000
     2  C    0.000000   0.484809   0.000000   0.000000   0.000000   0.000000
     3  C    0.000000   0.000000  -0.438700   0.000000   0.000000   0.000000
     4  C    0.000000   0.000000   0.000000   0.484810   0.000000   0.000000
     5  C    0.000000   0.000000   0.000000   0.000000  -0.461673   0.000000
     6  C    0.000000   0.000000   0.000000   0.000000   0.000000   1.368287
     7  H    0.000000   0.000000   0.000000   0.000000   0.000000   0.000000
     8  H    0.000000   0.000000   0.000000   0.000000   0.000000   0.000000
     9  Cl   0.000000   0.000000   0.000000   0.000000   0.000000   0.000000
    10  H    0.000000   0.000000   0.000000   0.000000   0.000000   0.000000
    11  H    0.000000   0.000000   0.000000   0.000000   0.000000   0.000000
               7          8          9         10         11
     1  C    0.000000   0.000000   0.000000   0.000000   0.000000
     2  C    0.000000   0.000000   0.000000   0.000000   0.000000
     3  C    0.000000   0.000000   0.000000   0.000000   0.000000
     4  C    0.000000   0.000000   0.000000   0.000000   0.000000
     5  C    0.000000   0.000000   0.000000   0.000000   0.000000
     6  C    0.000000   0.000000   0.000000   0.000000   0.000000
     7  H    0.030922   0.000000   0.000000   0.000000   0.000000
     8  H    0.000000  -0.019477   0.000000   0.000000   0.000000
     9  Cl   0.000000   0.000000   0.001259   0.000000   0.000000
    10  H    0.000000   0.000000   0.000000  -0.019478   0.000000
    11  H    0.000000   0.000000   0.000000   0.000000   0.030918
 Mulliken charges and spin densities:
               1          2
     1  C   -0.114441  -0.461677
     2  C   -0.117150   0.484809
     3  C   -0.079280  -0.438700
     4  C   -0.117154   0.484810
     5  C   -0.114432  -0.461673
     6  C   -0.073567   1.368287
     7  H    0.160328   0.030922
     8  H    0.152891  -0.019477
     9  Cl  -0.010407   0.001259
    10  H    0.152894  -0.019478
    11  H    0.160317   0.030918
 Sum of Mulliken charges =   0.00000   1.00000
 Mulliken charges and spin densities with hydrogens summed into heavy atoms:
               1          2
     1  C    0.045886  -0.430755
     2  C    0.035741   0.465332
     3  C   -0.079280  -0.438700
     4  C    0.035740   0.465332
     5  C    0.045885  -0.430755
     6  C   -0.073567   1.368287
     9  Cl  -0.010407   0.001259
 Charge=              0.0000 electrons
 Dipole moment (field-independent basis, Debye):
    X=             -0.0001    Y=             -0.2189    Z=              0.0000  Tot=              0.2189
 N-N= 1.533746007283D+02 E-N=-2.124719025383D+02  KE=-6.882318635518D+01
 Symmetry A'   KE=-5.401767320777D+01
 Symmetry A"   KE=-1.480551314741D+01
 Symmetry A'   SP= 1.000000000000D+00
 Symmetry A"   SP= 1.132427485118D-14
 1\1\GINC-SH02-01N13\FOpt\UAM1\ZDO\C6H4Cl1(2)\JLAPIER\10-Dec-2025\0\\# 
 opt am1 SCF=XQC\\Neutral Radical (removed 1) _4\\0,2\C,-3.2183574972,0
 .2182367722,0.\C,-2.0159625711,0.9490711371,0.\C,-0.7905216038,0.25682
 2863,0.\C,-0.7264502737,-1.149167269,0.\C,-1.9216010753,-1.8917873456,
 0.\C,-3.0719484895,-1.1452708812,0.\H,-4.1970958852,0.7126063799,0.\H,
 -2.0368263798,2.0478949152,0.\Cl,0.6570485771,1.1464546635,0.\H,0.2444
 810971,-1.6641309554,0.\H,-1.9226358986,-2.9882102796,0.\\Version=ES64
 L-G16RevB.01\State=2-A'\HF=0.1051934\S2=1.197542\S2-1=0.\S2A=0.919601\
 RMSD=8.047e-09\RMSF=5.672e-05\Dipole=-0.0733722,-0.0450604,0.\PG=CS [S
 G(C6H4Cl1)]\\@


 GROWING OLD ISN'T SO BAD -- WHEN YOU CONSIDER THE ALTERNATIVE.

                     -- MAURICE CHEVALIER
 Job cpu time:       0 days  0 hours  0 minutes  9.9 seconds.
 Elapsed time:       0 days  0 hours  0 minutes 19.3 seconds.
 File lengths (MBytes):  RWF=     10 Int=      0 D2E=      0 Chk=      2 Scr=      1
 Normal termination of Gaussian 16 at Wed Dec 10 10:42:05 2025.
