 Entering Gaussian System, Link 0=g16
 Initial command:
 /share/software/user/restricted/gaussian/g16.B01/l1.exe "/home/users/jlapier/Chloroaromatics/Gau-18503.inp" -scrdir="/home/users/jlapier/Chloroaromatics/"
 Entering Link 1 = /share/software/user/restricted/gaussian/g16.B01/l1.exe PID=     18506.
  
 Copyright (c) 1988-2017, Gaussian, Inc.  All Rights Reserved.
  
 This is part of the Gaussian(R) 16 program.  It is based on
 the Gaussian(R) 09 system (copyright 2009, Gaussian, Inc.),
 the Gaussian(R) 03 system (copyright 2003, Gaussian, Inc.),
 the Gaussian(R) 98 system (copyright 1998, Gaussian, Inc.),
 the Gaussian(R) 94 system (copyright 1995, Gaussian, Inc.),
 the Gaussian 92(TM) system (copyright 1992, Gaussian, Inc.),
 the Gaussian 90(TM) system (copyright 1990, Gaussian, Inc.),
 the Gaussian 88(TM) system (copyright 1988, Gaussian, Inc.),
 the Gaussian 86(TM) system (copyright 1986, Carnegie Mellon
 University), and the Gaussian 82(TM) system (copyright 1983,
 Carnegie Mellon University). Gaussian is a federally registered
 trademark of Gaussian, Inc.
  
 This software contains proprietary and confidential information,
 including trade secrets, belonging to Gaussian, Inc.
  
 This software is provided under written license and may be
 used, copied, transmitted, or stored only in accord with that
 written license.
  
 The following legend is applicable only to US Government
 contracts under FAR:
  
                    RESTRICTED RIGHTS LEGEND
  
 Use, reproduction and disclosure by the US Government is
 subject to restrictions as set forth in subparagraphs (a)
 and (c) of the Commercial Computer Software - Restricted
 Rights clause in FAR 52.227-19.
  
 Gaussian, Inc.
 340 Quinnipiac St., Bldg. 40, Wallingford CT 06492
  
  
 ---------------------------------------------------------------
 Warning -- This program may not be used in any manner that
 competes with the business of Gaussian, Inc. or will provide
 assistance to any competitor of Gaussian, Inc.  The licensee
 of this program is prohibited from giving any competitor of
 Gaussian, Inc. access to this program.  By using this program,
 the user acknowledges that Gaussian, Inc. is engaged in the
 business of creating and licensing software in the field of
 computational chemistry and represents and warrants to the
 licensee that it is not a competitor of Gaussian, Inc. and that
 it will not use this program in any manner prohibited above.
 ---------------------------------------------------------------
  

 Cite this work as:
 Gaussian 16, Revision B.01,
 M. J. Frisch, G. W. Trucks, H. B. Schlegel, G. E. Scuseria, 
 M. A. Robb, J. R. Cheeseman, G. Scalmani, V. Barone, 
 G. A. Petersson, H. Nakatsuji, X. Li, M. Caricato, A. V. Marenich, 
 J. Bloino, B. G. Janesko, R. Gomperts, B. Mennucci, H. P. Hratchian, 
 J. V. Ortiz, A. F. Izmaylov, J. L. Sonnenberg, D. Williams-Young, 
 F. Ding, F. Lipparini, F. Egidi, J. Goings, B. Peng, A. Petrone, 
 T. Henderson, D. Ranasinghe, V. G. Zakrzewski, J. Gao, N. Rega, 
 G. Zheng, W. Liang, M. Hada, M. Ehara, K. Toyota, R. Fukuda, 
 J. Hasegawa, M. Ishida, T. Nakajima, Y. Honda, O. Kitao, H. Nakai, 
 T. Vreven, K. Throssell, J. A. Montgomery, Jr., J. E. Peralta, 
 F. Ogliaro, M. J. Bearpark, J. J. Heyd, E. N. Brothers, K. N. Kudin, 
 V. N. Staroverov, T. A. Keith, R. Kobayashi, J. Normand, 
 K. Raghavachari, A. P. Rendell, J. C. Burant, S. S. Iyengar, 
 J. Tomasi, M. Cossi, J. M. Millam, M. Klene, C. Adamo, R. Cammi, 
 J. W. Ochterski, R. L. Martin, K. Morokuma, O. Farkas, 
 J. B. Foresman, and D. J. Fox, Gaussian, Inc., Wallingford CT, 2016.
 
 ******************************************
 Gaussian 16:  ES64L-G16RevB.01 20-Dec-2017
                 9-Dec-2025 
 ******************************************
 %mem=2GB
 %nprocshare=1
 Will use up to    1 processors via shared memory.
 %chk=geometry_chks/14ClBzAnionRadical.chk
 -----------------
 # opt am1 SCF=XQC
 -----------------
 1/18=20,19=15,26=1,38=1/1,3;
 2/9=110,12=2,17=6,18=5,40=1/2;
 3/5=2,25=1,41=700000,71=1/1,2,3;
 4/35=1/1;
 5/5=2,8=3,13=1,35=1,38=5/2,8;
 6/7=2,8=2,9=2,10=2,28=1/1;
 7//1,2,3,16;
 1/18=20,19=15,26=1/3(2);
 2/9=110/2;
 99//99;
 2/9=110/2;
 3/5=2,25=1,41=700000,71=1,135=20/1,2,3;
 4/5=5,16=3,35=1/1;
 5/5=2,8=3,13=1,35=1,38=5/2,8;
 7//1,2,3,16;
 1/18=20,19=15,26=1/3(-5);
 2/9=110/2;
 6/7=2,8=2,9=2,10=2,19=2,28=1/1;
 99/9=1/99;
 -----------------------------------
 2-Chloro-Benzene Anion Radical (14)
 -----------------------------------
 Symbolic Z-matrix:
 Charge = -1 Multiplicity = 2
 C                    -3.20928   0.19943   0. 
 C                    -2.0115    0.93555   0. 
 C                    -0.77511   0.2663    0. 
 C                    -0.7365   -1.13907   0. 
 C                    -1.93429  -1.87519   0. 
 C                    -3.17067  -1.20594   0. 
 Cl                   -4.67483  -2.13035   0. 
 H                    -4.76193   1.03987   0. 
 H                    -2.05998   2.7004    0. 
 Cl                    0.72905   1.19071   0. 
 H                     0.81614  -1.97951   0. 
 H                    -1.8858   -3.64003   0. 
 
 Add virtual bond connecting atoms H12        and C5         Dist= 3.34D+00.
 Add virtual bond connecting atoms H11        and C4         Dist= 3.34D+00.
 Add virtual bond connecting atoms H9         and C2         Dist= 3.34D+00.
 Add virtual bond connecting atoms H8         and C1         Dist= 3.34D+00.

 GradGradGradGradGradGradGradGradGradGradGradGradGradGradGradGradGradGrad
 Berny optimization.
 Initialization pass.
                           ----------------------------
                           !    Initial Parameters    !
                           ! (Angstroms and Degrees)  !
 --------------------------                            --------------------------
 ! Name  Definition              Value          Derivative Info.                !
 --------------------------------------------------------------------------------
 ! R1    R(1,2)                  1.4059         estimate D2E/DX2                !
 ! R2    R(1,6)                  1.4059         estimate D2E/DX2                !
 ! R3    R(1,8)                  1.7655         estimate D2E/DX2                !
 ! R4    R(2,3)                  1.4059         estimate D2E/DX2                !
 ! R5    R(2,9)                  1.7655         estimate D2E/DX2                !
 ! R6    R(3,4)                  1.4059         estimate D2E/DX2                !
 ! R7    R(3,10)                 1.7655         estimate D2E/DX2                !
 ! R8    R(4,5)                  1.4059         estimate D2E/DX2                !
 ! R9    R(4,11)                 1.7655         estimate D2E/DX2                !
 ! R10   R(5,6)                  1.4059         estimate D2E/DX2                !
 ! R11   R(5,12)                 1.7655         estimate D2E/DX2                !
 ! R12   R(6,7)                  1.7655         estimate D2E/DX2                !
 ! A1    A(2,1,6)              119.9999         estimate D2E/DX2                !
 ! A2    A(2,1,8)              119.9999         estimate D2E/DX2                !
 ! A3    A(6,1,8)              120.0001         estimate D2E/DX2                !
 ! A4    A(1,2,3)              120.0            estimate D2E/DX2                !
 ! A5    A(1,2,9)              120.0001         estimate D2E/DX2                !
 ! A6    A(3,2,9)              119.9999         estimate D2E/DX2                !
 ! A7    A(2,3,4)              120.0001         estimate D2E/DX2                !
 ! A8    A(2,3,10)             120.0            estimate D2E/DX2                !
 ! A9    A(4,3,10)             119.9999         estimate D2E/DX2                !
 ! A10   A(3,4,5)              119.9997         estimate D2E/DX2                !
 ! A11   A(3,4,11)             120.0003         estimate D2E/DX2                !
 ! A12   A(5,4,11)             120.0            estimate D2E/DX2                !
 ! A13   A(4,5,6)              120.0            estimate D2E/DX2                !
 ! A14   A(4,5,12)             119.9996         estimate D2E/DX2                !
 ! A15   A(6,5,12)             120.0004         estimate D2E/DX2                !
 ! A16   A(1,6,5)              120.0003         estimate D2E/DX2                !
 ! A17   A(1,6,7)              119.9999         estimate D2E/DX2                !
 ! A18   A(5,6,7)              119.9998         estimate D2E/DX2                !
 ! D1    D(6,1,2,3)              0.0            estimate D2E/DX2                !
 ! D2    D(6,1,2,9)            180.0            estimate D2E/DX2                !
 ! D3    D(8,1,2,3)            180.0            estimate D2E/DX2                !
 ! D4    D(8,1,2,9)              0.0            estimate D2E/DX2                !
 ! D5    D(2,1,6,5)              0.0            estimate D2E/DX2                !
 ! D6    D(2,1,6,7)            180.0            estimate D2E/DX2                !
 ! D7    D(8,1,6,5)            180.0            estimate D2E/DX2                !
 ! D8    D(8,1,6,7)              0.0            estimate D2E/DX2                !
 ! D9    D(1,2,3,4)              0.0            estimate D2E/DX2                !
 ! D10   D(1,2,3,10)           180.0            estimate D2E/DX2                !
 ! D11   D(9,2,3,4)            180.0            estimate D2E/DX2                !
 ! D12   D(9,2,3,10)             0.0            estimate D2E/DX2                !
 ! D13   D(2,3,4,5)              0.0            estimate D2E/DX2                !
 ! D14   D(2,3,4,11)           180.0            estimate D2E/DX2                !
 ! D15   D(10,3,4,5)           180.0            estimate D2E/DX2                !
 ! D16   D(10,3,4,11)            0.0            estimate D2E/DX2                !
 ! D17   D(3,4,5,6)              0.0            estimate D2E/DX2                !
 ! D18   D(3,4,5,12)           180.0            estimate D2E/DX2                !
 ! D19   D(11,4,5,6)           180.0            estimate D2E/DX2                !
 ! D20   D(11,4,5,12)            0.0            estimate D2E/DX2                !
 ! D21   D(4,5,6,1)              0.0            estimate D2E/DX2                !
 ! D22   D(4,5,6,7)            180.0            estimate D2E/DX2                !
 ! D23   D(12,5,6,1)           180.0            estimate D2E/DX2                !
 ! D24   D(12,5,6,7)             0.0            estimate D2E/DX2                !
 --------------------------------------------------------------------------------
 Trust Radius=3.00D-01 FncErr=1.00D-07 GrdErr=1.00D-07 EigMax=2.50D+02 EigMin=1.00D-04
 Number of steps in this run=     64 maximum allowed number of steps=    100.
 GradGradGradGradGradGradGradGradGradGradGradGradGradGradGradGradGradGrad

                          Input orientation:                          
 ---------------------------------------------------------------------
 Center     Atomic      Atomic             Coordinates (Angstroms)
 Number     Number       Type             X           Y           Z
 ---------------------------------------------------------------------
      1          6           0       -3.209280    0.199430    0.000000
      2          6           0       -2.011500    0.935550    0.000000
      3          6           0       -0.775110    0.266300    0.000000
      4          6           0       -0.736500   -1.139070    0.000000
      5          6           0       -1.934290   -1.875190    0.000000
      6          6           0       -3.170670   -1.205940    0.000000
      7         17           0       -4.674830   -2.130350    0.000000
      8          1           0       -4.761930    1.039870    0.000000
      9          1           0       -2.059980    2.700400    0.000000
     10         17           0        0.729050    1.190710    0.000000
     11          1           0        0.816140   -1.979510    0.000000
     12          1           0       -1.885800   -3.640030    0.000000
 ---------------------------------------------------------------------
                    Distance matrix (angstroms):
                    1          2          3          4          5
     1  C    0.000000
     2  C    1.405898   0.000000
     3  C    2.435088   1.405900   0.000000
     4  C    2.811801   2.435092   1.405900   0.000000
     5  C    2.435087   2.811800   2.435093   1.405907   0.000000
     6  C    1.405900   2.435088   2.811796   2.435088   1.405892
     7  Cl   2.752401   4.061166   4.577308   4.061167   2.752393
     8  H    1.765520   2.752408   4.061175   4.577321   4.061173
     9  H    2.752406   1.765516   2.752405   4.061173   4.577316
    10  Cl   4.061167   2.752403   1.765512   2.752401   4.061173
    11  H    4.577312   4.061173   2.752406   1.765511   2.752408
    12  H    4.061164   4.577306   4.061163   2.752397   1.765506
                    6          7          8          9         10
     6  C    0.000000
     7  Cl   1.765512   0.000000
     8  H    2.752412   3.171416   0.000000
     9  H    4.061173   5.493049   3.171418   0.000000
    10  Cl   4.577308   6.342819   5.493051   3.171412   0.000000
    11  H    4.061165   5.493041   6.342832   5.493052   3.171416
    12  H    2.752396   3.171407   5.493049   6.342822   5.493040
                   11         12
    11  H    0.000000
    12  H    3.171404   0.000000
 Stoichiometry    C6H4Cl2(1-,2)
 Framework group  CS[SG(C6H4Cl2)]
 Deg. of freedom    21
 Full point group                 CS      NOp   2
 Largest Abelian subgroup         CS      NOp   2
 Largest concise Abelian subgroup C1      NOp   1
                         Standard orientation:                         
 ---------------------------------------------------------------------
 Center     Atomic      Atomic             Coordinates (Angstroms)
 Number     Number       Type             X           Y           Z
 ---------------------------------------------------------------------
      1          6           0        1.217545    0.702950    0.000000
      2          6           0        1.217546   -0.702949    0.000000
      3          6           0        0.000001   -1.405899    0.000000
      4          6           0       -1.217546   -0.702951    0.000000
      5          6           0       -1.217542    0.702956    0.000000
      6          6           0       -0.000002    1.405897    0.000000
      7         17           0       -0.000002    3.171409    0.000000
      8          1           0        2.746530    1.585710    0.000000
      9          1           0        2.746526   -1.585709    0.000000
     10         17           0        0.000001   -3.171410    0.000000
     11          1           0       -2.746526   -1.585702    0.000000
     12          1           0       -2.746519    1.585702    0.000000
 ---------------------------------------------------------------------
 Rotational constants (GHZ):           4.9758856           0.6440290           0.5702248
 Standard basis: VSTO-6G (5D, 7F)
 There are    28 symmetry adapted cartesian basis functions of A'  symmetry.
 There are     8 symmetry adapted cartesian basis functions of A"  symmetry.
 There are    28 symmetry adapted basis functions of A'  symmetry.
 There are     8 symmetry adapted basis functions of A"  symmetry.
    36 basis functions,   216 primitive gaussians,    36 cartesian basis functions
    22 alpha electrons       21 beta electrons
       nuclear repulsion energy       196.6666894656 Hartrees.
 Integral buffers will be    131072 words long.
 Regular integral format.
 Two-electron integral symmetry is turned off.
 Do NDO integrals.
 One-electron integrals computed using PRISM.
 NBasis=    36 RedAO= T EigKep=  1.00D+00  NBF=    28     8
 NBsUse=    36 1.00D-06 EigRej= -1.00D+00 NBFU=    28     8
 Simple Huckel Guess.
 Initial guess orbital symmetries:
 Alpha Orbitals:
       Occupied  (A') (A') (A') (A') (A') (A') (A') (A') (A") (A')
                 (A') (A') (A') (A") (A') (A') (A") (A") (A') (A')
                 (A") (A')
       Virtual   (A') (A") (A") (A') (A') (A") (A') (A') (A') (A')
                 (A') (A') (A') (A')
 Beta  Orbitals:
       Occupied  (A') (A') (A') (A') (A') (A') (A') (A') (A") (A')
                 (A') (A') (A') (A") (A') (A') (A") (A") (A') (A')
                 (A")
       Virtual   (A') (A') (A") (A") (A') (A') (A") (A') (A') (A')
                 (A') (A') (A') (A') (A')
 The electronic state of the initial guess is 2-A'.
 Initial guess <Sx>= 0.0000 <Sy>= 0.0000 <Sz>= 0.5000 <S**2>= 0.7500 S= 0.5000
 Keep J ints in memory in canonical form, NReq=862905.
 Overlap will be assumed to be unity.
 Requested convergence on RMS density matrix=1.00D-08 within  32 cycles.
 Requested convergence on MAX density matrix=1.00D-06.
 Requested convergence on             energy=1.00D-06.
 No special actions if energy rises.
 Fock symm off for IB=2 I1=    1 I=   29 J=   17 Cut=1.00D-07 Err=4.37D-03
 Fock matrix is not symmetric: symmetry in diagonalization turned off.
 Rare condition: small coef for last iteration:  0.000D+00
 SCF Done:  E(UAM1) =  0.479819225431     A.U. after   29 cycles
            NFock= 28  Conv=0.24D-08     -V/T= 1.0052
 <Sx>= 0.0000 <Sy>= 0.0000 <Sz>= 0.5000 <S**2>= 1.4613 S= 0.8082
 <L.S>=  0.00000000000    
 Annihilation of the first spin contaminant:
 S**2 before annihilation     1.4613,   after     1.2802
 QCSCF skips out because SCF is already converged.

 **********************************************************************

            Population analysis using the SCF Density.

 **********************************************************************

 Orbital symmetries:
 Alpha Orbitals:
       Occupied  (A') (A') (A') (A') (A') (A') (A') (A') (A') (A')
                 (A") (A") (A') (A') (A') (A") (A') (A') (A') (A")
                 (A") (A')
       Virtual   (A') (A') (A") (A') (A") (A') (A') (A") (A') (A')
                 (A') (A') (A') (A')
 Beta  Orbitals:
       Occupied  (A') (A') (A') (A') (A') (A') (A') (A') (A') (A')
                 (A") (A") (A') (A') (A") (A') (A') (A') (A") (A')
                 (A")
       Virtual   (A") (A") (A') (A') (A') (A') (A') (A') (A") (A')
                 (A') (A') (A') (A') (A')
 The electronic state is 2-A'.
 Alpha  occ. eigenvalues --   -1.24655  -1.21302  -1.18663  -0.94532  -0.90792
 Alpha  occ. eigenvalues --   -0.65976  -0.61913  -0.42952  -0.42370  -0.42224
 Alpha  occ. eigenvalues --   -0.36517  -0.33089  -0.29534  -0.28874  -0.27655
 Alpha  occ. eigenvalues --   -0.27538  -0.26930  -0.26590  -0.22798  -0.18527
 Alpha  occ. eigenvalues --   -0.18166  -0.03717
 Alpha virt. eigenvalues --    0.11894   0.13278   0.16624   0.17995   0.19167
 Alpha virt. eigenvalues --    0.19808   0.21269   0.26787   0.32397   0.32855
 Alpha virt. eigenvalues --    0.34925   0.35551   0.36811   0.37933
  Beta  occ. eigenvalues --   -1.25220  -1.20871  -1.18609  -0.95077  -0.92948
  Beta  occ. eigenvalues --   -0.66590  -0.63756  -0.43283  -0.43019  -0.42848
  Beta  occ. eigenvalues --   -0.36787  -0.32957  -0.29567  -0.28585  -0.27748
  Beta  occ. eigenvalues --   -0.27612  -0.25449  -0.25399  -0.19575  -0.18721
  Beta  occ. eigenvalues --   -0.18493
  Beta virt. eigenvalues --    0.16442   0.17611   0.19499   0.19654   0.20788
  Beta virt. eigenvalues --    0.20995   0.22281   0.22425   0.25772   0.31638
  Beta virt. eigenvalues --    0.32266   0.33714   0.34505   0.35412   0.36424
          Condensed to atoms (all electrons):
               1          2          3          4          5          6
     1  C    4.154220   0.000000   0.000000   0.000000   0.000000   0.000000
     2  C    0.000000   4.154217   0.000000   0.000000   0.000000   0.000000
     3  C    0.000000   0.000000   4.039051   0.000000   0.000000   0.000000
     4  C    0.000000   0.000000   0.000000   4.154219   0.000000   0.000000
     5  C    0.000000   0.000000   0.000000   0.000000   4.154221   0.000000
     6  C    0.000000   0.000000   0.000000   0.000000   0.000000   4.039047
     7  Cl   0.000000   0.000000   0.000000   0.000000   0.000000   0.000000
     8  H    0.000000   0.000000   0.000000   0.000000   0.000000   0.000000
     9  H    0.000000   0.000000   0.000000   0.000000   0.000000   0.000000
    10  Cl   0.000000   0.000000   0.000000   0.000000   0.000000   0.000000
    11  H    0.000000   0.000000   0.000000   0.000000   0.000000   0.000000
    12  H    0.000000   0.000000   0.000000   0.000000   0.000000   0.000000
               7          8          9         10         11         12
     1  C    0.000000   0.000000   0.000000   0.000000   0.000000   0.000000
     2  C    0.000000   0.000000   0.000000   0.000000   0.000000   0.000000
     3  C    0.000000   0.000000   0.000000   0.000000   0.000000   0.000000
     4  C    0.000000   0.000000   0.000000   0.000000   0.000000   0.000000
     5  C    0.000000   0.000000   0.000000   0.000000   0.000000   0.000000
     6  C    0.000000   0.000000   0.000000   0.000000   0.000000   0.000000
     7  Cl   7.157596   0.000000   0.000000   0.000000   0.000000   0.000000
     8  H    0.000000   0.997457   0.000000   0.000000   0.000000   0.000000
     9  H    0.000000   0.000000   0.997455   0.000000   0.000000   0.000000
    10  Cl   0.000000   0.000000   0.000000   7.157594   0.000000   0.000000
    11  H    0.000000   0.000000   0.000000   0.000000   0.997462   0.000000
    12  H    0.000000   0.000000   0.000000   0.000000   0.000000   0.997461
          Atomic-Atomic Spin Densities.
               1          2          3          4          5          6
     1  C   -0.328351   0.000000   0.000000   0.000000   0.000000   0.000000
     2  C    0.000000  -0.328350   0.000000   0.000000   0.000000   0.000000
     3  C    0.000000   0.000000   0.000595   0.000000   0.000000   0.000000
     4  C    0.000000   0.000000   0.000000  -0.328324   0.000000   0.000000
     5  C    0.000000   0.000000   0.000000   0.000000  -0.328321   0.000000
     6  C    0.000000   0.000000   0.000000   0.000000   0.000000   0.000596
     7  Cl   0.000000   0.000000   0.000000   0.000000   0.000000   0.000000
     8  H    0.000000   0.000000   0.000000   0.000000   0.000000   0.000000
     9  H    0.000000   0.000000   0.000000   0.000000   0.000000   0.000000
    10  Cl   0.000000   0.000000   0.000000   0.000000   0.000000   0.000000
    11  H    0.000000   0.000000   0.000000   0.000000   0.000000   0.000000
    12  H    0.000000   0.000000   0.000000   0.000000   0.000000   0.000000
               7          8          9         10         11         12
     1  C    0.000000   0.000000   0.000000   0.000000   0.000000   0.000000
     2  C    0.000000   0.000000   0.000000   0.000000   0.000000   0.000000
     3  C    0.000000   0.000000   0.000000   0.000000   0.000000   0.000000
     4  C    0.000000   0.000000   0.000000   0.000000   0.000000   0.000000
     5  C    0.000000   0.000000   0.000000   0.000000   0.000000   0.000000
     6  C    0.000000   0.000000   0.000000   0.000000   0.000000   0.000000
     7  Cl   0.059508   0.000000   0.000000   0.000000   0.000000   0.000000
     8  H    0.000000   0.548293   0.000000   0.000000   0.000000   0.000000
     9  H    0.000000   0.000000   0.548282   0.000000   0.000000   0.000000
    10  Cl   0.000000   0.000000   0.000000   0.059505   0.000000   0.000000
    11  H    0.000000   0.000000   0.000000   0.000000   0.548288   0.000000
    12  H    0.000000   0.000000   0.000000   0.000000   0.000000   0.548279
 Mulliken charges and spin densities:
               1          2
     1  C   -0.154220  -0.328351
     2  C   -0.154217  -0.328350
     3  C   -0.039051   0.000595
     4  C   -0.154219  -0.328324
     5  C   -0.154221  -0.328321
     6  C   -0.039047   0.000596
     7  Cl  -0.157596   0.059508
     8  H    0.002543   0.548293
     9  H    0.002545   0.548282
    10  Cl  -0.157594   0.059505
    11  H    0.002538   0.548288
    12  H    0.002539   0.548279
 Sum of Mulliken charges =  -1.00000   1.00000
 Mulliken charges and spin densities with hydrogens summed into heavy atoms:
               1          2
     1  C   -0.151677   0.219942
     2  C   -0.151672   0.219933
     3  C   -0.039051   0.000595
     4  C   -0.151681   0.219963
     5  C   -0.151682   0.219958
     6  C   -0.039047   0.000596
     7  Cl  -0.157596   0.059508
    10  Cl  -0.157594   0.059505
 Charge=             -1.0000 electrons
 Dipole moment (field-independent basis, Debye):
    X=              0.0002    Y=             -0.0001    Z=              0.0000  Tot=              0.0002
 N-N= 1.966666894656D+02 E-N=-2.785468565917D+02  KE=-9.174257333416D+01
 Symmetry A'   KE=-7.129066991354D+01
 Symmetry A"   KE=-2.045190342062D+01
 Symmetry A'   SP= 1.000000000000D+00
 Symmetry A"   SP=-7.993605777301D-15
 Calling FoFJK, ICntrl=      2127 FMM=F ISym2X=1 I1Cent= 0 IOpClX= 1 NMat=1 NMatS=1 NMatT=0.
 ***** Axes restored to original set *****
 -------------------------------------------------------------------
 Center     Atomic                   Forces (Hartrees/Bohr)
 Number     Number              X              Y              Z
 -------------------------------------------------------------------
      1        6          -0.009592712    0.026957770    0.000000000
      2        6          -0.019716830    0.020736130    0.000000000
      3        6          -0.004511013   -0.002775802   -0.000000000
      4        6           0.009587226   -0.026956708    0.000000000
      5        6           0.019727360   -0.020734634   -0.000000000
      6        6           0.004507501    0.002773947    0.000000000
      7       17           0.016164384    0.009934663    0.000000000
      8        1           0.069349394   -0.037142862   -0.000000000
      9        1           0.001812429   -0.078650397   -0.000000000
     10       17          -0.016165715   -0.009934716    0.000000000
     11        1          -0.069349104    0.037142862   -0.000000000
     12        1          -0.001812920    0.078649746   -0.000000000
 -------------------------------------------------------------------
 Cartesian Forces:  Max     0.078650397 RMS     0.028287853

 GradGradGradGradGradGradGradGradGradGradGradGradGradGradGradGradGradGrad
 Berny optimization.
 FormGI is forming the generalized inverse of G from B-inverse, IUseBI=4.
 Internal  Forces:  Max     0.078670508 RMS     0.026994099
 Search for a local minimum.
 Step number   1 out of a maximum of   64
 All quantities printed in internal units (Hartrees-Bohrs-Radians)
 Mixed Optimization -- RFO/linear search
 Second derivative matrix not updated -- first step.
 ITU=  0
     Eigenvalues ---    0.02011   0.02011   0.02011   0.02011   0.02011
     Eigenvalues ---    0.02011   0.02011   0.02011   0.02011   0.06524
     Eigenvalues ---    0.06524   0.06524   0.06524   0.16000   0.16000
     Eigenvalues ---    0.16000   0.16000   0.22000   0.22981   0.24000
     Eigenvalues ---    0.25000   0.25000   0.29033   0.29033   0.40686
     Eigenvalues ---    0.41056   0.44656   0.44657   0.44657   0.44657
 RFO step:  Lambda=-1.44001810D-01 EMin= 2.01065826D-02
 Linear search not attempted -- first point.
 Maximum step size (   0.300) exceeded in Quadratic search.
    -- Step size scaled by   0.384
 Iteration  1 RMS(Cart)=  0.05067627 RMS(Int)=  0.00006262
 Iteration  2 RMS(Cart)=  0.00014241 RMS(Int)=  0.00000001
 Iteration  3 RMS(Cart)=  0.00000001 RMS(Int)=  0.00000000
 ClnCor:  largest displacement from symmetrization is 1.52D-12 for atom     6.
 Variable       Old X    -DE/DX   Delta X   Delta X   Delta X     New X
                                 (Linear)    (Quad)   (Total)
    R1        2.65676  -0.05771   0.00000  -0.03749  -0.03749   2.61927
    R2        2.65677  -0.04068   0.00000  -0.02643  -0.02643   2.63034
    R3        3.33635  -0.07867   0.00000  -0.14426  -0.14426   3.19209
    R4        2.65677  -0.04068   0.00000  -0.02643  -0.02643   2.63034
    R5        3.33634  -0.07867   0.00000  -0.14426  -0.14426   3.19208
    R6        2.65677  -0.04068   0.00000  -0.02643  -0.02643   2.63034
    R7        3.33633  -0.01897   0.00000  -0.01676  -0.01676   3.31957
    R8        2.65678  -0.05772   0.00000  -0.03750  -0.03750   2.61928
    R9        3.33633  -0.07867   0.00000  -0.14425  -0.14425   3.19208
   R10        2.65675  -0.04067   0.00000  -0.02642  -0.02642   2.63033
   R11        3.33632  -0.07867   0.00000  -0.14426  -0.14426   3.19207
   R12        3.33633  -0.01897   0.00000  -0.01676  -0.01676   3.31957
    A1        2.09439   0.00572   0.00000   0.00572   0.00572   2.10011
    A2        2.09439  -0.00344   0.00000  -0.00359  -0.00359   2.09080
    A3        2.09440  -0.00228   0.00000  -0.00213  -0.00213   2.09227
    A4        2.09439   0.00572   0.00000   0.00572   0.00572   2.10011
    A5        2.09440  -0.00344   0.00000  -0.00359  -0.00359   2.09081
    A6        2.09439  -0.00228   0.00000  -0.00213  -0.00213   2.09227
    A7        2.09440  -0.01144   0.00000  -0.01143  -0.01143   2.08296
    A8        2.09440   0.00572   0.00000   0.00572   0.00572   2.10011
    A9        2.09439   0.00572   0.00000   0.00572   0.00572   2.10011
   A10        2.09439   0.00572   0.00000   0.00572   0.00572   2.10011
   A11        2.09440  -0.00228   0.00000  -0.00213  -0.00213   2.09227
   A12        2.09440  -0.00344   0.00000  -0.00359  -0.00359   2.09080
   A13        2.09439   0.00572   0.00000   0.00572   0.00572   2.10011
   A14        2.09439  -0.00344   0.00000  -0.00359  -0.00359   2.09080
   A15        2.09440  -0.00228   0.00000  -0.00213  -0.00213   2.09228
   A16        2.09440  -0.01145   0.00000  -0.01144  -0.01144   2.08296
   A17        2.09439   0.00572   0.00000   0.00572   0.00572   2.10011
   A18        2.09439   0.00572   0.00000   0.00572   0.00572   2.10011
    D1        0.00000   0.00000   0.00000  -0.00000   0.00000   0.00000
    D2        3.14159  -0.00000   0.00000  -0.00000   0.00000   3.14159
    D3        3.14159   0.00000   0.00000   0.00000   0.00000   3.14159
    D4        0.00000   0.00000   0.00000   0.00000   0.00000   0.00000
    D5        0.00000  -0.00000   0.00000  -0.00000   0.00000   0.00000
    D6        3.14159   0.00000   0.00000   0.00000   0.00000   3.14159
    D7        3.14159  -0.00000   0.00000  -0.00000   0.00000   3.14159
    D8        0.00000  -0.00000   0.00000  -0.00000   0.00000   0.00000
    D9        0.00000   0.00000   0.00000   0.00000   0.00000   0.00000
   D10        3.14159  -0.00000   0.00000  -0.00000   0.00000   3.14159
   D11        3.14159   0.00000   0.00000   0.00000   0.00000   3.14159
   D12        0.00000   0.00000   0.00000   0.00000   0.00000   0.00000
   D13        0.00000  -0.00000   0.00000   0.00000   0.00000   0.00000
   D14        3.14159  -0.00000   0.00000  -0.00000   0.00000   3.14159
   D15        3.14159   0.00000   0.00000   0.00000   0.00000   3.14159
   D16        0.00000  -0.00000   0.00000  -0.00000   0.00000   0.00000
   D17        0.00000  -0.00000   0.00000  -0.00000   0.00000   0.00000
   D18        3.14159  -0.00000   0.00000  -0.00000   0.00000   3.14159
   D19        3.14159   0.00000   0.00000   0.00000   0.00000   3.14159
   D20        0.00000  -0.00000   0.00000  -0.00000   0.00000   0.00000
   D21        0.00000   0.00000   0.00000   0.00000   0.00000   0.00000
   D22        3.14159  -0.00000   0.00000  -0.00000   0.00000   3.14159
   D23        3.14159   0.00000   0.00000   0.00000   0.00000   3.14159
   D24        0.00000   0.00000   0.00000   0.00000   0.00000   0.00000
         Item               Value     Threshold  Converged?
 Maximum Force            0.078671     0.000450     NO 
 RMS     Force            0.026994     0.000300     NO 
 Maximum Displacement     0.180294     0.001800     NO 
 RMS     Displacement     0.050668     0.001200     NO 
 Predicted change in Energy=-5.113181D-02
 GradGradGradGradGradGradGradGradGradGradGradGradGradGradGradGradGradGrad

                          Input orientation:                          
 ---------------------------------------------------------------------
 Center     Atomic      Atomic             Coordinates (Angstroms)
 Number     Number       Type             X           Y           Z
 ---------------------------------------------------------------------
      1          6           0       -3.192393    0.190899    0.000000
      2          6           0       -2.011517    0.916629    0.000000
      3          6           0       -0.783658    0.261046    0.000000
      4          6           0       -0.753388   -1.130539    0.000000
      5          6           0       -1.934272   -1.856269    0.000000
      6          6           0       -3.162123   -1.200687    0.000000
      7         17           0       -4.658727   -2.120452    0.000000
      8          1           0       -4.675013    1.000331    0.000000
      9          1           0       -2.063964    2.604993    0.000000
     10         17           0        0.712945    1.180812    0.000000
     11          1           0        0.729222   -1.939969    0.000000
     12          1           0       -1.881813   -3.544623    0.000000
 ---------------------------------------------------------------------
                    Distance matrix (angstroms):
                    1          2          3          4          5
     1  C    0.000000
     2  C    1.386057   0.000000
     3  C    2.409756   1.391915   0.000000
     4  C    2.773976   2.402870   1.391914   0.000000
     5  C    2.402867   2.773974   2.409758   1.386063   0.000000
     6  C    1.391915   2.409756   2.791730   2.409756   1.391908
     7  Cl   2.737240   4.028844   4.548373   4.028846   2.737234
     8  H    1.689183   2.664811   3.960957   4.463154   3.958765
     9  H    2.664808   1.689178   2.670818   3.958763   4.463147
    10  Cl   4.028845   2.737240   1.756642   2.737238   4.028848
    11  H    4.463145   3.958763   2.670819   1.689175   2.664809
    12  H    3.958756   4.463138   3.960942   2.664798   1.689169
                    6          7          8          9         10
     6  C    0.000000
     7  Cl   1.756642   0.000000
     8  H    2.670826   3.120825   0.000000
     9  H    3.960953   5.390976   3.064721   0.000000
    10  Cl   4.548372   6.305014   5.390980   3.120819   0.000000
    11  H    3.960948   5.390971   6.152326   5.334657   3.120824
    12  H    2.670811   3.120819   5.334657   6.152313   5.390966
                   11         12
    11  H    0.000000
    12  H    3.064706   0.000000
 Stoichiometry    C6H4Cl2(1-,2)
 Framework group  CS[SG(C6H4Cl2)]
 Deg. of freedom    21
 Full point group                 CS      NOp   2
 Largest Abelian subgroup         CS      NOp   2
 Largest concise Abelian subgroup C1      NOp   1
                         Standard orientation:                         
 ---------------------------------------------------------------------
 Center     Atomic      Atomic             Coordinates (Angstroms)
 Number     Number       Type             X           Y           Z
 ---------------------------------------------------------------------
      1          6           0        1.201435    0.693028    0.000000
      2          6           0        1.201435   -0.693028    0.000000
      3          6           0       -0.000000   -1.395866    0.000000
      4          6           0       -1.201435   -0.693030    0.000000
      5          6           0       -1.201432    0.693033    0.000000
      6          6           0       -0.000001    1.395865    0.000000
      7         17           0       -0.000000    3.152507    0.000000
      8          1           0        2.667334    1.532360    0.000000
      9          1           0        2.667327   -1.532361    0.000000
     10         17           0       -0.000001   -3.152507    0.000000
     11          1           0       -2.667330   -1.532354    0.000000
     12          1           0       -2.667323    1.532351    0.000000
 ---------------------------------------------------------------------
 Rotational constants (GHZ):           5.1586883           0.6526540           0.5793564
 Standard basis: VSTO-6G (5D, 7F)
 There are    28 symmetry adapted cartesian basis functions of A'  symmetry.
 There are     8 symmetry adapted cartesian basis functions of A"  symmetry.
 There are    28 symmetry adapted basis functions of A'  symmetry.
 There are     8 symmetry adapted basis functions of A"  symmetry.
    36 basis functions,   216 primitive gaussians,    36 cartesian basis functions
    22 alpha electrons       21 beta electrons
       nuclear repulsion energy       198.0750203003 Hartrees.
 Integral buffers will be    131072 words long.
 Regular integral format.
 Two-electron integral symmetry is turned off.
 Do NDO integrals.
 One-electron integrals computed using PRISM.
 NBasis=    36 RedAO= T EigKep=  1.00D+00  NBF=    28     8
 NBsUse=    36 1.00D-06 EigRej= -1.00D+00 NBFU=    28     8
 Initial guess from the checkpoint file:  "geometry_chks/14ClBzAnionRadical.chk"
 B after Tr=     0.000000    0.000000    0.000000
         Rot=    1.000000    0.000000    0.000000    0.000000 Ang=   0.00 deg.
 Initial guess orbital symmetries:
 Alpha Orbitals:
       Occupied  (A') (A') (A') (A') (A') (A') (A') (A') (A') (A')
                 (A") (A") (A') (A') (A') (A") (A') (A') (A') (A")
                 (A") (A')
       Virtual   (A') (A') (A") (A') (A") (A') (A') (A") (A') (A')
                 (A') (A') (A') (A')
 Beta  Orbitals:
       Occupied  (A') (A') (A') (A') (A') (A') (A') (A') (A') (A')
                 (A") (A") (A') (A') (A") (A') (A') (A') (A") (A')
                 (A")
       Virtual   (A") (A") (A') (A') (A') (A') (A') (A') (A") (A')
                 (A') (A') (A') (A') (A')
 Initial guess <Sx>= 0.0000 <Sy>= 0.0000 <Sz>= 0.5000 <S**2>= 1.4613 S= 0.8082
 Keep J ints in memory in canonical form, NReq=862905.
 Overlap will be assumed to be unity.
 Requested convergence on RMS density matrix=1.00D-08 within  32 cycles.
 Requested convergence on MAX density matrix=1.00D-06.
 Requested convergence on             energy=1.00D-06.
 No special actions if energy rises.
 Fock symm off for IB=2 I1=    1 I=   29 J=   22 Cut=1.00D-07 Err=4.19D-03
 Fock matrix is not symmetric: symmetry in diagonalization turned off.
 SCF Done:  E(UAM1) =  0.423150465224     A.U. after   21 cycles
            NFock= 20  Conv=0.54D-08     -V/T= 1.0046
 <Sx>= 0.0000 <Sy>= 0.0000 <Sz>= 0.5000 <S**2>= 1.0835 S= 0.6548
 <L.S>=  0.00000000000    
 Annihilation of the first spin contaminant:
 S**2 before annihilation     1.0835,   after     0.8513
 QCSCF skips out because SCF is already converged.
 Calling FoFJK, ICntrl=      2127 FMM=F ISym2X=1 I1Cent= 0 IOpClX= 1 NMat=1 NMatS=1 NMatT=0.
 ***** Axes restored to original set *****
 -------------------------------------------------------------------
 Center     Atomic                   Forces (Hartrees/Bohr)
 Number     Number              X              Y              Z
 -------------------------------------------------------------------
      1        6          -0.046218944    0.041909786    0.000000000
      2        6          -0.016512809    0.060167501    0.000000000
      3        6           0.005301598    0.003256293    0.000000000
      4        6           0.046213701   -0.041909707   -0.000000000
      5        6           0.016521504   -0.060165325   -0.000000000
      6        6          -0.005304505   -0.003256661   -0.000000000
      7       17           0.010434866    0.006413321    0.000000000
      8        1           0.079955409   -0.043316923   -0.000000000
      9        1           0.002529898   -0.090901813   -0.000000000
     10       17          -0.010435752   -0.006413274   -0.000000000
     11        1          -0.079954346    0.043316505   -0.000000000
     12        1          -0.002530621    0.090900296   -0.000000000
 -------------------------------------------------------------------
 Cartesian Forces:  Max     0.090901813 RMS     0.036902624

 GradGradGradGradGradGradGradGradGradGradGradGradGradGradGradGradGradGrad
 Berny optimization.
 Using GEDIIS/GDIIS optimizer.
 FormGI is forming the generalized inverse of G from B-inverse, IUseBI=4.
 Internal  Forces:  Max     0.090936537 RMS     0.026133937
 Search for a local minimum.
 Step number   2 out of a maximum of   64
 All quantities printed in internal units (Hartrees-Bohrs-Radians)
 Mixed Optimization -- RFO/linear search
 Update second derivatives using D2CorX and points    1    2
 DE= -5.67D-02 DEPred=-5.11D-02 R= 1.11D+00
 TightC=F SS=  1.41D+00  RLast= 3.00D-01 DXNew= 5.0454D-01 9.0000D-01
 Trust test= 1.11D+00 RLast= 3.00D-01 DXMaxT set to 5.05D-01
 ITU=  1  0
 Use linear search instead of GDIIS.
     Eigenvalues ---   -1.56411   0.00499   0.02011   0.02011   0.02011
     Eigenvalues ---    0.02011   0.02011   0.02011   0.02011   0.02011
     Eigenvalues ---    0.02011   0.06524   0.06524   0.06524   0.16000
     Eigenvalues ---    0.16000   0.16000   0.16001   0.22000   0.22971
     Eigenvalues ---    0.24323   0.25000   0.25000   0.29033   0.29542
     Eigenvalues ---    0.40575   0.41021   0.44567   0.44656   0.44657
 RFO step:  Lambda=-1.56432043D+00 EMin=-1.56410862D+00
 I=     1 Eig=   -1.56D+00 Dot1=  1.08D-02
 I=     1 Stepn=  6.00D-01 RXN=   6.00D-01 EDone=F
 Mixed    1 eigenvectors in step.  Raw Step.Grad=  1.08D-02.
 RFO eigenvector is Hessian eigenvector with negative curvature.
 Taking step of  6.00D-01 in eigenvector direction(s).  Step.Grad=  3.52D-02.
 Skip linear search -- no minimum in search direction.
 Maximum step size (   0.505) exceeded in Quadratic search.
    -- Step size not scaled.
 Iteration  1 RMS(Cart)=  0.08521430 RMS(Int)=  0.00855671
 Iteration  2 RMS(Cart)=  0.01046582 RMS(Int)=  0.00000159
 Iteration  3 RMS(Cart)=  0.00000203 RMS(Int)=  0.00000006
 Iteration  4 RMS(Cart)=  0.00000000 RMS(Int)=  0.00000006
 ClnCor:  largest displacement from symmetrization is 1.64D-09 for atom    12.
 Variable       Old X    -DE/DX   Delta X   Delta X   Delta X     New X
                                 (Linear)    (Quad)   (Total)
    R1        2.61927  -0.03102   0.00000   0.24344   0.24344   2.86271
    R2        2.63034  -0.01780   0.00000   0.20640   0.20640   2.83674
    R3        3.19209  -0.09093   0.00000  -0.11963  -0.11963   3.07247
    R4        2.63034  -0.01780   0.00000   0.20640   0.20640   2.83674
    R5        3.19208  -0.09094   0.00000  -0.11963  -0.11963   3.07245
    R6        2.63034  -0.01780   0.00000   0.20641   0.20641   2.83675
    R7        3.31957  -0.01225   0.00000   0.06712   0.06712   3.38669
    R8        2.61928  -0.03102   0.00000   0.24345   0.24345   2.86273
    R9        3.19208  -0.09093   0.00000  -0.11962  -0.11962   3.07246
   R10        2.63033  -0.01780   0.00000   0.20639   0.20639   2.83671
   R11        3.19207  -0.09094   0.00000  -0.11962  -0.11962   3.07245
   R12        3.31957  -0.01225   0.00000   0.06711   0.06711   3.38668
    A1        2.10011   0.00415   0.00000  -0.01634  -0.01634   2.08377
    A2        2.09080  -0.00254   0.00000   0.00941   0.00941   2.10021
    A3        2.09227  -0.00161   0.00000   0.00693   0.00693   2.09921
    A4        2.10011   0.00415   0.00000  -0.01634  -0.01635   2.08377
    A5        2.09081  -0.00254   0.00000   0.00941   0.00941   2.10021
    A6        2.09227  -0.00161   0.00000   0.00694   0.00694   2.09920
    A7        2.08296  -0.00830   0.00000   0.03269   0.03269   2.11565
    A8        2.10011   0.00415   0.00000  -0.01634  -0.01634   2.08377
    A9        2.10011   0.00415   0.00000  -0.01634  -0.01634   2.08377
   A10        2.10011   0.00415   0.00000  -0.01635  -0.01635   2.08376
   A11        2.09227  -0.00161   0.00000   0.00694   0.00694   2.09921
   A12        2.09080  -0.00254   0.00000   0.00941   0.00941   2.10021
   A13        2.10011   0.00415   0.00000  -0.01635  -0.01635   2.08377
   A14        2.09080  -0.00254   0.00000   0.00941   0.00941   2.10021
   A15        2.09228  -0.00161   0.00000   0.00694   0.00694   2.09921
   A16        2.08296  -0.00830   0.00000   0.03269   0.03269   2.11566
   A17        2.10011   0.00415   0.00000  -0.01634  -0.01634   2.08377
   A18        2.10011   0.00415   0.00000  -0.01635  -0.01635   2.08376
    D1        0.00000  -0.00000   0.00000  -0.00000   0.00000   0.00000
    D2        3.14159  -0.00000   0.00000   0.00000   0.00000   3.14159
    D3        3.14159   0.00000   0.00000  -0.00000   0.00000   3.14159
    D4        0.00000  -0.00000   0.00000  -0.00000   0.00000   0.00000
    D5        0.00000  -0.00000   0.00000  -0.00000   0.00000   0.00000
    D6        3.14159  -0.00000   0.00000  -0.00000   0.00000   3.14159
    D7        3.14159  -0.00000   0.00000   0.00000   0.00000   3.14159
    D8        0.00000  -0.00000   0.00000  -0.00000   0.00000   0.00000
    D9        0.00000   0.00000   0.00000   0.00000   0.00000   0.00000
   D10        3.14159  -0.00000   0.00000  -0.00000   0.00000   3.14159
   D11        3.14159   0.00000   0.00000   0.00000   0.00000   3.14159
   D12        0.00000   0.00000   0.00000  -0.00000   0.00000   0.00000
   D13        0.00000  -0.00000   0.00000  -0.00000   0.00000   0.00000
   D14        3.14159  -0.00000   0.00000  -0.00000   0.00000   3.14159
   D15        3.14159   0.00000   0.00000   0.00000   0.00000   3.14159
   D16        0.00000   0.00000   0.00000   0.00000   0.00000   0.00000
   D17        0.00000   0.00000   0.00000   0.00000   0.00000   0.00000
   D18        3.14159   0.00000   0.00000   0.00000   0.00000   3.14159
   D19        3.14159   0.00000   0.00000   0.00000   0.00000   3.14159
   D20        0.00000   0.00000   0.00000   0.00000   0.00000   0.00000
   D21        0.00000   0.00000   0.00000  -0.00000   0.00000   0.00000
   D22        3.14159   0.00000   0.00000   0.00000   0.00000   3.14159
   D23        3.14159   0.00000   0.00000  -0.00000   0.00000   3.14159
   D24        0.00000   0.00000   0.00000   0.00000   0.00000   0.00000
         Item               Value     Threshold  Converged?
 Maximum Force            0.090937     0.000450     NO 
 RMS     Force            0.026134     0.000300     NO 
 Maximum Displacement     0.235185     0.001800     NO 
 RMS     Displacement     0.093898     0.001200     NO 
 Predicted change in Energy=-2.923794D-01
 GradGradGradGradGradGradGradGradGradGradGradGradGradGradGradGradGradGrad

                          Input orientation:                          
 ---------------------------------------------------------------------
 Center     Atomic      Atomic             Coordinates (Angstroms)
 Number     Number       Type             X           Y           Z
 ---------------------------------------------------------------------
      1          6           0       -3.303024    0.247899    0.000000
      2          6           0       -2.012397    1.041084    0.000000
      3          6           0       -0.699921    0.312513    0.000000
      4          6           0       -0.642753   -1.187540    0.000000
      5          6           0       -1.933396   -1.980722    0.000000
      6          6           0       -3.245856   -1.252148    0.000000
      7         17           0       -4.772716   -2.190509    0.000000
      8          1           0       -4.737349    1.013534    0.000000
      9          1           0       -2.047592    2.666576    0.000000
     10         17           0        0.826940    1.250875    0.000000
     11          1           0        0.791565   -1.953181    0.000000
     12          1           0       -1.898200   -3.606211    0.000000
 ---------------------------------------------------------------------
                    Distance matrix (angstroms):
                    1          2          3          4          5
     1  C    0.000000
     2  C    1.514879   0.000000
     3  C    2.603905   1.501136   0.000000
     4  C    3.022834   2.615854   1.501142   0.000000
     5  C    2.615843   3.022839   2.603918   1.514891   0.000000
     6  C    1.501136   2.603907   2.988302   2.603904   1.501124
     7  Cl   2.847073   4.250006   4.780458   4.250004   2.847060
     8  H    1.625880   2.725091   4.097835   4.648703   4.102161
     9  H    2.725089   1.625873   2.712532   4.102168   4.648701
    10  Cl   4.250008   2.847077   1.792157   2.847081   4.250021
    11  H    4.648700   4.102174   2.712545   1.625877   2.725100
    12  H    4.102157   4.648697   4.097837   2.725089   1.625869
                    6          7          8          9         10
     6  C    0.000000
     7  Cl   1.792156   0.000000
     8  H    2.712539   3.204238   0.000000
     9  H    4.097833   5.569342   3.157109   0.000000
    10  Cl   4.780460   6.572615   5.569349   3.204239   0.000000
    11  H    4.097831   5.569340   6.274575   5.422450   3.204251
    12  H    2.712524   3.204224   5.422436   6.274565   5.569351
                   11         12
    11  H    0.000000
    12  H    3.157110   0.000000
 Stoichiometry    C6H4Cl2(1-,2)
 Framework group  CS[SG(C6H4Cl2)]
 Deg. of freedom    21
 Full point group                 CS      NOp   2
 Largest Abelian subgroup         CS      NOp   2
 Largest concise Abelian subgroup C1      NOp   1
                         Standard orientation:                         
 ---------------------------------------------------------------------
 Center     Atomic      Atomic             Coordinates (Angstroms)
 Number     Number       Type             X           Y           Z
 ---------------------------------------------------------------------
      1          6           0        1.307923    0.757437   -0.000000
      2          6           0        1.307925   -0.757442    0.000000
      3          6           0       -0.000000   -1.494153    0.000000
      4          6           0       -1.307929   -0.757436    0.000000
      5          6           0       -1.307919    0.757455   -0.000000
      6          6           0        0.000000    1.494150   -0.000000
      7         17           0        0.000004    3.286305   -0.000000
      8          1           0        2.711225    1.578552   -0.000000
      9          1           0        2.711218   -1.578557    0.000000
     10         17           0       -0.000004   -3.286310    0.000000
     11          1           0       -2.711232   -1.578543    0.000000
     12          1           0       -2.711210    1.578567   -0.000000
 ---------------------------------------------------------------------
 Rotational constants (GHZ):           4.5226133           0.5970373           0.5274127
 Standard basis: VSTO-6G (5D, 7F)
 There are    28 symmetry adapted cartesian basis functions of A'  symmetry.
 There are     8 symmetry adapted cartesian basis functions of A"  symmetry.
 There are    28 symmetry adapted basis functions of A'  symmetry.
 There are     8 symmetry adapted basis functions of A"  symmetry.
    36 basis functions,   216 primitive gaussians,    36 cartesian basis functions
    22 alpha electrons       21 beta electrons
       nuclear repulsion energy       192.1363578646 Hartrees.
 Integral buffers will be    131072 words long.
 Regular integral format.
 Two-electron integral symmetry is turned off.
 Do NDO integrals.
 One-electron integrals computed using PRISM.
 NBasis=    36 RedAO= T EigKep=  1.00D+00  NBF=    28     8
 NBsUse=    36 1.00D-06 EigRej= -1.00D+00 NBFU=    28     8
 Initial guess from the checkpoint file:  "geometry_chks/14ClBzAnionRadical.chk"
 B after Tr=    -0.000000   -0.000000   -0.000000
         Rot=    1.000000   -0.000000    0.000000    0.000001 Ang=   0.00 deg.
 Initial guess orbital symmetries:
 Alpha Orbitals:
       Occupied  (A') (A') (A') (A') (A') (A') (A') (A') (A') (A')
                 (A") (A") (A') (A') (A') (A") (A') (A') (A') (A")
                 (A") (A')
       Virtual   (A') (A') (A") (A') (A") (A') (A') (A") (A') (A')
                 (A') (A') (A') (A')
 Beta  Orbitals:
       Occupied  (A') (A') (A') (A') (A') (A') (A') (A') (A') (A')
                 (A") (A") (A') (A') (A') (A") (A') (A') (A") (A')
                 (A")
       Virtual   (A") (A") (A') (A') (A') (A') (A') (A') (A") (A')
                 (A') (A') (A') (A') (A')
 Initial guess <Sx>= 0.0000 <Sy>= 0.0000 <Sz>= 0.5000 <S**2>= 1.0835 S= 0.6548
 Keep J ints in memory in canonical form, NReq=862905.
 Overlap will be assumed to be unity.
 Requested convergence on RMS density matrix=1.00D-08 within  32 cycles.
 Requested convergence on MAX density matrix=1.00D-06.
 Requested convergence on             energy=1.00D-06.
 No special actions if energy rises.
 Fock symm off for IB=2 I1=    1 I=   29 J=    9 Cut=1.00D-07 Err=4.98D-03
 Fock matrix is not symmetric: symmetry in diagonalization turned off.
 SCF Done:  E(UAM1) =  0.499075874771     A.U. after   29 cycles
            NFock= 28  Conv=0.67D-08     -V/T= 1.0054
 <Sx>= 0.0000 <Sy>= 0.0000 <Sz>= 0.5000 <S**2>= 0.8663 S= 0.5566
 <L.S>=  0.00000000000    
 Annihilation of the first spin contaminant:
 S**2 before annihilation     0.8663,   after     0.7614
 QCSCF skips out because SCF is already converged.
 Calling FoFJK, ICntrl=      2127 FMM=F ISym2X=1 I1Cent= 0 IOpClX= 1 NMat=1 NMatS=1 NMatT=0.
 ***** Axes restored to original set *****
 -------------------------------------------------------------------
 Center     Atomic                   Forces (Hartrees/Bohr)
 Number     Number              X              Y              Z
 -------------------------------------------------------------------
      1        6           0.046930635   -0.008475616    0.000000000
      2        6          -0.013634197   -0.045697625    0.000000000
      3        6          -0.082201842   -0.050524087    0.000000000
      4        6          -0.046934623    0.008482612    0.000000000
      5        6           0.013641570    0.045698161    0.000000000
      6        6           0.082199046    0.050517730   -0.000000000
      7       17           0.028376158    0.017439876    0.000000000
      8        1           0.090697978   -0.048044927   -0.000000000
      9        1           0.001895968   -0.102623887   -0.000000000
     10       17          -0.028377943   -0.017440459   -0.000000000
     11        1          -0.090696726    0.048044774   -0.000000000
     12        1          -0.001896024    0.102623449   -0.000000000
 -------------------------------------------------------------------
 Cartesian Forces:  Max     0.102623887 RMS     0.044744384

 GradGradGradGradGradGradGradGradGradGradGradGradGradGradGradGradGradGrad
 Berny optimization.
 Using GEDIIS/GDIIS optimizer.
 FormGI is forming the generalized inverse of G from B-inverse, IUseBI=4.
 Internal  Forces:  Max     0.152559746 RMS     0.055375611
 Search for a local minimum.
 Step number   3 out of a maximum of   64
 All quantities printed in internal units (Hartrees-Bohrs-Radians)
 Mixed Optimization -- RFO/linear search
 Update second derivatives using D2CorX and points    1    3    2
 ITU=  0  1  0
 Use linear search instead of GDIIS.
     Eigenvalues ---    0.00393   0.02011   0.02011   0.02011   0.02011
     Eigenvalues ---    0.02011   0.02011   0.02011   0.02011   0.02011
     Eigenvalues ---    0.06524   0.06524   0.06524   0.16000   0.16000
     Eigenvalues ---    0.16000   0.16000   0.22000   0.22832   0.23001
     Eigenvalues ---    0.25000   0.25000   0.29023   0.29033   0.41169
     Eigenvalues ---    0.41392   0.43628   0.44656   0.44657   0.59993
 RFO step:  Lambda=-1.79652954D-01 EMin= 3.93135437D-03
 Quartic linear search produced a step of -0.94920.
 Maximum step size (   0.505) exceeded in Quadratic search.
    -- Step size scaled by   0.523
 Iteration  1 RMS(Cart)=  0.12815873 RMS(Int)=  0.01016572
 Iteration  2 RMS(Cart)=  0.01295386 RMS(Int)=  0.00000142
 Iteration  3 RMS(Cart)=  0.00000212 RMS(Int)=  0.00000001
 Iteration  4 RMS(Cart)=  0.00000000 RMS(Int)=  0.00000001
 ClnCor:  largest displacement from symmetrization is 6.18D-11 for atom     7.
 Variable       Old X    -DE/DX   Delta X   Delta X   Delta X     New X
                                 (Linear)    (Quad)   (Total)
    R1        2.86271  -0.15256  -0.23107  -0.02140  -0.25247   2.61023
    R2        2.83674  -0.13659  -0.19591  -0.00198  -0.19789   2.63884
    R3        3.07247  -0.10264   0.11355  -0.25041  -0.13686   2.93561
    R4        2.83674  -0.13659  -0.19591  -0.00198  -0.19789   2.63884
    R5        3.07245  -0.10264   0.11355  -0.25041  -0.13686   2.93559
    R6        2.83675  -0.13660  -0.19593  -0.00198  -0.19791   2.63884
    R7        3.38669  -0.03331  -0.06371  -0.02128  -0.08499   3.30170
    R8        2.86273  -0.15256  -0.23108  -0.02141  -0.25249   2.61024
    R9        3.07246  -0.10264   0.11354  -0.25041  -0.13687   2.93560
   R10        2.83671  -0.13659  -0.19590  -0.00197  -0.19788   2.63884
   R11        3.07245  -0.10264   0.11354  -0.25041  -0.13687   2.93558
   R12        3.38668  -0.03331  -0.06370  -0.02128  -0.08499   3.30170
    A1        2.08377   0.00166   0.01551   0.01025   0.02576   2.10953
    A2        2.10021  -0.00133  -0.00893  -0.00641  -0.01533   2.08488
    A3        2.09921  -0.00033  -0.00658  -0.00384  -0.01042   2.08878
    A4        2.08377   0.00166   0.01551   0.01025   0.02576   2.10953
    A5        2.10021  -0.00133  -0.00893  -0.00641  -0.01534   2.08488
    A6        2.09920  -0.00033  -0.00658  -0.00384  -0.01043   2.08878
    A7        2.11565  -0.00332  -0.03102  -0.02049  -0.05152   2.06413
    A8        2.08377   0.00166   0.01551   0.01025   0.02576   2.10953
    A9        2.08377   0.00166   0.01551   0.01025   0.02576   2.10953
   A10        2.08376   0.00166   0.01551   0.01025   0.02576   2.10953
   A11        2.09921  -0.00033  -0.00658  -0.00384  -0.01043   2.08878
   A12        2.10021  -0.00133  -0.00893  -0.00641  -0.01534   2.08487
   A13        2.08377   0.00166   0.01552   0.01025   0.02576   2.10953
   A14        2.10021  -0.00133  -0.00893  -0.00641  -0.01534   2.08487
   A15        2.09921  -0.00033  -0.00658  -0.00384  -0.01042   2.08879
   A16        2.11566  -0.00332  -0.03103  -0.02050  -0.05153   2.06413
   A17        2.08377   0.00166   0.01551   0.01025   0.02576   2.10953
   A18        2.08376   0.00166   0.01552   0.01025   0.02577   2.10953
    D1       -0.00000   0.00000   0.00000   0.00000   0.00000   0.00000
    D2        3.14159  -0.00000   0.00000  -0.00000   0.00000   3.14159
    D3        3.14159   0.00000   0.00000   0.00000   0.00000   3.14159
    D4        0.00000   0.00000   0.00000   0.00000  -0.00000   0.00000
    D5        0.00000   0.00000   0.00000  -0.00000  -0.00000   0.00000
    D6        3.14159  -0.00000   0.00000  -0.00000   0.00000   3.14159
    D7        3.14159  -0.00000   0.00000  -0.00000   0.00000   3.14159
    D8       -0.00000  -0.00000   0.00000  -0.00000   0.00000   0.00000
    D9        0.00000   0.00000   0.00000   0.00000   0.00000   0.00000
   D10        3.14159  -0.00000   0.00000  -0.00000   0.00000   3.14159
   D11        3.14159   0.00000   0.00000   0.00000   0.00000   3.14159
   D12       -0.00000   0.00000   0.00000   0.00000   0.00000   0.00000
   D13       -0.00000  -0.00000   0.00000  -0.00000   0.00000   0.00000
   D14        3.14159  -0.00000   0.00000  -0.00000   0.00000   3.14159
   D15        3.14159   0.00000   0.00000   0.00000   0.00000   3.14159
   D16        0.00000  -0.00000   0.00000  -0.00000   0.00000   0.00000
   D17        0.00000   0.00000   0.00000  -0.00000   0.00000   0.00000
   D18        3.14159  -0.00000   0.00000  -0.00000   0.00000   3.14159
   D19        3.14159   0.00000   0.00000   0.00000   0.00000   3.14159
   D20       -0.00000   0.00000   0.00000   0.00000   0.00000   0.00000
   D21       -0.00000   0.00000   0.00000   0.00000   0.00000   0.00000
   D22        3.14159   0.00000   0.00000   0.00000   0.00000   3.14159
   D23        3.14159   0.00000   0.00000   0.00000   0.00000   3.14159
   D24        0.00000   0.00000   0.00000   0.00000  -0.00000   0.00000
         Item               Value     Threshold  Converged?
 Maximum Force            0.152560     0.000450     NO 
 RMS     Force            0.055376     0.000300     NO 
 Maximum Displacement     0.380224     0.001800     NO 
 RMS     Displacement     0.135963     0.001200     NO 
 Predicted change in Energy=-8.355034D-02
 GradGradGradGradGradGradGradGradGradGradGradGradGradGradGradGradGradGrad

                          Input orientation:                          
 ---------------------------------------------------------------------
 Center     Atomic      Atomic             Coordinates (Angstroms)
 Number     Number       Type             X           Y           Z
 ---------------------------------------------------------------------
      1          6           0       -3.188887    0.189758    0.000000
      2          6           0       -2.012082    0.912985   -0.000000
      3          6           0       -0.774115    0.266910   -0.000000
      4          6           0       -0.756896   -1.129397   -0.000000
      5          6           0       -1.933703   -1.852624    0.000000
      6          6           0       -3.171667   -1.206551    0.000000
      7         17           0       -4.660213   -2.121363    0.000000
      8          1           0       -4.547941    0.942222    0.000000
      9          1           0       -2.069518    2.465372   -0.000000
     10         17           0        0.714429    1.181724   -0.000000
     11          1           0        0.602150   -1.881860   -0.000000
     12          1           0       -1.876255   -3.405005    0.000000
 ---------------------------------------------------------------------
                    Distance matrix (angstroms):
                    1          2          3          4          5
     1  C    0.000000
     2  C    1.381277   0.000000
     3  C    2.416003   1.396415   0.000000
     4  C    2.766721   2.397252   1.396414   0.000000
     5  C    2.397250   2.766720   2.416003   1.381279   0.000000
     6  C    1.396415   2.416003   2.814133   2.416003   1.396412
     7  Cl   2.739723   4.027389   4.561316   4.027391   2.739722
     8  H    1.553457   2.536027   3.833771   4.320141   3.826931
     9  H    2.536022   1.553450   2.551726   3.826924   4.320132
    10  Cl   4.027389   2.739723   1.747182   2.739722   4.027390
    11  H    4.320134   3.826927   2.551729   1.553451   2.536022
    12  H    3.826920   4.320126   3.833755   2.536012   1.553443
                    6          7          8          9         10
     6  C    0.000000
     7  Cl   1.747184   0.000000
     8  H    2.551735   3.065641   0.000000
     9  H    3.833765   5.267812   2.909049   0.000000
    10  Cl   4.561315   6.308499   5.267816   3.065634   0.000000
    11  H    3.833763   5.267811   5.873574   5.102573   3.065641
    12  H    2.551723   3.065642   5.102576   5.873558   5.267801
                   11         12
    11  H    0.000000
    12  H    2.909031   0.000000
 Stoichiometry    C6H4Cl2(1-,2)
 Framework group  CS[SG(C6H4Cl2)]
 Deg. of freedom    21
 Full point group                 CS      NOp   2
 Largest Abelian subgroup         CS      NOp   2
 Largest concise Abelian subgroup C1      NOp   1
                         Standard orientation:                         
 ---------------------------------------------------------------------
 Center     Atomic      Atomic             Coordinates (Angstroms)
 Number     Number       Type             X           Y           Z
 ---------------------------------------------------------------------
      1          6           0        1.198626    0.690638    0.000000
      2          6           0        1.198625   -0.690638    0.000000
      3          6           0       -0.000001   -1.407067   -0.000000
      4          6           0       -1.198626   -0.690639   -0.000000
      5          6           0       -1.198625    0.690640   -0.000000
      6          6           0       -0.000001    1.407066    0.000000
      7         17           0        0.000001    3.154250    0.000000
      8          1           0        2.551293    1.454524    0.000000
      9          1           0        2.551283   -1.454524    0.000000
     10         17           0       -0.000001   -3.154249   -0.000000
     11          1           0       -2.551289   -1.454519   -0.000000
     12          1           0       -2.551283    1.454512   -0.000000
 ---------------------------------------------------------------------
 Rotational constants (GHZ):           5.3085055           0.6522952           0.5809140
 Standard basis: VSTO-6G (5D, 7F)
 There are    28 symmetry adapted cartesian basis functions of A'  symmetry.
 There are     8 symmetry adapted cartesian basis functions of A"  symmetry.
 There are    28 symmetry adapted basis functions of A'  symmetry.
 There are     8 symmetry adapted basis functions of A"  symmetry.
    36 basis functions,   216 primitive gaussians,    36 cartesian basis functions
    22 alpha electrons       21 beta electrons
       nuclear repulsion energy       198.9464363053 Hartrees.
 Integral buffers will be    131072 words long.
 Regular integral format.
 Two-electron integral symmetry is turned off.
 Do NDO integrals.
 One-electron integrals computed using PRISM.
 NBasis=    36 RedAO= T EigKep=  1.00D+00  NBF=    28     8
 NBsUse=    36 1.00D-06 EigRej= -1.00D+00 NBFU=    28     8
 Lowest energy guess from the checkpoint file:  "geometry_chks/14ClBzAnionRadical.chk"
 B after Tr=    -0.000000    0.000000   -0.000000
         Rot=    1.000000    0.000000    0.000000    0.000000 Ang=   0.00 deg.
 B after Tr=     0.000000    0.000000   -0.000000
         Rot=    1.000000   -0.000000   -0.000000   -0.000001 Ang=  -0.00 deg.
 Initial guess orbital symmetries:
 Alpha Orbitals:
       Occupied  (A') (A') (A') (A') (A') (A') (A') (A') (A') (A")
                 (A") (A') (A') (A") (A') (A") (A") (A') (A") (A")
                 (A") (A")
       Virtual   (A') (A') (A') (A') (A') (A') (A') (A') (A') (A")
                 (A") (A') (A') (A")
 Beta  Orbitals:
       Occupied  (A') (A') (A') (A') (A') (A') (A') (A') (A') (A')
                 (A") (A") (A') (A') (A") (A") (A") (A") (A") (A")
                 (A")
       Virtual   (A') (A') (A') (A') (A') (A') (A') (A') (A') (A')
                 (A") (A") (A') (A') (A")
 Initial guess <Sx>= 0.0000 <Sy>= 0.0000 <Sz>= 0.5000 <S**2>= 1.0700 S= 0.6489
 Keep J ints in memory in canonical form, NReq=862905.
 Overlap will be assumed to be unity.
 Requested convergence on RMS density matrix=1.00D-08 within  32 cycles.
 Requested convergence on MAX density matrix=1.00D-06.
 Requested convergence on             energy=1.00D-06.
 No special actions if energy rises.
 An orbital has undefined symmetry, so N**3 symmetry is turned off.
 SCF Done:  E(UAM1) =  0.322009539964     A.U. after   30 cycles
            NFock= 29  Conv=0.46D-08     -V/T= 1.0035
 <Sx>= 0.0000 <Sy>= 0.0000 <Sz>= 0.5000 <S**2>= 0.8130 S= 0.5310
 <L.S>=  0.00000000000    
 Annihilation of the first spin contaminant:
 S**2 before annihilation     0.8130,   after     0.7534
 QCSCF skips out because SCF is already converged.
 Calling FoFJK, ICntrl=      2127 FMM=F ISym2X=1 I1Cent= 0 IOpClX= 1 NMat=1 NMatS=1 NMatT=0.
 ***** Axes restored to original set *****
 -------------------------------------------------------------------
 Center     Atomic                   Forces (Hartrees/Bohr)
 Number     Number              X              Y              Z
 -------------------------------------------------------------------
      1        6          -0.068184089    0.045114160    0.000000000
      2        6          -0.009450142    0.081211167    0.000000000
      3        6          -0.012880000   -0.007916739    0.000000000
      4        6           0.068179132   -0.045113203    0.000000000
      5        6           0.009454935   -0.081207962    0.000000000
      6        6           0.012878438    0.007915903   -0.000000000
      7       17          -0.000708617   -0.000435267   -0.000000000
      8        1           0.090968000   -0.051271609   -0.000000000
      9        1           0.004652287   -0.104319266   -0.000000000
     10       17           0.000708857    0.000435810    0.000000000
     11        1          -0.090965367    0.051270477   -0.000000000
     12        1          -0.004653433    0.104316528   -0.000000000
 -------------------------------------------------------------------
 Cartesian Forces:  Max     0.104319266 RMS     0.044350300

 GradGradGradGradGradGradGradGradGradGradGradGradGradGradGradGradGradGrad
 Berny optimization.
 Using GEDIIS/GDIIS optimizer.
 FormGI is forming the generalized inverse of G from B-inverse, IUseBI=4.
 Internal  Forces:  Max     0.104419949 RMS     0.029218144
 Search for a local minimum.
 Step number   4 out of a maximum of   64
 All quantities printed in internal units (Hartrees-Bohrs-Radians)
 Mixed Optimization -- RFO/linear search
 Update second derivatives using D2CorX and points    2    4
 DE= -1.01D-01 DEPred=-8.36D-02 R= 1.21D+00
 TightC=F SS=  1.41D+00  RLast= 5.16D-01 DXNew= 8.4853D-01 1.5468D+00
 Trust test= 1.21D+00 RLast= 5.16D-01 DXMaxT set to 8.49D-01
 ITU=  1  0  1  0
 Use linear search instead of GDIIS.
     Eigenvalues ---   -0.06025   0.02011   0.02011   0.02011   0.02011
     Eigenvalues ---    0.02011   0.02011   0.02011   0.02011   0.02011
     Eigenvalues ---    0.06524   0.06524   0.06524   0.15107   0.16000
     Eigenvalues ---    0.16000   0.16000   0.16626   0.22000   0.22956
     Eigenvalues ---    0.25000   0.25000   0.27235   0.29033   0.36418
     Eigenvalues ---    0.40523   0.41081   0.44656   0.44657   0.48581
 RFO step:  Lambda=-2.38964067D-01 EMin=-6.02470566D-02
 Skip linear search -- no minimum in search direction.
 Maximum step size (   0.849) exceeded in Quadratic search.
    -- Step size scaled by   0.838
 Iteration  1 RMS(Cart)=  0.05863158 RMS(Int)=  0.06080649
 Iteration  2 RMS(Cart)=  0.05443398 RMS(Int)=  0.00637313
 Iteration  3 RMS(Cart)=  0.00637319 RMS(Int)=  0.00000017
 Iteration  4 RMS(Cart)=  0.00000029 RMS(Int)=  0.00000000
 ClnCor:  largest displacement from symmetrization is 2.29D-09 for atom     9.
 Variable       Old X    -DE/DX   Delta X   Delta X   Delta X     New X
                                 (Linear)    (Quad)   (Total)
    R1        2.61023  -0.02333   0.00000  -0.01639  -0.01639   2.59385
    R2        2.63884  -0.01841   0.00000  -0.01144  -0.01144   2.62740
    R3        2.93561  -0.10442   0.00000  -0.42332  -0.42332   2.51229
    R4        2.63884  -0.01841   0.00000  -0.01144  -0.01144   2.62740
    R5        2.93559  -0.10442   0.00000  -0.42332  -0.42332   2.51227
    R6        2.63884  -0.01841   0.00000  -0.01144  -0.01144   2.62740
    R7        3.30170   0.00083   0.00000   0.02818   0.02818   3.32988
    R8        2.61024  -0.02333   0.00000  -0.01639  -0.01639   2.59385
    R9        2.93560  -0.10442   0.00000  -0.42331  -0.42331   2.51229
   R10        2.63884  -0.01841   0.00000  -0.01144  -0.01144   2.62740
   R11        2.93558  -0.10442   0.00000  -0.42331  -0.42331   2.51227
   R12        3.30170   0.00083   0.00000   0.02818   0.02818   3.32988
    A1        2.10953   0.00131   0.00000   0.00073   0.00073   2.11026
    A2        2.08488   0.00051   0.00000   0.00799   0.00799   2.09286
    A3        2.08878  -0.00182   0.00000  -0.00872  -0.00872   2.08007
    A4        2.10953   0.00131   0.00000   0.00073   0.00073   2.11025
    A5        2.08488   0.00051   0.00000   0.00799   0.00799   2.09287
    A6        2.08878  -0.00182   0.00000  -0.00871  -0.00871   2.08007
    A7        2.06413  -0.00263   0.00000  -0.00145  -0.00145   2.06267
    A8        2.10953   0.00131   0.00000   0.00073   0.00073   2.11025
    A9        2.10953   0.00131   0.00000   0.00073   0.00073   2.11026
   A10        2.10953   0.00131   0.00000   0.00073   0.00073   2.11026
   A11        2.08878  -0.00182   0.00000  -0.00872  -0.00872   2.08007
   A12        2.08487   0.00051   0.00000   0.00799   0.00799   2.09286
   A13        2.10953   0.00131   0.00000   0.00073   0.00073   2.11026
   A14        2.08487   0.00051   0.00000   0.00799   0.00799   2.09286
   A15        2.08879  -0.00182   0.00000  -0.00872  -0.00872   2.08007
   A16        2.06413  -0.00263   0.00000  -0.00145  -0.00145   2.06267
   A17        2.10953   0.00131   0.00000   0.00073   0.00073   2.11025
   A18        2.10953   0.00131   0.00000   0.00073   0.00073   2.11026
    D1        0.00000   0.00000   0.00000   0.00000   0.00000   0.00000
    D2        3.14159  -0.00000   0.00000  -0.00000   0.00000   3.14159
    D3        3.14159   0.00000   0.00000   0.00000   0.00000   3.14159
    D4       -0.00000   0.00000   0.00000   0.00000   0.00000   0.00000
    D5       -0.00000  -0.00000   0.00000  -0.00000   0.00000   0.00000
    D6        3.14159   0.00000   0.00000   0.00000   0.00000   3.14159
    D7        3.14159  -0.00000   0.00000  -0.00000   0.00000   3.14159
    D8        0.00000  -0.00000   0.00000   0.00000   0.00000   0.00000
    D9       -0.00000   0.00000   0.00000  -0.00000   0.00000   0.00000
   D10        3.14159  -0.00000   0.00000  -0.00000   0.00000   3.14159
   D11        3.14159   0.00000   0.00000   0.00000   0.00000   3.14159
   D12        0.00000   0.00000   0.00000   0.00000   0.00000   0.00000
   D13        0.00000  -0.00000   0.00000   0.00000  -0.00000   0.00000
   D14        3.14159  -0.00000   0.00000  -0.00000   0.00000   3.14159
   D15        3.14159   0.00000   0.00000   0.00000   0.00000   3.14159
   D16       -0.00000  -0.00000   0.00000  -0.00000   0.00000   0.00000
   D17       -0.00000   0.00000   0.00000   0.00000   0.00000   0.00000
   D18        3.14159  -0.00000   0.00000  -0.00000   0.00000   3.14159
   D19        3.14159   0.00000   0.00000   0.00000   0.00000   3.14159
   D20        0.00000   0.00000   0.00000  -0.00000  -0.00000   0.00000
   D21        0.00000  -0.00000   0.00000  -0.00000   0.00000   0.00000
   D22        3.14159  -0.00000   0.00000  -0.00000   0.00000   3.14159
   D23        3.14159   0.00000   0.00000   0.00000   0.00000   3.14159
   D24       -0.00000   0.00000   0.00000   0.00000   0.00000   0.00000
         Item               Value     Threshold  Converged?
 Maximum Force            0.104420     0.000450     NO 
 RMS     Force            0.029218     0.000300     NO 
 Maximum Displacement     0.435861     0.001800     NO 
 RMS     Displacement     0.119113     0.001200     NO 
 Predicted change in Energy=-1.978244D-01
 GradGradGradGradGradGradGradGradGradGradGradGradGradGradGradGradGradGrad

                          Input orientation:                          
 ---------------------------------------------------------------------
 Center     Atomic      Atomic             Coordinates (Angstroms)
 Number     Number       Type             X           Y           Z
 ---------------------------------------------------------------------
      1          6           0       -3.182200    0.187159   -0.000000
      2          6           0       -2.012783    0.905847    0.000000
      3          6           0       -0.779717    0.263469    0.000000
      4          6           0       -0.763585   -1.126797    0.000000
      5          6           0       -1.933002   -1.845485   -0.000000
      6          6           0       -3.166066   -1.203108   -0.000000
      7         17           0       -4.667318   -2.125727   -0.000000
      8          1           0       -4.350382    0.821804   -0.000000
      9          1           0       -2.051324    2.234725    0.000000
     10         17           0        0.721533    1.186092    0.000000
     11          1           0        0.404598   -1.761444    0.000000
     12          1           0       -1.894453   -3.174364   -0.000000
 ---------------------------------------------------------------------
                    Distance matrix (angstroms):
                    1          2          3          4          5
     1  C    0.000000
     2  C    1.372606   0.000000
     3  C    2.403695   1.390360   0.000000
     4  C    2.752486   2.385820   1.390360   0.000000
     5  C    2.385820   2.752488   2.403695   1.372606   0.000000
     6  C    1.390360   2.403695   2.800984   2.403693   1.390359
     7  Cl   2.748639   4.029515   4.563080   4.029515   2.748640
     8  H    1.329444   2.339109   3.614053   4.081931   3.599743
     9  H    2.339104   1.329437   2.345812   3.599737   4.081924
    10  Cl   4.029516   2.748640   1.762097   2.748642   4.029517
    11  H    4.081933   3.599747   2.345821   1.329447   2.339110
    12  H    3.599739   4.081926   3.614046   2.339101   1.329438
                    6          7          8          9         10
     6  C    0.000000
     7  Cl   1.762096   0.000000
     8  H    2.345819   2.964521   0.000000
     9  H    3.614048   5.084974   2.698520   0.000000
    10  Cl   4.563080   6.325176   5.084980   2.964519   0.000000
    11  H    3.614054   5.084981   5.411377   4.690514   2.964526
    12  H    2.345815   2.964526   4.690515   5.411363   5.084974
                   11         12
    11  H    0.000000
    12  H    2.698514   0.000000
 Stoichiometry    C6H4Cl2(1-,2)
 Framework group  CS[SG(C6H4Cl2)]
 Deg. of freedom    21
 Full point group                 CS      NOp   2
 Largest Abelian subgroup         CS      NOp   2
 Largest concise Abelian subgroup C1      NOp   1
                         Standard orientation:                         
 ---------------------------------------------------------------------
 Center     Atomic      Atomic             Coordinates (Angstroms)
 Number     Number       Type             X           Y           Z
 ---------------------------------------------------------------------
      1          6           0        1.192910    0.686303    0.000000
      2          6           0        1.192910   -0.686304    0.000000
      3          6           0       -0.000001   -1.400492    0.000000
      4          6           0       -1.192911   -0.686301    0.000000
      5          6           0       -1.192910    0.686304    0.000000
      6          6           0       -0.000000    1.400492    0.000000
      7         17           0        0.000003    3.162588    0.000000
      8          1           0        2.345259    1.349260    0.000000
      9          1           0        2.345251   -1.349260    0.000000
     10         17           0       -0.000001   -3.162589    0.000000
     11          1           0       -2.345263   -1.349259    0.000000
     12          1           0       -2.345256    1.349255    0.000000
 ---------------------------------------------------------------------
 Rotational constants (GHZ):           5.5856109           0.6508129           0.5828962
 Standard basis: VSTO-6G (5D, 7F)
 There are    28 symmetry adapted cartesian basis functions of A'  symmetry.
 There are     8 symmetry adapted cartesian basis functions of A"  symmetry.
 There are    28 symmetry adapted basis functions of A'  symmetry.
 There are     8 symmetry adapted basis functions of A"  symmetry.
    36 basis functions,   216 primitive gaussians,    36 cartesian basis functions
    22 alpha electrons       21 beta electrons
       nuclear repulsion energy       200.6365991411 Hartrees.
 Integral buffers will be    131072 words long.
 Regular integral format.
 Two-electron integral symmetry is turned off.
 Do NDO integrals.
 One-electron integrals computed using PRISM.
 NBasis=    36 RedAO= T EigKep=  1.00D+00  NBF=    28     8
 NBsUse=    36 1.00D-06 EigRej= -1.00D+00 NBFU=    28     8
 Initial guess from the checkpoint file:  "geometry_chks/14ClBzAnionRadical.chk"
 B after Tr=    -0.000000   -0.000000    0.000000
         Rot=    1.000000    0.000000    0.000000    0.000000 Ang=   0.00 deg.
 Initial guess orbital symmetries:
 Alpha Orbitals:
       Occupied  (A') (A') (A') (A') (A') (A') (A') (A') (A') (A')
                 (A") (A") (A') (A') (A') (A') (A") (A') (A') (A")
                 (A") (A')
       Virtual   (A') (A") (A') (A") (A') (A') (A') (A") (A') (A')
[...]
   A16        2.12018  -0.00003  -0.00026   0.00000  -0.00026   2.11992
   A17        2.08150   0.00001   0.00013   0.00000   0.00013   2.08163
   A18        2.08150   0.00002   0.00013   0.00000   0.00013   2.08163
    D1        0.00000  -0.00000   0.00000   0.00000   0.00000   0.00000
    D2        3.14159  -0.00000  -0.00000   0.00000   0.00000   3.14159
    D3        3.14159   0.00000  -0.00000   0.00000   0.00000   3.14159
    D4       -0.00000   0.00000   0.00000   0.00000   0.00000   0.00000
    D5       -0.00000  -0.00000   0.00000   0.00000   0.00000   0.00000
    D6        3.14159   0.00000  -0.00000   0.00000   0.00000   3.14159
    D7        3.14159  -0.00000  -0.00000   0.00000   0.00000   3.14159
    D8       -0.00000  -0.00000   0.00000   0.00000   0.00000   0.00000
    D9        0.00000   0.00000   0.00000   0.00000   0.00000   0.00000
   D10        3.14159  -0.00000  -0.00000   0.00000   0.00000   3.14159
   D11        3.14159   0.00000  -0.00000   0.00000   0.00000   3.14159
   D12        0.00000   0.00000   0.00000   0.00000  -0.00000   0.00000
   D13       -0.00000  -0.00000   0.00000   0.00000   0.00000   0.00000
   D14        3.14159  -0.00000  -0.00000   0.00000   0.00000   3.14159
   D15        3.14159   0.00000  -0.00000   0.00000   0.00000   3.14159
   D16        0.00000  -0.00000   0.00000   0.00000   0.00000   0.00000
   D17        0.00000  -0.00000   0.00000   0.00000   0.00000   0.00000
   D18        3.14159  -0.00000  -0.00000   0.00000   0.00000   3.14159
   D19        3.14159   0.00000  -0.00000   0.00000   0.00000   3.14159
   D20        0.00000  -0.00000   0.00000   0.00000  -0.00000   0.00000
   D21        0.00000   0.00000   0.00000   0.00000   0.00000   0.00000
   D22        3.14159  -0.00000  -0.00000   0.00000   0.00000   3.14159
   D23        3.14159   0.00000  -0.00000   0.00000   0.00000   3.14159
   D24        0.00000   0.00000   0.00000   0.00000  -0.00000   0.00000
         Item               Value     Threshold  Converged?
 Maximum Force            0.000339     0.000450     YES
 RMS     Force            0.000085     0.000300     YES
 Maximum Displacement     0.001266     0.001800     YES
 RMS     Displacement     0.000328     0.001200     YES
 Predicted change in Energy=-8.785852D-07
 Optimization completed.
    -- Stationary point found.
                           ----------------------------
                           !   Optimized Parameters   !
                           ! (Angstroms and Degrees)  !
 --------------------------                            --------------------------
 ! Name  Definition              Value          Derivative Info.                !
 --------------------------------------------------------------------------------
 ! R1    R(1,2)                  1.3914         -DE/DX =   -0.0001              !
 ! R2    R(1,6)                  1.3962         -DE/DX =    0.0001              !
 ! R3    R(1,8)                  1.0985         -DE/DX =    0.0                 !
 ! R4    R(2,3)                  1.3962         -DE/DX =    0.0001              !
 ! R5    R(2,9)                  1.0982         -DE/DX =    0.0001              !
 ! R6    R(3,4)                  1.3962         -DE/DX =    0.0001              !
 ! R7    R(3,10)                 1.8033         -DE/DX =   -0.0003              !
 ! R8    R(4,5)                  1.3914         -DE/DX =    0.0                 !
 ! R9    R(4,11)                 1.0984         -DE/DX =    0.0001              !
 ! R10   R(5,6)                  1.3962         -DE/DX =    0.0001              !
 ! R11   R(5,12)                 1.098          -DE/DX =    0.0003              !
 ! R12   R(6,7)                  1.8033         -DE/DX =   -0.0003              !
 ! A1    A(2,1,6)              119.2608         -DE/DX =    0.0                 !
 ! A2    A(2,1,8)              121.0962         -DE/DX =    0.0                 !
 ! A3    A(6,1,8)              119.643          -DE/DX =    0.0                 !
 ! A4    A(1,2,3)              119.2615         -DE/DX =    0.0                 !
 ! A5    A(1,2,9)              121.0959         -DE/DX =    0.0                 !
 ! A6    A(3,2,9)              119.6426         -DE/DX =    0.0                 !
 ! A7    A(2,3,4)              121.4776         -DE/DX =    0.0                 !
 ! A8    A(2,3,10)             119.2612         -DE/DX =    0.0                 !
 ! A9    A(4,3,10)             119.2612         -DE/DX =    0.0                 !
 ! A10   A(3,4,5)              119.2608         -DE/DX =    0.0                 !
 ! A11   A(3,4,11)             119.643          -DE/DX =    0.0                 !
 ! A12   A(5,4,11)             121.0962         -DE/DX =    0.0                 !
 ! A13   A(4,5,6)              119.2619         -DE/DX =    0.0                 !
 ! A14   A(4,5,12)             121.0957         -DE/DX =    0.0                 !
 ! A15   A(6,5,12)             119.6423         -DE/DX =    0.0                 !
 ! A16   A(1,6,5)              121.4775         -DE/DX =    0.0                 !
 ! A17   A(1,6,7)              119.2613         -DE/DX =    0.0                 !
 ! A18   A(5,6,7)              119.2612         -DE/DX =    0.0                 !
 ! D1    D(6,1,2,3)              0.0            -DE/DX =    0.0                 !
 ! D2    D(6,1,2,9)            180.0            -DE/DX =    0.0                 !
 ! D3    D(8,1,2,3)            180.0            -DE/DX =    0.0                 !
 ! D4    D(8,1,2,9)              0.0            -DE/DX =    0.0                 !
 ! D5    D(2,1,6,5)              0.0            -DE/DX =    0.0                 !
 ! D6    D(2,1,6,7)            180.0            -DE/DX =    0.0                 !
 ! D7    D(8,1,6,5)            180.0            -DE/DX =    0.0                 !
 ! D8    D(8,1,6,7)              0.0            -DE/DX =    0.0                 !
 ! D9    D(1,2,3,4)              0.0            -DE/DX =    0.0                 !
 ! D10   D(1,2,3,10)           180.0            -DE/DX =    0.0                 !
 ! D11   D(9,2,3,4)            180.0            -DE/DX =    0.0                 !
 ! D12   D(9,2,3,10)             0.0            -DE/DX =    0.0                 !
 ! D13   D(2,3,4,5)              0.0            -DE/DX =    0.0                 !
 ! D14   D(2,3,4,11)           180.0            -DE/DX =    0.0                 !
 ! D15   D(10,3,4,5)           180.0            -DE/DX =    0.0                 !
 ! D16   D(10,3,4,11)            0.0            -DE/DX =    0.0                 !
 ! D17   D(3,4,5,6)              0.0            -DE/DX =    0.0                 !
 ! D18   D(3,4,5,12)           180.0            -DE/DX =    0.0                 !
 ! D19   D(11,4,5,6)           180.0            -DE/DX =    0.0                 !
 ! D20   D(11,4,5,12)            0.0            -DE/DX =    0.0                 !
 ! D21   D(4,5,6,1)              0.0            -DE/DX =    0.0                 !
 ! D22   D(4,5,6,7)            180.0            -DE/DX =    0.0                 !
 ! D23   D(12,5,6,1)           180.0            -DE/DX =    0.0                 !
 ! D24   D(12,5,6,7)             0.0            -DE/DX =    0.0                 !
 --------------------------------------------------------------------------------
 GradGradGradGradGradGradGradGradGradGradGradGradGradGradGradGradGradGrad

                          Input orientation:                          
 ---------------------------------------------------------------------
 Center     Atomic      Atomic             Coordinates (Angstroms)
 Number     Number       Type             X           Y           Z
 ---------------------------------------------------------------------
      1          6           0       -3.203400    0.203647   -0.000000
      2          6           0       -2.017927    0.932194   -0.000000
      3          6           0       -0.798703    0.251765   -0.000000
      4          6           0       -0.742368   -1.143341    0.000000
      5          6           0       -1.927838   -1.871882    0.000000
      6          6           0       -3.147061   -1.191460   -0.000000
      7         17           0       -4.683390   -2.135650   -0.000000
      8          1           0       -4.179289    0.707999   -0.000000
      9          1           0       -2.027078    2.030406   -0.000000
     10         17           0        0.737630    1.195948   -0.000000
     11          1           0        0.233411   -1.647639    0.000000
     12          1           0       -1.918689   -2.969816    0.000000
 ---------------------------------------------------------------------
                    Distance matrix (angstroms):
                    1          2          3          4          5
     1  C    0.000000
     2  C    1.391448   0.000000
     3  C    2.405179   1.396242   0.000000
     4  C    2.805541   2.436165   1.396243   0.000000
     5  C    2.436161   2.805523   2.405165   1.391442   0.000000
     6  C    1.396245   2.405172   2.756390   2.405175   1.396238
     7  Cl   2.768155   4.064033   4.559665   4.064029   2.768148
     8  H    1.098512   2.172959   3.411233   3.903830   3.424151
     9  H    2.172736   1.098249   2.161589   3.423909   3.903549
    10  Cl   4.064035   2.768151   1.803275   2.768152   4.064025
    11  H    3.903708   3.424042   2.161711   1.098390   2.172851
    12  H    3.423646   3.903272   3.410712   2.172497   1.097973
                    6          7          8          9         10
     6  C    0.000000
     7  Cl   1.803275   0.000000
     8  H    2.161813   2.887985   0.000000
     9  H    3.410979   4.940851   2.526019   0.000000
    10  Cl   4.559665   6.362940   4.941071   2.887894   0.000000
    11  H    3.411113   4.940960   5.002095   4.317155   2.887945
    12  H    2.161353   2.887803   4.317017   5.001396   4.940609
                   11         12
    11  H    0.000000
    12  H    2.525804   0.000000
 Stoichiometry    C6H4Cl2(1-,2)
 Framework group  CS[SG(C6H4Cl2)]
 Deg. of freedom    21
 Full point group                 CS      NOp   2
 Largest Abelian subgroup         CS      NOp   2
 Largest concise Abelian subgroup C1      NOp   1
                         Standard orientation:                         
 ---------------------------------------------------------------------
 Center     Atomic      Atomic             Coordinates (Angstroms)
 Number     Number       Type             X           Y           Z
 ---------------------------------------------------------------------
      1          6           0        1.218081    0.695731   -0.000000
      2          6           0        1.218079   -0.695718   -0.000000
      3          6           0        0.000000   -1.378194    0.000000
      4          6           0       -1.218086   -0.695726    0.000000
      5          6           0       -1.218080    0.695716    0.000000
      6          6           0       -0.000007    1.378196    0.000000
      7         17           0       -0.000023    3.181471    0.000000
      8          1           0        2.158739    1.263085   -0.000000
      9          1           0        2.158514   -1.262934   -0.000000
     10         17           0        0.000007   -3.181469   -0.000000
     11          1           0       -2.158641   -1.263015    0.000000
     12          1           0       -2.158277    1.262789    0.000000
 ---------------------------------------------------------------------
 Rotational constants (GHZ):           5.6152130           0.6453225           0.5788041

 **********************************************************************

            Population analysis using the SCF Density.

 **********************************************************************

 Orbital symmetries:
 Alpha Orbitals:
       Occupied  (A') (A') (A') (A') (A') (A') (A') (A') (A') (A')
                 (A') (A') (A") (A') (A') (A") (A") (A') (A') (A")
                 (A") (A')
       Virtual   (A') (A") (A") (A") (A') (A') (A') (A') (A') (A')
                 (A') (A') (A') (A')
 Beta  Orbitals:
       Occupied  (A') (A') (A') (A') (A') (A') (A') (A') (A') (A')
                 (A') (A') (A") (A') (A") (A') (A") (A') (A') (A")
                 (A")
       Virtual   (A") (A") (A') (A') (A") (A') (A') (A') (A') (A')
                 (A') (A') (A') (A') (A')
 The electronic state is 2-A'.
 Alpha  occ. eigenvalues --   -1.27563  -1.15676  -1.14415  -1.00354  -0.95537
 Alpha  occ. eigenvalues --   -0.69698  -0.67543  -0.49887  -0.43688  -0.42099
 Alpha  occ. eigenvalues --   -0.37245  -0.37025  -0.35346  -0.29626  -0.29496
 Alpha  occ. eigenvalues --   -0.29023  -0.25063  -0.24931  -0.24850  -0.20236
 Alpha  occ. eigenvalues --   -0.17054   0.00983
 Alpha virt. eigenvalues --    0.12401   0.17448   0.17878   0.26491   0.29514
 Alpha virt. eigenvalues --    0.30008   0.31231   0.32147   0.33606   0.34295
 Alpha virt. eigenvalues --    0.34763   0.36463   0.36778   0.37686
  Beta  occ. eigenvalues --   -1.27198  -1.14048  -1.12819  -1.00365  -0.94323
  Beta  occ. eigenvalues --   -0.69597  -0.66220  -0.48847  -0.42713  -0.41665
  Beta  occ. eigenvalues --   -0.37195  -0.35756  -0.34917  -0.29193  -0.28385
  Beta  occ. eigenvalues --   -0.28223  -0.24622  -0.24386  -0.24319  -0.20698
  Beta  occ. eigenvalues --   -0.15926
  Beta virt. eigenvalues --    0.16894   0.19455   0.25191   0.26022   0.27061
  Beta virt. eigenvalues --    0.30068   0.30101   0.31604   0.32248   0.33901
  Beta virt. eigenvalues --    0.34306   0.35513   0.37375   0.37635   0.37835
          Condensed to atoms (all electrons):
               1          2          3          4          5          6
     1  C    4.153791   0.000000   0.000000   0.000000   0.000000   0.000000
     2  C    0.000000   4.153772   0.000000   0.000000   0.000000   0.000000
     3  C    0.000000   0.000000   4.093790   0.000000   0.000000   0.000000
     4  C    0.000000   0.000000   0.000000   4.153789   0.000000   0.000000
     5  C    0.000000   0.000000   0.000000   0.000000   4.153772   0.000000
     6  C    0.000000   0.000000   0.000000   0.000000   0.000000   4.093788
     7  Cl   0.000000   0.000000   0.000000   0.000000   0.000000   0.000000
     8  H    0.000000   0.000000   0.000000   0.000000   0.000000   0.000000
     9  H    0.000000   0.000000   0.000000   0.000000   0.000000   0.000000
    10  Cl   0.000000   0.000000   0.000000   0.000000   0.000000   0.000000
    11  H    0.000000   0.000000   0.000000   0.000000   0.000000   0.000000
    12  H    0.000000   0.000000   0.000000   0.000000   0.000000   0.000000
               7          8          9         10         11         12
     1  C    0.000000   0.000000   0.000000   0.000000   0.000000   0.000000
     2  C    0.000000   0.000000   0.000000   0.000000   0.000000   0.000000
     3  C    0.000000   0.000000   0.000000   0.000000   0.000000   0.000000
     4  C    0.000000   0.000000   0.000000   0.000000   0.000000   0.000000
     5  C    0.000000   0.000000   0.000000   0.000000   0.000000   0.000000
     6  C    0.000000   0.000000   0.000000   0.000000   0.000000   0.000000
     7  Cl   7.313789   0.000000   0.000000   0.000000   0.000000   0.000000
     8  H    0.000000   0.892427   0.000000   0.000000   0.000000   0.000000
     9  H    0.000000   0.000000   0.892430   0.000000   0.000000   0.000000
    10  Cl   0.000000   0.000000   0.000000   7.313792   0.000000   0.000000
    11  H    0.000000   0.000000   0.000000   0.000000   0.892427   0.000000
    12  H    0.000000   0.000000   0.000000   0.000000   0.000000   0.892432
          Atomic-Atomic Spin Densities.
               1          2          3          4          5          6
     1  C   -0.022237   0.000000   0.000000   0.000000   0.000000   0.000000
     2  C    0.000000  -0.022242   0.000000   0.000000   0.000000   0.000000
     3  C    0.000000   0.000000   0.324571   0.000000   0.000000   0.000000
     4  C    0.000000   0.000000   0.000000  -0.022240   0.000000   0.000000
     5  C    0.000000   0.000000   0.000000   0.000000  -0.022238   0.000000
     6  C    0.000000   0.000000   0.000000   0.000000   0.000000   0.324564
     7  Cl   0.000000   0.000000   0.000000   0.000000   0.000000   0.000000
     8  H    0.000000   0.000000   0.000000   0.000000   0.000000   0.000000
     9  H    0.000000   0.000000   0.000000   0.000000   0.000000   0.000000
    10  Cl   0.000000   0.000000   0.000000   0.000000   0.000000   0.000000
    11  H    0.000000   0.000000   0.000000   0.000000   0.000000   0.000000
    12  H    0.000000   0.000000   0.000000   0.000000   0.000000   0.000000
               7          8          9         10         11         12
     1  C    0.000000   0.000000   0.000000   0.000000   0.000000   0.000000
     2  C    0.000000   0.000000   0.000000   0.000000   0.000000   0.000000
     3  C    0.000000   0.000000   0.000000   0.000000   0.000000   0.000000
     4  C    0.000000   0.000000   0.000000   0.000000   0.000000   0.000000
     5  C    0.000000   0.000000   0.000000   0.000000   0.000000   0.000000
     6  C    0.000000   0.000000   0.000000   0.000000   0.000000   0.000000
     7  Cl   0.203412   0.000000   0.000000   0.000000   0.000000   0.000000
     8  H    0.000000   0.008254   0.000000   0.000000   0.000000   0.000000
     9  H    0.000000   0.000000   0.008249   0.000000   0.000000   0.000000
    10  Cl   0.000000   0.000000   0.000000   0.203414   0.000000   0.000000
    11  H    0.000000   0.000000   0.000000   0.000000   0.008251   0.000000
    12  H    0.000000   0.000000   0.000000   0.000000   0.000000   0.008241
 Mulliken charges and spin densities:
               1          2
     1  C   -0.153791  -0.022237
     2  C   -0.153772  -0.022242
     3  C   -0.093790   0.324571
     4  C   -0.153789  -0.022240
     5  C   -0.153772  -0.022238
     6  C   -0.093788   0.324564
     7  Cl  -0.313789   0.203412
     8  H    0.107573   0.008254
     9  H    0.107570   0.008249
    10  Cl  -0.313792   0.203414
    11  H    0.107573   0.008251
    12  H    0.107568   0.008241
 Sum of Mulliken charges =  -1.00000   1.00000
 Mulliken charges and spin densities with hydrogens summed into heavy atoms:
               1          2
     1  C   -0.046218  -0.013982
     2  C   -0.046202  -0.013993
     3  C   -0.093790   0.324571
     4  C   -0.046216  -0.013989
     5  C   -0.046204  -0.013997
     6  C   -0.093788   0.324564
     7  Cl  -0.313789   0.203412
    10  Cl  -0.313792   0.203414
 Charge=             -1.0000 electrons
 Dipole moment (field-independent basis, Debye):
    X=              0.0001    Y=              0.0000    Z=              0.0000  Tot=              0.0001
 N-N= 2.015415504364D+02 E-N=-2.870733929073D+02  KE=-9.335686032046D+01
 Symmetry A'   KE=-7.290722974144D+01
 Symmetry A"   KE=-2.044963057901D+01
 Symmetry A'   SP= 1.000000000000D+00
 Symmetry A"   SP= 6.661338147751D-16
 1\1\GINC-SH02-01N22\FOpt\UAM1\ZDO\C6H4Cl2(1-,2)\JLAPIER\09-Dec-2025\0\
 \# opt am1 SCF=XQC\\2-Chloro-Benzene Anion Radical (14)\\-1,2\C,-3.203
 4004007,0.2036474073,0.\C,-2.0179267865,0.9321944154,0.\C,-0.798702676
 2,0.2517649654,0.\C,-0.7423675208,-1.1433412668,0.\C,-1.9278376666,-1.
 871881618,0.\C,-3.1470611129,-1.1914600947,0.\Cl,-4.683389753,-2.13565
 03132,0.\H,-4.1792886828,0.7079985093,0.\H,-2.0270780452,2.0304055679,
 0.\Cl,0.7376300308,1.1959479421,0.\H,0.2334114805,-1.647639335,0.\H,-1
 .9186888664,-2.9698161796,0.\\Version=ES64L-G16RevB.01\State=2-A'\HF=0
 .0424887\S2=0.757802\S2-1=0.\S2A=0.750049\RMSD=6.877e-09\RMSF=1.681e-0
 4\Dipole=-0.0000328,0.0000462,0.\PG=CS [SG(C6H4Cl2)]\\@


 A people that values its privileges above its principles soon loses both.
 -- Dwight D. Eisenhower
 Job cpu time:       0 days  0 hours  0 minutes 12.1 seconds.
 Elapsed time:       0 days  0 hours  0 minutes 29.6 seconds.
 File lengths (MBytes):  RWF=     10 Int=      0 D2E=      0 Chk=      2 Scr=      1
 Normal termination of Gaussian 16 at Tue Dec  9 09:59:16 2025.
