 Entering Gaussian System, Link 0=g16
 Initial command:
 /share/software/user/restricted/gaussian/g16.B01/l1.exe "/home/users/jlapier/Chloroaromatics/Gau-27899.inp" -scrdir="/home/users/jlapier/Chloroaromatics/"
 Entering Link 1 = /share/software/user/restricted/gaussian/g16.B01/l1.exe PID=     27900.
  
 Copyright (c) 1988-2017, Gaussian, Inc.  All Rights Reserved.
  
 This is part of the Gaussian(R) 16 program.  It is based on
 the Gaussian(R) 09 system (copyright 2009, Gaussian, Inc.),
 the Gaussian(R) 03 system (copyright 2003, Gaussian, Inc.),
 the Gaussian(R) 98 system (copyright 1998, Gaussian, Inc.),
 the Gaussian(R) 94 system (copyright 1995, Gaussian, Inc.),
 the Gaussian 92(TM) system (copyright 1992, Gaussian, Inc.),
 the Gaussian 90(TM) system (copyright 1990, Gaussian, Inc.),
 the Gaussian 88(TM) system (copyright 1988, Gaussian, Inc.),
 the Gaussian 86(TM) system (copyright 1986, Carnegie Mellon
 University), and the Gaussian 82(TM) system (copyright 1983,
 Carnegie Mellon University). Gaussian is a federally registered
 trademark of Gaussian, Inc.
  
 This software contains proprietary and confidential information,
 including trade secrets, belonging to Gaussian, Inc.
  
 This software is provided under written license and may be
 used, copied, transmitted, or stored only in accord with that
 written license.
  
 The following legend is applicable only to US Government
 contracts under FAR:
  
                    RESTRICTED RIGHTS LEGEND
  
 Use, reproduction and disclosure by the US Government is
 subject to restrictions as set forth in subparagraphs (a)
 and (c) of the Commercial Computer Software - Restricted
 Rights clause in FAR 52.227-19.
  
 Gaussian, Inc.
 340 Quinnipiac St., Bldg. 40, Wallingford CT 06492
  
  
 ---------------------------------------------------------------
 Warning -- This program may not be used in any manner that
 competes with the business of Gaussian, Inc. or will provide
 assistance to any competitor of Gaussian, Inc.  The licensee
 of this program is prohibited from giving any competitor of
 Gaussian, Inc. access to this program.  By using this program,
 the user acknowledges that Gaussian, Inc. is engaged in the
 business of creating and licensing software in the field of
 computational chemistry and represents and warrants to the
 licensee that it is not a competitor of Gaussian, Inc. and that
 it will not use this program in any manner prohibited above.
 ---------------------------------------------------------------
  

 Cite this work as:
 Gaussian 16, Revision B.01,
 M. J. Frisch, G. W. Trucks, H. B. Schlegel, G. E. Scuseria, 
 M. A. Robb, J. R. Cheeseman, G. Scalmani, V. Barone, 
 G. A. Petersson, H. Nakatsuji, X. Li, M. Caricato, A. V. Marenich, 
 J. Bloino, B. G. Janesko, R. Gomperts, B. Mennucci, H. P. Hratchian, 
 J. V. Ortiz, A. F. Izmaylov, J. L. Sonnenberg, D. Williams-Young, 
 F. Ding, F. Lipparini, F. Egidi, J. Goings, B. Peng, A. Petrone, 
 T. Henderson, D. Ranasinghe, V. G. Zakrzewski, J. Gao, N. Rega, 
 G. Zheng, W. Liang, M. Hada, M. Ehara, K. Toyota, R. Fukuda, 
 J. Hasegawa, M. Ishida, T. Nakajima, Y. Honda, O. Kitao, H. Nakai, 
 T. Vreven, K. Throssell, J. A. Montgomery, Jr., J. E. Peralta, 
 F. Ogliaro, M. J. Bearpark, J. J. Heyd, E. N. Brothers, K. N. Kudin, 
 V. N. Staroverov, T. A. Keith, R. Kobayashi, J. Normand, 
 K. Raghavachari, A. P. Rendell, J. C. Burant, S. S. Iyengar, 
 J. Tomasi, M. Cossi, J. M. Millam, M. Klene, C. Adamo, R. Cammi, 
 J. W. Ochterski, R. L. Martin, K. Morokuma, O. Farkas, 
 J. B. Foresman, and D. J. Fox, Gaussian, Inc., Wallingford CT, 2016.
 
 ******************************************
 Gaussian 16:  ES64L-G16RevB.01 20-Dec-2017
                 8-Dec-2025 
 ******************************************
 %mem=2GB
 %nprocshare=1
 Will use up to    1 processors via shared memory.
 %chk=geometry_chks/1_3456ClBzAnionIntermediate.chk
 ---------------------------
 # opt am1 SCF(maxcyc=10000)
 ---------------------------
 1/18=20,19=15,26=1,38=1/1,3;
 2/9=110,12=2,17=6,18=5,40=1/2;
 3/5=2,25=1,41=700000,71=1/1,2,3;
 4/35=1/1;
 5/5=2,7=10000,35=1,38=5/2;
 6/7=2,8=2,9=2,10=2,28=1/1;
 7//1,2,3,16;
 1/18=20,19=15,26=1/3(2);
 2/9=110/2;
 99//99;
 2/9=110/2;
 3/5=2,25=1,41=700000,71=1,135=20/1,2,3;
 4/5=5,16=3,35=1/1;
 5/5=2,7=10000,35=1,38=5/2;
 7//1,2,3,16;
 1/18=20,19=15,26=1/3(-5);
 2/9=110/2;
 6/7=2,8=2,9=2,10=2,19=2,28=1/1;
 99/9=1/99;
 -------------------------------------
 Anion Intermediate (removed 2) 1_3456
 -------------------------------------
 Symbolic Z-matrix:
 Charge = -1 Multiplicity = 1
 C                    -3.20928   0.19943   0. 
 C                    -2.0115    0.93555   0. 
 C                    -0.77511   0.2663    0. 
 C                    -0.7365   -1.13907   0. 
 C                    -1.93429  -1.87519   0. 
 C                    -3.17067  -1.20594   0. 
 Cl                   -4.67483  -2.13035   0. 
 Cl                    0.81614  -1.97951   0. 
 Cl                   -1.8858   -3.64003   0. 
 Cl                   -2.05998   2.7004    0. 
 Cl                    0.72905   1.19071   0. 
 

 GradGradGradGradGradGradGradGradGradGradGradGradGradGradGradGradGradGrad
 Berny optimization.
 Initialization pass.
                           ----------------------------
                           !    Initial Parameters    !
                           ! (Angstroms and Degrees)  !
 --------------------------                            --------------------------
 ! Name  Definition              Value          Derivative Info.                !
 --------------------------------------------------------------------------------
 ! R1    R(1,2)                  1.4059         estimate D2E/DX2                !
 ! R2    R(1,6)                  1.4059         estimate D2E/DX2                !
 ! R3    R(2,3)                  1.4059         estimate D2E/DX2                !
 ! R4    R(2,10)                 1.7655         estimate D2E/DX2                !
 ! R5    R(3,4)                  1.4059         estimate D2E/DX2                !
 ! R6    R(3,11)                 1.7655         estimate D2E/DX2                !
 ! R7    R(4,5)                  1.4059         estimate D2E/DX2                !
 ! R8    R(4,8)                  1.7655         estimate D2E/DX2                !
 ! R9    R(5,6)                  1.4059         estimate D2E/DX2                !
 ! R10   R(5,9)                  1.7655         estimate D2E/DX2                !
 ! R11   R(6,7)                  1.7655         estimate D2E/DX2                !
 ! A1    A(2,1,6)              119.9999         estimate D2E/DX2                !
 ! A2    A(1,2,3)              120.0            estimate D2E/DX2                !
 ! A3    A(1,2,10)             120.0001         estimate D2E/DX2                !
 ! A4    A(3,2,10)             119.9999         estimate D2E/DX2                !
 ! A5    A(2,3,4)              120.0001         estimate D2E/DX2                !
 ! A6    A(2,3,11)             120.0            estimate D2E/DX2                !
 ! A7    A(4,3,11)             119.9999         estimate D2E/DX2                !
 ! A8    A(3,4,5)              119.9997         estimate D2E/DX2                !
 ! A9    A(3,4,8)              120.0003         estimate D2E/DX2                !
 ! A10   A(5,4,8)              120.0            estimate D2E/DX2                !
 ! A11   A(4,5,6)              120.0            estimate D2E/DX2                !
 ! A12   A(4,5,9)              119.9996         estimate D2E/DX2                !
 ! A13   A(6,5,9)              120.0004         estimate D2E/DX2                !
 ! A14   A(1,6,5)              120.0003         estimate D2E/DX2                !
 ! A15   A(1,6,7)              119.9999         estimate D2E/DX2                !
 ! A16   A(5,6,7)              119.9998         estimate D2E/DX2                !
 ! D1    D(6,1,2,3)              0.0            estimate D2E/DX2                !
 ! D2    D(6,1,2,10)           180.0            estimate D2E/DX2                !
 ! D3    D(2,1,6,5)              0.0            estimate D2E/DX2                !
 ! D4    D(2,1,6,7)            180.0            estimate D2E/DX2                !
 ! D5    D(1,2,3,4)              0.0            estimate D2E/DX2                !
 ! D6    D(1,2,3,11)           180.0            estimate D2E/DX2                !
 ! D7    D(10,2,3,4)           180.0            estimate D2E/DX2                !
 ! D8    D(10,2,3,11)            0.0            estimate D2E/DX2                !
 ! D9    D(2,3,4,5)              0.0            estimate D2E/DX2                !
 ! D10   D(2,3,4,8)            180.0            estimate D2E/DX2                !
 ! D11   D(11,3,4,5)           180.0            estimate D2E/DX2                !
 ! D12   D(11,3,4,8)             0.0            estimate D2E/DX2                !
 ! D13   D(3,4,5,6)              0.0            estimate D2E/DX2                !
 ! D14   D(3,4,5,9)            180.0            estimate D2E/DX2                !
 ! D15   D(8,4,5,6)            180.0            estimate D2E/DX2                !
 ! D16   D(8,4,5,9)              0.0            estimate D2E/DX2                !
 ! D17   D(4,5,6,1)              0.0            estimate D2E/DX2                !
 ! D18   D(4,5,6,7)            180.0            estimate D2E/DX2                !
 ! D19   D(9,5,6,1)            180.0            estimate D2E/DX2                !
 ! D20   D(9,5,6,7)              0.0            estimate D2E/DX2                !
 --------------------------------------------------------------------------------
 Trust Radius=3.00D-01 FncErr=1.00D-07 GrdErr=1.00D-07 EigMax=2.50D+02 EigMin=1.00D-04
 Number of steps in this run=     57 maximum allowed number of steps=    100.
 GradGradGradGradGradGradGradGradGradGradGradGradGradGradGradGradGradGrad

                          Input orientation:                          
 ---------------------------------------------------------------------
 Center     Atomic      Atomic             Coordinates (Angstroms)
 Number     Number       Type             X           Y           Z
 ---------------------------------------------------------------------
      1          6           0       -3.209280    0.199430    0.000000
      2          6           0       -2.011500    0.935550    0.000000
      3          6           0       -0.775110    0.266300    0.000000
      4          6           0       -0.736500   -1.139070    0.000000
      5          6           0       -1.934290   -1.875190    0.000000
      6          6           0       -3.170670   -1.205940    0.000000
      7         17           0       -4.674830   -2.130350    0.000000
      8         17           0        0.816140   -1.979510    0.000000
      9         17           0       -1.885800   -3.640030    0.000000
     10         17           0       -2.059980    2.700400    0.000000
     11         17           0        0.729050    1.190710    0.000000
 ---------------------------------------------------------------------
                    Distance matrix (angstroms):
                    1          2          3          4          5
     1  C    0.000000
     2  C    1.405898   0.000000
     3  C    2.435088   1.405900   0.000000
     4  C    2.811801   2.435092   1.405900   0.000000
     5  C    2.435087   2.811800   2.435093   1.405907   0.000000
     6  C    1.405900   2.435088   2.811796   2.435088   1.405892
     7  Cl   2.752401   4.061166   4.577308   4.061167   2.752393
     8  Cl   4.577312   4.061173   2.752406   1.765511   2.752408
     9  Cl   4.061164   4.577306   4.061163   2.752397   1.765506
    10  Cl   2.752406   1.765516   2.752405   4.061173   4.577316
    11  Cl   4.061167   2.752403   1.765512   2.752401   4.061173
                    6          7          8          9         10
     6  C    0.000000
     7  Cl   1.765512   0.000000
     8  Cl   4.061165   5.493041   0.000000
     9  Cl   2.752396   3.171407   3.171404   0.000000
    10  Cl   4.061173   5.493049   5.493052   6.342822   0.000000
    11  Cl   4.577308   6.342819   3.171416   5.493040   3.171412
                   11
    11  Cl   0.000000
 Stoichiometry    C6Cl5(1-)
 Framework group  CS[SG(C6Cl5)]
 Deg. of freedom    19
 Full point group                 CS      NOp   2
 Largest Abelian subgroup         CS      NOp   2
 Largest concise Abelian subgroup C1      NOp   1
                         Standard orientation:                         
 ---------------------------------------------------------------------
 Center     Atomic      Atomic             Coordinates (Angstroms)
 Number     Number       Type             X           Y           Z
 ---------------------------------------------------------------------
      1          6           0        1.847515    0.120950    0.000000
      2          6           0        1.225606   -1.139915    0.000000
      3          6           0       -0.177292   -1.231757    0.000000
      4          6           0       -0.958280   -0.062734    0.000000
      5          6           0       -0.336362    1.198135    0.000000
      6          6           0        1.066526    1.289972    0.000000
      7         17           0        1.847515    2.873351    0.000000
      8         17           0       -2.720020   -0.178063    0.000000
      9         17           0       -1.317118    2.666171    0.000000
     10         17           0        2.206358   -2.607965    0.000000
     11         17           0       -0.958280   -2.815136    0.000000
 ---------------------------------------------------------------------
 Rotational constants (GHZ):           0.6973111           0.4487113           0.2730238
 Standard basis: VSTO-6G (5D, 7F)
 There are    33 symmetry adapted cartesian basis functions of A'  symmetry.
 There are    11 symmetry adapted cartesian basis functions of A"  symmetry.
 There are    33 symmetry adapted basis functions of A'  symmetry.
 There are    11 symmetry adapted basis functions of A"  symmetry.
    44 basis functions,   264 primitive gaussians,    44 cartesian basis functions
    30 alpha electrons       30 beta electrons
       nuclear repulsion energy       349.2653750185 Hartrees.
 Integral buffers will be    131072 words long.
 Regular integral format.
 Two-electron integral symmetry is turned off.
 Do NDO integrals.
 One-electron integrals computed using PRISM.
 NBasis=    44 RedAO= T EigKep=  1.00D+00  NBF=    33    11
 NBsUse=    44 1.00D-06 EigRej= -1.00D+00 NBFU=    33    11
 Simple Huckel Guess.
 Initial guess orbital symmetries:
       Occupied  (A') (A') (A') (A') (A') (A') (A') (A') (A') (A')
                 (A') (A") (A') (A') (A") (A') (A') (A") (A') (A")
                 (A") (A') (A') (A') (A") (A') (A') (A") (A") (A')
       Virtual   (A") (A") (A") (A') (A') (A') (A') (A') (A') (A')
                 (A') (A') (A') (A')
 The electronic state of the initial guess is 1-A'.
 Keep J ints in memory in canonical form, NReq=865421.
 Overlap will be assumed to be unity.
 Requested convergence on RMS density matrix=1.00D-08 within**** cycles.
 Requested convergence on MAX density matrix=1.00D-06.
 Requested convergence on             energy=1.00D-06.
 No special actions if energy rises.
 Fock symm off for IB=2 I1=    1 I=   34 J=   33 Cut=1.00D-07 Err=9.61D-03
 Fock matrix is not symmetric: symmetry in diagonalization turned off.
 SCF Done:  E(RAM1) =  0.625837049790E-02 A.U. after   15 cycles
            NFock= 14  Conv=0.93D-08     -V/T= 1.0000

 **********************************************************************

            Population analysis using the SCF Density.

 **********************************************************************

 Orbital symmetries:
       Occupied  (A') (A') (A') (A') (A') (A') (A') (A') (A') (A')
                 (A') (A') (A') (A') (A") (A') (A") (A') (A") (A")
                 (A") (A') (A') (A') (A') (A') (A") (A") (A") (A')
       Virtual   (A") (A') (A") (A') (A') (A') (A') (A") (A') (A')
                 (A') (A') (A') (A')
 The electronic state is 1-A'.
 Alpha  occ. eigenvalues --   -1.30054  -1.24843  -1.24262  -1.22973  -1.22327
 Alpha  occ. eigenvalues --   -1.19879  -0.98613  -0.96170  -0.71384  -0.69846
 Alpha  occ. eigenvalues --   -0.53133  -0.48334  -0.47437  -0.43239  -0.42247
 Alpha  occ. eigenvalues --   -0.40059  -0.36425  -0.35627  -0.34815  -0.33014
 Alpha  occ. eigenvalues --   -0.32555  -0.32510  -0.31820  -0.30651  -0.29825
 Alpha  occ. eigenvalues --   -0.28439  -0.27816  -0.20613  -0.19048  -0.14689
 Alpha virt. eigenvalues --    0.13718   0.14922   0.15251   0.16389   0.16999
 Alpha virt. eigenvalues --    0.19258   0.20126   0.24972   0.28978   0.29019
 Alpha virt. eigenvalues --    0.30499   0.31216   0.34482   0.36930
          Condensed to atoms (all electrons):
               1          2          3          4          5          6
     1  C    4.314215   0.000000   0.000000   0.000000   0.000000   0.000000
     2  C    0.000000   4.041535   0.000000   0.000000   0.000000   0.000000
     3  C    0.000000   0.000000   4.033090   0.000000   0.000000   0.000000
     4  C    0.000000   0.000000   0.000000   4.109131   0.000000   0.000000
     5  C    0.000000   0.000000   0.000000   0.000000   4.033094   0.000000
     6  C    0.000000   0.000000   0.000000   0.000000   0.000000   4.041531
     7  Cl   0.000000   0.000000   0.000000   0.000000   0.000000   0.000000
     8  Cl   0.000000   0.000000   0.000000   0.000000   0.000000   0.000000
     9  Cl   0.000000   0.000000   0.000000   0.000000   0.000000   0.000000
    10  Cl   0.000000   0.000000   0.000000   0.000000   0.000000   0.000000
    11  Cl   0.000000   0.000000   0.000000   0.000000   0.000000   0.000000
               7          8          9         10         11
     1  C    0.000000   0.000000   0.000000   0.000000   0.000000
     2  C    0.000000   0.000000   0.000000   0.000000   0.000000
     3  C    0.000000   0.000000   0.000000   0.000000   0.000000
     4  C    0.000000   0.000000   0.000000   0.000000   0.000000
     5  C    0.000000   0.000000   0.000000   0.000000   0.000000
     6  C    0.000000   0.000000   0.000000   0.000000   0.000000
     7  Cl   7.090257   0.000000   0.000000   0.000000   0.000000
     8  Cl   0.000000   7.071395   0.000000   0.000000   0.000000
     9  Cl   0.000000   0.000000   7.087746   0.000000   0.000000
    10  Cl   0.000000   0.000000   0.000000   7.090258   0.000000
    11  Cl   0.000000   0.000000   0.000000   0.000000   7.087749
 Mulliken charges:
               1
     1  C   -0.314215
     2  C   -0.041535
     3  C   -0.033090
     4  C   -0.109131
     5  C   -0.033094
     6  C   -0.041531
     7  Cl  -0.090257
     8  Cl  -0.071395
     9  Cl  -0.087746
    10  Cl  -0.090258
    11  Cl  -0.087749
 Sum of Mulliken charges =  -1.00000
 Mulliken charges with hydrogens summed into heavy atoms:
               1
     1  C   -0.314215
     2  C   -0.041535
     3  C   -0.033090
     4  C   -0.109131
     5  C   -0.033094
     6  C   -0.041531
     7  Cl  -0.090257
     8  Cl  -0.071395
     9  Cl  -0.087746
    10  Cl  -0.090258
    11  Cl  -0.087749
 Charge=             -1.0000 electrons
 Dipole moment (field-independent basis, Debye):
    X=             -4.5689    Y=             -0.2991    Z=              0.0000  Tot=              4.5787
 N-N= 3.492653750185D+02 E-N=-5.056585783632D+02  KE=-1.576067538593D+02
 Symmetry A'   KE=-1.203412819135D+02
 Symmetry A"   KE=-3.726547194584D+01
 Calling FoFJK, ICntrl=      2127 FMM=F ISym2X=1 I1Cent= 0 IOpClX= 0 NMat=1 NMatS=1 NMatT=0.
 ***** Axes restored to original set *****
 -------------------------------------------------------------------
 Center     Atomic                   Forces (Hartrees/Bohr)
 Number     Number              X              Y              Z
 -------------------------------------------------------------------
      1        6           0.009720757   -0.005260554   -0.000000000
      2        6          -0.012538922   -0.006991399    0.000000000
      3        6           0.014754334    0.015585384    0.000000000
      4        6           0.015575919   -0.008433958    0.000000000
      5        6          -0.004972252   -0.020874121   -0.000000000
      6        6          -0.001007471    0.014324100   -0.000000000
      7       17           0.025892932    0.017189114   -0.000000000
      8       17          -0.027111762    0.014675756   -0.000000000
      9       17           0.001759245    0.027230599   -0.000000000
     10       17          -0.000233537   -0.031080850   -0.000000000
     11       17          -0.021839242   -0.016364072   -0.000000000
 -------------------------------------------------------------------
 Cartesian Forces:  Max     0.031080850 RMS     0.013641512

 GradGradGradGradGradGradGradGradGradGradGradGradGradGradGradGradGradGrad
 Berny optimization.
 FormGI is forming the generalized inverse of G from B-inverse, IUseBI=4.
 Internal  Forces:  Max     0.031062717 RMS     0.012523365
 Search for a local minimum.
 Step number   1 out of a maximum of   57
 All quantities printed in internal units (Hartrees-Bohrs-Radians)
 Mixed Optimization -- RFO/linear search
 Second derivative matrix not updated -- first step.
 ITU=  0
     Eigenvalues ---    0.02011   0.02011   0.02011   0.02011   0.02011
     Eigenvalues ---    0.02011   0.02011   0.02011   0.25000   0.25000
     Eigenvalues ---    0.25000   0.25000   0.25000   0.25000   0.25000
     Eigenvalues ---    0.25000   0.29033   0.29033   0.29033   0.29033
     Eigenvalues ---    0.29034   0.41212   0.41599   0.44656   0.44657
     Eigenvalues ---    0.44657   0.44657
 RFO step:  Lambda=-2.13179147D-02 EMin= 2.01065791D-02
 Linear search not attempted -- first point.
 Iteration  1 RMS(Cart)=  0.05167623 RMS(Int)=  0.00028724
 Iteration  2 RMS(Cart)=  0.00033247 RMS(Int)=  0.00002329
 Iteration  3 RMS(Cart)=  0.00000013 RMS(Int)=  0.00002329
 ClnCor:  largest displacement from symmetrization is 3.17D-11 for atom    11.
 Variable       Old X    -DE/DX   Delta X   Delta X   Delta X     New X
                                 (Linear)    (Quad)   (Total)
    R1        2.65676  -0.02888   0.00000  -0.06276  -0.06273   2.59403
    R2        2.65677  -0.02888   0.00000  -0.06276  -0.06273   2.59404
    R3        2.65677  -0.01242   0.00000  -0.02654  -0.02654   2.63023
    R4        3.33634  -0.03106   0.00000  -0.09967  -0.09967   3.23667
    R5        2.65677  -0.01494   0.00000  -0.03089  -0.03092   2.62585
    R6        3.33633  -0.02717   0.00000  -0.08719  -0.08719   3.24914
    R7        2.65678  -0.01494   0.00000  -0.03089  -0.03093   2.62585
    R8        3.33633  -0.03083   0.00000  -0.09892  -0.09892   3.23741
    R9        2.65675  -0.01241   0.00000  -0.02652  -0.02652   2.63023
   R10        3.33632  -0.02717   0.00000  -0.08719  -0.08719   3.24914
   R11        3.33633  -0.03106   0.00000  -0.09966  -0.09966   3.23667
    A1        2.09439  -0.00941   0.00000  -0.03976  -0.03967   2.05472
    A2        2.09439   0.01075   0.00000   0.03806   0.03808   2.13248
    A3        2.09440  -0.00719   0.00000  -0.02571  -0.02572   2.06867
    A4        2.09439  -0.00356   0.00000  -0.01235  -0.01236   2.08203
    A5        2.09440  -0.00434   0.00000  -0.01386  -0.01390   2.08050
    A6        2.09440   0.00635   0.00000   0.02234   0.02236   2.11676
    A7        2.09439  -0.00201   0.00000  -0.00848  -0.00846   2.08593
    A8        2.09439  -0.00341   0.00000  -0.00863  -0.00869   2.08570
    A9        2.09440   0.00171   0.00000   0.00431   0.00435   2.09875
   A10        2.09440   0.00171   0.00000   0.00431   0.00435   2.09874
   A11        2.09439  -0.00434   0.00000  -0.01386  -0.01390   2.08050
   A12        2.09439  -0.00201   0.00000  -0.00848  -0.00846   2.08593
   A13        2.09440   0.00635   0.00000   0.02234   0.02236   2.11676
   A14        2.09440   0.01075   0.00000   0.03805   0.03808   2.13248
   A15        2.09439  -0.00719   0.00000  -0.02571  -0.02572   2.06867
   A16        2.09439  -0.00356   0.00000  -0.01234  -0.01235   2.08204
    D1        0.00000   0.00000   0.00000   0.00000   0.00000   0.00000
    D2        3.14159  -0.00000   0.00000  -0.00000   0.00000   3.14159
    D3        0.00000  -0.00000   0.00000  -0.00000   0.00000   0.00000
    D4        3.14159   0.00000   0.00000   0.00000   0.00000   3.14159
    D5        0.00000  -0.00000   0.00000  -0.00000   0.00000   0.00000
    D6        3.14159  -0.00000   0.00000  -0.00000   0.00000   3.14159
    D7        3.14159   0.00000   0.00000   0.00000   0.00000   3.14159
    D8        0.00000   0.00000   0.00000   0.00000   0.00000   0.00000
    D9        0.00000   0.00000   0.00000   0.00000   0.00000   0.00000
   D10        3.14159  -0.00000   0.00000  -0.00000   0.00000   3.14159
   D11        3.14159   0.00000   0.00000   0.00000   0.00000   3.14159
   D12        0.00000   0.00000   0.00000   0.00000   0.00000   0.00000
   D13        0.00000   0.00000   0.00000   0.00000   0.00000   0.00000
   D14        3.14159  -0.00000   0.00000  -0.00000   0.00000   3.14159
   D15        3.14159   0.00000   0.00000   0.00000   0.00000   3.14159
   D16        0.00000   0.00000   0.00000   0.00000   0.00000   0.00000
   D17        0.00000  -0.00000   0.00000  -0.00000   0.00000   0.00000
   D18        3.14159  -0.00000   0.00000  -0.00000   0.00000   3.14159
   D19        3.14159   0.00000   0.00000   0.00000   0.00000   3.14159
   D20        0.00000  -0.00000   0.00000  -0.00000   0.00000   0.00000
         Item               Value     Threshold  Converged?
 Maximum Force            0.031063     0.000450     NO 
 RMS     Force            0.012523     0.000300     NO 
 Maximum Displacement     0.183217     0.001800     NO 
 RMS     Displacement     0.051682     0.001200     NO 
 Predicted change in Energy=-1.133932D-02
 GradGradGradGradGradGradGradGradGradGradGradGradGradGradGradGradGradGrad

                          Input orientation:                          
 ---------------------------------------------------------------------
 Center     Atomic      Atomic             Coordinates (Angstroms)
 Number     Number       Type             X           Y           Z
 ---------------------------------------------------------------------
      1          6           0       -3.203362    0.196228    0.000000
      2          6           0       -2.019837    0.891627    0.000000
      3          6           0       -0.783913    0.251504    0.000000
      4          6           0       -0.739713   -1.137331    0.000000
      5          6           0       -1.926711   -1.859730    0.000000
      6          6           0       -3.138457   -1.174942    0.000000
      7         17           0       -4.602941   -2.063128    0.000000
      8         17           0        0.766894   -1.952849    0.000000
      9         17           0       -1.872415   -3.578242    0.000000
     10         17           0       -2.076946    2.603446    0.000000
     11         17           0        0.684629    1.145718    0.000000
 ---------------------------------------------------------------------
                    Distance matrix (angstroms):
                    1          2          3          4          5
     1  C    0.000000
     2  C    1.372703   0.000000
     3  C    2.420081   1.391857   0.000000
     4  C    2.801420   2.399039   1.389538   0.000000
     5  C    2.420084   2.752933   2.400687   1.389541   0.000000
     6  C    1.372705   2.349897   2.752930   2.399039   1.391856
     7  Cl   2.657727   3.924666   4.465702   3.972610   2.683948
     8  Cl   4.514584   3.982074   2.695213   1.713165   2.695214
     9  Cl   4.002256   4.472300   3.981431   2.690922   1.719369
    10  Cl   2.657727   1.712771   2.683946   3.972607   4.465704
    11  Cl   4.002250   2.716376   1.719370   2.690922   3.981434
                    6          7          8          9         10
     6  C    0.000000
     7  Cl   1.712772   0.000000
     8  Cl   3.982073   5.370967   0.000000
     9  Cl   2.716379   3.122714   3.099654   0.000000
    10  Cl   3.924668   5.306370   5.370963   6.185071   0.000000
    11  Cl   4.472298   6.185070   3.099659   5.371617   3.122701
                   11
    11  Cl   0.000000
 Stoichiometry    C6Cl5(1-)
 Framework group  CS[SG(C6Cl5)]
 Deg. of freedom    19
 Full point group                 CS      NOp   2
 Largest Abelian subgroup         CS      NOp   2
 Largest concise Abelian subgroup C1      NOp   1
                         Standard orientation:                         
 ---------------------------------------------------------------------
 Center     Atomic      Atomic             Coordinates (Angstroms)
 Number     Number       Type             X           Y           Z
 ---------------------------------------------------------------------
      1          6           0        0.000000    1.842120   -0.000000
      2          6           0        1.174948    1.132323   -0.000000
      3          6           0        1.200342   -0.259301   -0.000000
      4          6           0        0.000000   -0.959300    0.000000
      5          6           0       -1.200345   -0.259302    0.000000
      6          6           0       -1.174950    1.132322   -0.000000
      7         17           0       -2.653185    1.997429    0.000000
      8         17           0        0.000000   -2.672464    0.000000
      9         17           0       -2.685808   -1.125115    0.000000
     10         17           0        2.653185    1.997424   -0.000000
     11         17           0        2.685809   -1.125107   -0.000000
 ---------------------------------------------------------------------
 Rotational constants (GHZ):           0.7204678           0.4747433           0.2861731
 Standard basis: VSTO-6G (5D, 7F)
 There are    33 symmetry adapted cartesian basis functions of A'  symmetry.
 There are    11 symmetry adapted cartesian basis functions of A"  symmetry.
 There are    33 symmetry adapted basis functions of A'  symmetry.
 There are    11 symmetry adapted basis functions of A"  symmetry.
    44 basis functions,   264 primitive gaussians,    44 cartesian basis functions
    30 alpha electrons       30 beta electrons
       nuclear repulsion energy       354.1618603789 Hartrees.
 Integral buffers will be    131072 words long.
 Regular integral format.
 Two-electron integral symmetry is turned off.
 Do NDO integrals.
 One-electron integrals computed using PRISM.
 NBasis=    44 RedAO= T EigKep=  1.00D+00  NBF=    33    11
 NBsUse=    44 1.00D-06 EigRej= -1.00D+00 NBFU=    33    11
 Initial guess from the checkpoint file:  "geometry_chks/1_3456ClBzAnionIntermediate.chk"
 B after Tr=     0.000000    0.000000   -0.000000
         Rot=    0.729838    0.000000   -0.000000   -0.683621 Ang= -86.25 deg.
 Initial guess orbital symmetries:
       Occupied  (A') (A') (A') (A') (A') (A') (A') (A') (A') (A')
                 (A') (A') (A') (A') (A") (A') (A") (A') (A") (A")
                 (A") (A') (A') (A') (A') (A') (A") (A") (A") (A')
       Virtual   (A") (A') (A") (A') (A') (A') (A') (A") (A') (A')
                 (A') (A') (A') (A')
 Keep J ints in memory in canonical form, NReq=865421.
 Overlap will be assumed to be unity.
 Requested convergence on RMS density matrix=1.00D-08 within**** cycles.
 Requested convergence on MAX density matrix=1.00D-06.
 Requested convergence on             energy=1.00D-06.
 No special actions if energy rises.
 Fock symm off for IB=2 I1=    1 I=   34 J=    4 Cut=1.00D-07 Err=1.86D-03
 Fock matrix is not symmetric: symmetry in diagonalization turned off.
 SCF Done:  E(RAM1) = -0.225063825098E-02 A.U. after   13 cycles
            NFock= 12  Conv=0.66D-08     -V/T= 1.0000
 Calling FoFJK, ICntrl=      2127 FMM=F ISym2X=1 I1Cent= 0 IOpClX= 0 NMat=1 NMatS=1 NMatT=0.
 ***** Axes restored to original set *****
 -------------------------------------------------------------------
 Center     Atomic                   Forces (Hartrees/Bohr)
 Number     Number              X              Y              Z
 -------------------------------------------------------------------
      1        6          -0.010099311    0.005464414    0.000000000
      2        6          -0.000915276    0.017484718    0.000000000
      3        6           0.017356363    0.015165355   -0.000000000
      4        6           0.017958476   -0.009722940    0.000000000
      5        6          -0.003206045   -0.022822020    0.000000000
      6        6          -0.015139970   -0.008792909   -0.000000000
      7       17          -0.003047815   -0.001845145   -0.000000000
      8       17          -0.000613514    0.000332223   -0.000000000
      9       17          -0.000051337    0.002498428   -0.000000000
     10       17          -0.000122150    0.003561536   -0.000000000
     11       17          -0.002119421   -0.001323660   -0.000000000
 -------------------------------------------------------------------
 Cartesian Forces:  Max     0.022822020 RMS     0.008280515

 GradGradGradGradGradGradGradGradGradGradGradGradGradGradGradGradGradGrad
 Berny optimization.
 Using GEDIIS/GDIIS optimizer.
 FormGI is forming the generalized inverse of G from B-inverse, IUseBI=4.
 Internal  Forces:  Max     0.022328083 RMS     0.006990189
 Search for a local minimum.
 Step number   2 out of a maximum of   57
 All quantities printed in internal units (Hartrees-Bohrs-Radians)
 Mixed Optimization -- RFO/linear search
 Update second derivatives using D2CorX and points    1    2
 DE= -8.51D-03 DEPred=-1.13D-02 R= 7.50D-01
 TightC=F SS=  1.41D+00  RLast= 2.53D-01 DXNew= 5.0454D-01 7.5772D-01
 Trust test= 7.50D-01 RLast= 2.53D-01 DXMaxT set to 5.05D-01
 ITU=  1  0
 Use linear search instead of GDIIS.
     Eigenvalues ---    0.02011   0.02011   0.02011   0.02011   0.02011
     Eigenvalues ---    0.02011   0.02011   0.02011   0.23527   0.25000
     Eigenvalues ---    0.25000   0.25000   0.25000   0.25000   0.25000
     Eigenvalues ---    0.25458   0.25554   0.29033   0.29033   0.29034
     Eigenvalues ---    0.29280   0.41028   0.41189   0.44603   0.44656
     Eigenvalues ---    0.44657   0.70688
 RFO step:  Lambda=-2.67697308D-03 EMin= 2.01065813D-02
 Quartic linear search produced a step of -0.18151.
 Iteration  1 RMS(Cart)=  0.01299970 RMS(Int)=  0.00003517
 Iteration  2 RMS(Cart)=  0.00003827 RMS(Int)=  0.00000783
 Iteration  3 RMS(Cart)=  0.00000000 RMS(Int)=  0.00000783
 ClnCor:  largest displacement from symmetrization is 1.28D-11 for atom    10.
 Variable       Old X    -DE/DX   Delta X   Delta X   Delta X     New X
                                 (Linear)    (Quad)   (Total)
    R1        2.59403   0.01782   0.01139   0.01189   0.02326   2.61729
    R2        2.59404   0.01781   0.01139   0.01188   0.02326   2.61729
    R3        2.63023   0.01666   0.00482   0.02174   0.02656   2.65679
    R4        3.23667   0.00356   0.01809  -0.02335  -0.00526   3.23141
    R5        2.62585   0.02233   0.00561   0.03097   0.03659   2.66244
    R6        3.24914  -0.00250   0.01583  -0.03610  -0.02027   3.22887
    R7        2.62585   0.02233   0.00561   0.03097   0.03659   2.66244
    R8        3.23741  -0.00070   0.01796  -0.03499  -0.01703   3.22038
    R9        2.63023   0.01666   0.00481   0.02175   0.02656   2.65679
   R10        3.24914  -0.00250   0.01582  -0.03609  -0.02027   3.22887
   R11        3.23667   0.00356   0.01809  -0.02335  -0.00526   3.23141
    A1        2.05472   0.00624   0.00720   0.00516   0.01233   2.06705
    A2        2.13248  -0.00286  -0.00691   0.00322  -0.00370   2.12878
    A3        2.06867   0.00142   0.00467  -0.00390   0.00078   2.06945
    A4        2.08203   0.00143   0.00224   0.00068   0.00292   2.08496
    A5        2.08050  -0.00112   0.00252  -0.00770  -0.00517   2.07533
    A6        2.11676   0.00061  -0.00406   0.00923   0.00516   2.12192
    A7        2.08593   0.00051   0.00154  -0.00153   0.00000   2.08593
    A8        2.08570   0.00172   0.00158   0.00381   0.00541   2.09110
    A9        2.09875  -0.00086  -0.00079  -0.00190  -0.00270   2.09604
   A10        2.09874  -0.00086  -0.00079  -0.00190  -0.00270   2.09604
   A11        2.08050  -0.00112   0.00252  -0.00770  -0.00516   2.07533
   A12        2.08593   0.00052   0.00154  -0.00153   0.00000   2.08593
   A13        2.11676   0.00060  -0.00406   0.00922   0.00516   2.12192
   A14        2.13248  -0.00286  -0.00691   0.00322  -0.00370   2.12878
   A15        2.06867   0.00142   0.00467  -0.00389   0.00078   2.06945
   A16        2.08204   0.00143   0.00224   0.00067   0.00292   2.08496
    D1       -0.00000  -0.00000   0.00000  -0.00000   0.00000   0.00000
    D2        3.14159  -0.00000   0.00000  -0.00000   0.00000   3.14159
    D3       -0.00000   0.00000   0.00000   0.00000   0.00000   0.00000
    D4        3.14159   0.00000   0.00000   0.00000   0.00000   3.14159
    D5        0.00000  -0.00000   0.00000  -0.00000   0.00000   0.00000
    D6        3.14159  -0.00000   0.00000  -0.00000   0.00000   3.14159
    D7        3.14159   0.00000   0.00000   0.00000   0.00000   3.14159
    D8       -0.00000   0.00000   0.00000   0.00000   0.00000   0.00000
    D9       -0.00000   0.00000   0.00000   0.00000   0.00000   0.00000
   D10        3.14159  -0.00000   0.00000  -0.00000   0.00000   3.14159
   D11        3.14159   0.00000   0.00000   0.00000   0.00000   3.14159
   D12        0.00000   0.00000   0.00000   0.00000  -0.00000   0.00000
   D13        0.00000  -0.00000   0.00000  -0.00000   0.00000   0.00000
   D14        3.14159  -0.00000   0.00000  -0.00000   0.00000   3.14159
   D15        3.14159   0.00000   0.00000   0.00000   0.00000   3.14159
   D16       -0.00000   0.00000   0.00000   0.00000   0.00000   0.00000
   D17        0.00000  -0.00000   0.00000  -0.00000   0.00000   0.00000
   D18        3.14159  -0.00000   0.00000  -0.00000   0.00000   3.14159
   D19        3.14159   0.00000   0.00000   0.00000   0.00000   3.14159
   D20       -0.00000   0.00000   0.00000   0.00000   0.00000   0.00000
         Item               Value     Threshold  Converged?
 Maximum Force            0.022328     0.000450     NO 
 RMS     Force            0.006990     0.000300     NO 
 Maximum Displacement     0.037597     0.001800     NO 
 RMS     Displacement     0.012994     0.001200     NO 
 Predicted change in Energy=-1.793482D-03
 GradGradGradGradGradGradGradGradGradGradGradGradGradGradGradGradGradGrad

                          Input orientation:                          
 ---------------------------------------------------------------------
 Center     Atomic      Atomic             Coordinates (Angstroms)
 Number     Number       Type             X           Y           Z
 ---------------------------------------------------------------------
      1          6           0       -3.208350    0.198927   -0.000000
      2          6           0       -2.018558    0.907908   -0.000000
      3          6           0       -0.768566    0.264396   -0.000000
      4          6           0       -0.727559   -1.143910    0.000000
      5          6           0       -1.929113   -1.879626    0.000000
      6          6           0       -3.151389   -1.184914    0.000000
      7         17           0       -4.618243   -2.063775    0.000000
      8         17           0        0.771120   -1.955136    0.000000
      9         17           0       -1.870545   -3.587266    0.000000
     10         17           0       -2.084777    2.616613   -0.000000
     11         17           0        0.693211    1.149082   -0.000000
 ---------------------------------------------------------------------
                    Distance matrix (angstroms):
                    1          2          3          4          5
     1  C    0.000000
     2  C    1.385012   0.000000
     3  C    2.440662   1.405912   0.000000
     4  C    2.820910   2.424177   1.408902   0.000000
     5  C    2.440662   2.788969   2.437970   1.408904   0.000000
     6  C    1.385013   2.379750   2.788968   2.424177   1.405911
     7  Cl   2.666012   3.948324   4.498932   3.997946   2.695428
     8  Cl   4.525060   3.997415   2.701288   1.704150   2.701289
     9  Cl   4.015592   4.497610   4.006202   2.697481   1.708643
    10  Cl   2.666012   1.709987   2.695428   3.997946   4.498933
    11  Cl   4.015591   2.722473   1.708644   2.697480   4.006202
                    6          7          8          9         10
     6  C    0.000000
     7  Cl   1.709988   0.000000
     8  Cl   3.997414   5.390458   0.000000
     9  Cl   2.722472   3.141793   3.105196   0.000000
    10  Cl   3.948324   5.322075   5.390458   6.207576   0.000000
    11  Cl   4.497609   6.207576   3.105196   5.385707   3.141793
                   11
    11  Cl   0.000000
 Stoichiometry    C6Cl5(1-)
 Framework group  CS[SG(C6Cl5)]
 Deg. of freedom    19
 Full point group                 CS      NOp   2
 Largest Abelian subgroup         CS      NOp   2
 Largest concise Abelian subgroup C1      NOp   1
                         Standard orientation:                         
 ---------------------------------------------------------------------
 Center     Atomic      Atomic             Coordinates (Angstroms)
 Number     Number       Type             X           Y           Z
 ---------------------------------------------------------------------
      1          6           0       -1.846917   -0.000000    0.000000
      2          6           0       -1.138076    1.189875   -0.000000
      3          6           0        0.267535    1.218985   -0.000000
      4          6           0        0.973993    0.000000   -0.000000
      5          6           0        0.267535   -1.218985    0.000000
      6          6           0       -1.138075   -1.189875    0.000000
      7         17           0       -2.009704   -2.661038    0.000000
      8         17           0        2.678143    0.000000   -0.000000
      9         17           0        1.131928   -2.692853    0.000000
     10         17           0       -2.009704    2.661038   -0.000000
     11         17           0        1.131927    2.692853   -0.000000
 ---------------------------------------------------------------------
 Rotational constants (GHZ):           0.7138022           0.4714228           0.2839145
 Standard basis: VSTO-6G (5D, 7F)
 There are    33 symmetry adapted cartesian basis functions of A'  symmetry.
 There are    11 symmetry adapted cartesian basis functions of A"  symmetry.
 There are    33 symmetry adapted basis functions of A'  symmetry.
 There are    11 symmetry adapted basis functions of A"  symmetry.
    44 basis functions,   264 primitive gaussians,    44 cartesian basis functions
    30 alpha electrons       30 beta electrons
       nuclear repulsion energy       353.2085683251 Hartrees.
 Integral buffers will be    131072 words long.
 Regular integral format.
 Two-electron integral symmetry is turned off.
 Do NDO integrals.
 One-electron integrals computed using PRISM.
 NBasis=    44 RedAO= T EigKep=  1.00D+00  NBF=    33    11
 NBsUse=    44 1.00D-06 EigRej= -1.00D+00 NBFU=    33    11
 Initial guess from the checkpoint file:  "geometry_chks/1_3456ClBzAnionIntermediate.chk"
 B after Tr=     0.000000    0.000000    0.000000
         Rot=    0.707107   -0.000000    0.000000   -0.707107 Ang= -90.00 deg.
 Initial guess orbital symmetries:
       Occupied  (A') (A') (A') (A') (A') (A') (A') (A') (A') (A')
                 (A') (A') (A') (A') (A") (A') (A") (A') (A") (A")
                 (A") (A') (A') (A') (A') (A') (A") (A") (A") (A')
       Virtual   (A") (A") (A') (A') (A') (A') (A') (A") (A') (A')
                 (A') (A') (A') (A')
 Keep J ints in memory in canonical form, NReq=865421.
 Overlap will be assumed to be unity.
 Requested convergence on RMS density matrix=1.00D-08 within**** cycles.
 Requested convergence on MAX density matrix=1.00D-06.
 Requested convergence on             energy=1.00D-06.
 No special actions if energy rises.
 Fock symm off for IB=2 I1=    1 I=   34 J=   13 Cut=1.00D-07 Err=6.42D-04
 Fock matrix is not symmetric: symmetry in diagonalization turned off.
 SCF Done:  E(RAM1) = -0.367703988093E-02 A.U. after   13 cycles
            NFock= 12  Conv=0.23D-08     -V/T= 1.0000
 Calling FoFJK, ICntrl=      2127 FMM=F ISym2X=1 I1Cent= 0 IOpClX= 0 NMat=1 NMatS=1 NMatT=0.
 ***** Axes restored to original set *****
 -------------------------------------------------------------------
 Center     Atomic                   Forces (Hartrees/Bohr)
 Number     Number              X              Y              Z
 -------------------------------------------------------------------
      1        6           0.001864373   -0.001009455   -0.000000000
      2        6           0.002042533   -0.003803906    0.000000000
      3        6          -0.003632461   -0.003399786    0.000000000
      4        6          -0.006210980    0.003361215    0.000000000
      5        6           0.000861429    0.004900493    0.000000000
      6        6           0.004300870    0.000370274    0.000000000
      7       17          -0.001872510   -0.001606718   -0.000000000
      8       17           0.001972465   -0.001067700   -0.000000000
      9       17          -0.000156903   -0.000711386   -0.000000000
     10       17           0.000321329    0.002446559   -0.000000000
     11       17           0.000509854    0.000520410   -0.000000000
 -------------------------------------------------------------------
 Cartesian Forces:  Max     0.006210980 RMS     0.002197962

 GradGradGradGradGradGradGradGradGradGradGradGradGradGradGradGradGradGrad
 Berny optimization.
 Using GEDIIS/GDIIS optimizer.
 FormGI is forming the generalized inverse of G from B-inverse, IUseBI=4.
 Internal  Forces:  Max     0.004219094 RMS     0.001379819
 Search for a local minimum.
 Step number   3 out of a maximum of   57
 All quantities printed in internal units (Hartrees-Bohrs-Radians)
 Mixed Optimization -- RFO/linear search
 Update second derivatives using D2CorX and points    1    2    3
 DE= -1.43D-03 DEPred=-1.79D-03 R= 7.95D-01
 TightC=F SS=  1.41D+00  RLast= 8.18D-02 DXNew= 8.4853D-01 2.4531D-01
 Trust test= 7.95D-01 RLast= 8.18D-02 DXMaxT set to 5.05D-01
 ITU=  1  1  0
 Use linear search instead of GDIIS.
     Eigenvalues ---    0.02011   0.02011   0.02011   0.02011   0.02011
     Eigenvalues ---    0.02011   0.02011   0.02011   0.24132   0.25000
     Eigenvalues ---    0.25000   0.25000   0.25000   0.25000   0.25065
     Eigenvalues ---    0.25369   0.26504   0.29033   0.29034   0.29047
     Eigenvalues ---    0.30171   0.41125   0.41906   0.44656   0.44657
     Eigenvalues ---    0.44866   0.78924
 RFO step:  Lambda=-9.39442513D-05 EMin= 2.01065814D-02
 Quartic linear search produced a step of -0.16023.
 Iteration  1 RMS(Cart)=  0.00369741 RMS(Int)=  0.00000476
 Iteration  2 RMS(Cart)=  0.00000844 RMS(Int)=  0.00000052
 Iteration  3 RMS(Cart)=  0.00000000 RMS(Int)=  0.00000052
 ClnCor:  largest displacement from symmetrization is 1.55D-11 for atom     7.
 Variable       Old X    -DE/DX   Delta X   Delta X   Delta X     New X
                                 (Linear)    (Quad)   (Total)
    R1        2.61729  -0.00106  -0.00373   0.00334  -0.00039   2.61690
    R2        2.61729  -0.00107  -0.00373   0.00334  -0.00039   2.61691
    R3        2.65679  -0.00380  -0.00426  -0.00205  -0.00631   2.65048
    R4        3.23141   0.00243   0.00084   0.00835   0.00919   3.24060
    R5        2.66244  -0.00422  -0.00586  -0.00140  -0.00726   2.65518
    R6        3.22887   0.00071   0.00325   0.00118   0.00442   3.23329
    R7        2.66244  -0.00422  -0.00586  -0.00140  -0.00726   2.65518
    R8        3.22038   0.00224   0.00273   0.00610   0.00883   3.22921
    R9        2.65679  -0.00379  -0.00426  -0.00205  -0.00631   2.65048
   R10        3.22887   0.00071   0.00325   0.00118   0.00442   3.23329
   R11        3.23141   0.00243   0.00084   0.00835   0.00919   3.24060
    A1        2.06705  -0.00014  -0.00198   0.00338   0.00140   2.06845
    A2        2.12878  -0.00069   0.00059  -0.00339  -0.00280   2.12598
    A3        2.06945   0.00102  -0.00012   0.00382   0.00370   2.07315
    A4        2.08496  -0.00032  -0.00047  -0.00043  -0.00090   2.08406
    A5        2.07533   0.00037   0.00083   0.00037   0.00120   2.07653
    A6        2.12192  -0.00048  -0.00083  -0.00113  -0.00196   2.11996
    A7        2.08593   0.00011  -0.00000   0.00076   0.00076   2.08669
    A8        2.09110   0.00078  -0.00087   0.00267   0.00180   2.09291
    A9        2.09604  -0.00039   0.00043  -0.00133  -0.00090   2.09514
   A10        2.09604  -0.00039   0.00043  -0.00133  -0.00090   2.09514
   A11        2.07533   0.00038   0.00083   0.00037   0.00120   2.07653
   A12        2.08593   0.00011  -0.00000   0.00076   0.00076   2.08669
   A13        2.12192  -0.00048  -0.00083  -0.00113  -0.00196   2.11996
   A14        2.12878  -0.00069   0.00059  -0.00339  -0.00280   2.12598
   A15        2.06945   0.00102  -0.00013   0.00383   0.00370   2.07315
   A16        2.08496  -0.00032  -0.00047  -0.00043  -0.00090   2.08406
    D1       -0.00000   0.00000   0.00000   0.00000   0.00000   0.00000
    D2        3.14159  -0.00000   0.00000  -0.00000   0.00000   3.14159
    D3        0.00000  -0.00000   0.00000   0.00000   0.00000   0.00000
    D4        3.14159   0.00000   0.00000   0.00000   0.00000   3.14159
    D5        0.00000  -0.00000   0.00000  -0.00000  -0.00000   0.00000
    D6        3.14159  -0.00000   0.00000  -0.00000   0.00000   3.14159
    D7        3.14159   0.00000   0.00000   0.00000   0.00000   3.14159
    D8        0.00000   0.00000   0.00000   0.00000   0.00000   0.00000
    D9        0.00000   0.00000   0.00000   0.00000  -0.00000   0.00000
   D10        3.14159  -0.00000   0.00000  -0.00000   0.00000   3.14159
   D11        3.14159   0.00000   0.00000   0.00000   0.00000   3.14159
   D12       -0.00000  -0.00000   0.00000  -0.00000   0.00000   0.00000
   D13        0.00000   0.00000   0.00000  -0.00000   0.00000   0.00000
   D14        3.14159  -0.00000   0.00000  -0.00000   0.00000   3.14159
   D15        3.14159   0.00000   0.00000   0.00000   0.00000   3.14159
   D16       -0.00000   0.00000   0.00000   0.00000   0.00000   0.00000
   D17        0.00000  -0.00000   0.00000  -0.00000  -0.00000   0.00000
   D18        3.14159  -0.00000   0.00000  -0.00000   0.00000   3.14159
   D19        3.14159   0.00000   0.00000   0.00000   0.00000   3.14159
   D20        0.00000   0.00000   0.00000   0.00000   0.00000   0.00000
         Item               Value     Threshold  Converged?
 Maximum Force            0.004219     0.000450     NO 
 RMS     Force            0.001380     0.000300     NO 
 Maximum Displacement     0.014682     0.001800     NO 
 RMS     Displacement     0.003702     0.001200     NO 
 Predicted change in Energy=-9.651943D-05
 GradGradGradGradGradGradGradGradGradGradGradGradGradGradGradGradGradGrad

                          Input orientation:                          
 ---------------------------------------------------------------------
 Center     Atomic      Atomic             Coordinates (Angstroms)
 Number     Number       Type             X           Y           Z
 ---------------------------------------------------------------------
      1          6           0       -3.206449    0.197898    0.000000
      2          6           0       -2.017332    0.907609    0.000000
      3          6           0       -0.771656    0.263011    0.000000
      4          6           0       -0.732027   -1.141492    0.000000
      5          6           0       -1.929642   -1.876281   -0.000000
      6          6           0       -3.150468   -1.185777   -0.000000
      7         17           0       -4.618846   -2.071545   -0.000000
      8         17           0        0.770763   -1.954943   -0.000000
      9         17           0       -1.870757   -3.586252   -0.000000
     10         17           0       -2.078601    2.621366    0.000000
     11         17           0        0.692247    1.148707    0.000000
 ---------------------------------------------------------------------
                    Distance matrix (angstroms):
                    1          2          3          4          5
     1  C    0.000000
     2  C    1.384806   0.000000
     3  C    2.435664   1.402575   0.000000
     4  C    2.813669   2.418847   1.405061   0.000000
     5  C    2.435664   2.785271   2.432592   1.405062   0.000000
     6  C    1.384807   2.380391   2.785270   2.418847   1.402574
     7  Cl   2.673057   3.955152   4.500113   3.996544   2.696284
     8  Cl   4.522493   3.995958   2.701551   1.708824   2.701551
     9  Cl   4.012963   4.496251   4.003105   2.696954   1.710984
    10  Cl   2.673058   1.714852   2.696284   3.996544   4.500114
    11  Cl   4.012962   2.720284   1.710985   2.696954   4.003105
                    6          7          8          9         10
     6  C    0.000000
     7  Cl   1.714852   0.000000
     8  Cl   3.995957   5.390870   0.000000
     9  Cl   2.720284   3.137886   3.104641   0.000000
    10  Cl   3.955153   5.336315   5.390871   6.211097   0.000000
    11  Cl   4.496251   6.211097   3.104643   5.384127   3.137885
                   11
    11  Cl   0.000000
 Stoichiometry    C6Cl5(1-)
 Framework group  CS[SG(C6Cl5)]
 Deg. of freedom    19
 Full point group                 CS      NOp   2
 Largest Abelian subgroup         CS      NOp   2
 Largest concise Abelian subgroup C1      NOp   1
                         Standard orientation:                         
 ---------------------------------------------------------------------
 Center     Atomic      Atomic             Coordinates (Angstroms)
 Number     Number       Type             X           Y           Z
 ---------------------------------------------------------------------
      1          6           0       -1.845173   -0.000000    0.000000
      2          6           0       -1.137272    1.190195    0.000000
      3          6           0        0.265059    1.216296    0.000000
      4          6           0        0.968496    0.000000    0.000000
      5          6           0        0.265059   -1.216296    0.000000
      6          6           0       -1.137271   -1.190195    0.000000
      7         17           0       -2.006954   -2.668157    0.000000
      8         17           0        2.677320   -0.000000    0.000000
      9         17           0        1.130842   -2.692063    0.000000
     10         17           0       -2.006954    2.668158    0.000000
     11         17           0        1.130841    2.692064    0.000000
 ---------------------------------------------------------------------
 Rotational constants (GHZ):           0.7151959           0.4704497           0.2837810
 Standard basis: VSTO-6G (5D, 7F)
 There are    33 symmetry adapted cartesian basis functions of A'  symmetry.
 There are    11 symmetry adapted cartesian basis functions of A"  symmetry.
 There are    33 symmetry adapted basis functions of A'  symmetry.
 There are    11 symmetry adapted basis functions of A"  symmetry.
    44 basis functions,   264 primitive gaussians,    44 cartesian basis functions
    30 alpha electrons       30 beta electrons
       nuclear repulsion energy       353.2079417310 Hartrees.
 Integral buffers will be    131072 words long.
 Regular integral format.
 Two-electron integral symmetry is turned off.
 Do NDO integrals.
 One-electron integrals computed using PRISM.
 NBasis=    44 RedAO= T EigKep=  1.00D+00  NBF=    33    11
 NBsUse=    44 1.00D-06 EigRej= -1.00D+00 NBFU=    33    11
 Initial guess from the checkpoint file:  "geometry_chks/1_3456ClBzAnionIntermediate.chk"
 B after Tr=     0.000000   -0.000000   -0.000000
         Rot=    1.000000    0.000000   -0.000000    0.000000 Ang=   0.00 deg.
 Initial guess orbital symmetries:
       Occupied  (A') (A') (A') (A') (A') (A') (A') (A') (A') (A')
                 (A') (A') (A') (A') (A") (A') (A") (A') (A") (A")
                 (A") (A') (A') (A') (A') (A') (A") (A") (A") (A')
       Virtual   (A") (A") (A') (A') (A') (A') (A') (A") (A') (A')
                 (A') (A') (A') (A')
 Keep J ints in memory in canonical form, NReq=865421.
 Overlap will be assumed to be unity.
 Requested convergence on RMS density matrix=1.00D-08 within**** cycles.
 Requested convergence on MAX density matrix=1.00D-06.
 Requested convergence on             energy=1.00D-06.
 No special actions if energy rises.
 Fock symm off for IB=2 I1=    1 I=   34 J=   16 Cut=1.00D-07 Err=1.85D-04
 Fock matrix is not symmetric: symmetry in diagonalization turned off.
 SCF Done:  E(RAM1) = -0.376780784859E-02 A.U. after   12 cycles
            NFock= 11  Conv=0.50D-08     -V/T= 1.0000
 Calling FoFJK, ICntrl=      2127 FMM=F ISym2X=1 I1Cent= 0 IOpClX= 0 NMat=1 NMatS=1 NMatT=0.
 ***** Axes restored to original set *****
 -------------------------------------------------------------------
 Center     Atomic                   Forces (Hartrees/Bohr)
 Number     Number              X              Y              Z
 -------------------------------------------------------------------
      1        6           0.000406629   -0.000220217    0.000000000
      2        6          -0.001053857   -0.000327506    0.000000000
      3        6           0.000670239    0.000218367    0.000000000
      4        6          -0.000154707    0.000083488    0.000000000
      5        6           0.000184227   -0.000680427    0.000000000
      6        6          -0.000302526    0.001061781   -0.000000000
      7       17           0.000212561    0.000198917   -0.000000000
      8       17           0.000120204   -0.000064995   -0.000000000
      9       17           0.000007424    0.000052318   -0.000000000
     10       17          -0.000050371   -0.000286770   -0.000000000
     11       17          -0.000039822   -0.000034956   -0.000000000
 -------------------------------------------------------------------
 Cartesian Forces:  Max     0.001061781 RMS     0.000342413

 GradGradGradGradGradGradGradGradGradGradGradGradGradGradGradGradGradGrad
 Berny optimization.
 Using GEDIIS/GDIIS optimizer.
 FormGI is forming the generalized inverse of G from B-inverse, IUseBI=4.
 Internal  Forces:  Max     0.000790629 RMS     0.000224749
 Search for a local minimum.
 Step number   4 out of a maximum of   57
 All quantities printed in internal units (Hartrees-Bohrs-Radians)
 Mixed Optimization -- En-DIIS/RFO-DIIS
 Update second derivatives using D2CorX and points    1    2    3    4
 DE= -9.08D-05 DEPred=-9.65D-05 R= 9.40D-01
 TightC=F SS=  1.41D+00  RLast= 2.31D-02 DXNew= 8.4853D-01 6.9366D-02
 Trust test= 9.40D-01 RLast= 2.31D-02 DXMaxT set to 5.05D-01
 ITU=  1  1  1  0
 Use linear search instead of GDIIS.
     Eigenvalues ---    0.02011   0.02011   0.02011   0.02011   0.02011
     Eigenvalues ---    0.02011   0.02011   0.02011   0.23984   0.24805
     Eigenvalues ---    0.25000   0.25000   0.25000   0.25000   0.25118
     Eigenvalues ---    0.25332   0.26354   0.28774   0.29033   0.29034
     Eigenvalues ---    0.30548   0.41122   0.43027   0.44656   0.44657
     Eigenvalues ---    0.50126   0.76213
 RFO step:  Lambda=-3.91917128D-06 EMin= 2.01065812D-02
 Quartic linear search produced a step of -0.07542.
 Iteration  1 RMS(Cart)=  0.00080393 RMS(Int)=  0.00000021
 Iteration  2 RMS(Cart)=  0.00000029 RMS(Int)=  0.00000004
 ClnCor:  largest displacement from symmetrization is 1.55D-11 for atom     7.
 Variable       Old X    -DE/DX   Delta X   Delta X   Delta X     New X
                                 (Linear)    (Quad)   (Total)
    R1        2.61690  -0.00079   0.00003  -0.00157  -0.00154   2.61537
    R2        2.61691  -0.00079   0.00003  -0.00157  -0.00154   2.61537
    R3        2.65048   0.00045   0.00048   0.00040   0.00087   2.65136
    R4        3.24060  -0.00028  -0.00069   0.00011  -0.00058   3.24002
    R5        2.65518   0.00014   0.00055  -0.00020   0.00035   2.65553
    R6        3.23329  -0.00005  -0.00033   0.00019  -0.00014   3.23315
    R7        2.65518   0.00014   0.00055  -0.00020   0.00035   2.65553
    R8        3.22921   0.00014  -0.00067   0.00131   0.00064   3.22985
    R9        2.65048   0.00045   0.00048   0.00040   0.00087   2.65135
   R10        3.23329  -0.00005  -0.00033   0.00019  -0.00014   3.23315
   R11        3.24060  -0.00028  -0.00069   0.00011  -0.00058   3.24002
    A1        2.06845  -0.00000  -0.00011  -0.00009  -0.00020   2.06825
    A2        2.12598   0.00029   0.00021   0.00059   0.00080   2.12677
    A3        2.07315  -0.00024  -0.00028  -0.00040  -0.00068   2.07247
    A4        2.08406  -0.00004   0.00007  -0.00019  -0.00012   2.08394
    A5        2.07653  -0.00026  -0.00009  -0.00069  -0.00078   2.07575
    A6        2.11996   0.00014   0.00015   0.00026   0.00041   2.12037
    A7        2.08669   0.00011  -0.00006   0.00043   0.00037   2.08706
    A8        2.09291  -0.00006  -0.00014   0.00030   0.00017   2.09307
    A9        2.09514   0.00003   0.00007  -0.00015  -0.00008   2.09506
   A10        2.09514   0.00003   0.00007  -0.00015  -0.00008   2.09506
   A11        2.07653  -0.00026  -0.00009  -0.00069  -0.00078   2.07575
   A12        2.08669   0.00011  -0.00006   0.00043   0.00037   2.08706
   A13        2.11996   0.00014   0.00015   0.00026   0.00041   2.12037
   A14        2.12598   0.00029   0.00021   0.00059   0.00080   2.12677
   A15        2.07315  -0.00024  -0.00028  -0.00040  -0.00068   2.07247
   A16        2.08406  -0.00004   0.00007  -0.00019  -0.00012   2.08394
    D1        0.00000   0.00000   0.00000   0.00000   0.00000   0.00000
    D2        3.14159  -0.00000   0.00000  -0.00000   0.00000   3.14159
    D3        0.00000   0.00000   0.00000   0.00000   0.00000   0.00000
    D4        3.14159   0.00000   0.00000   0.00000   0.00000   3.14159
    D5        0.00000  -0.00000   0.00000  -0.00000   0.00000   0.00000
    D6        3.14159  -0.00000   0.00000  -0.00000   0.00000   3.14159
    D7        3.14159   0.00000   0.00000   0.00000   0.00000   3.14159
    D8        0.00000  -0.00000   0.00000  -0.00000   0.00000   0.00000
    D9        0.00000   0.00000   0.00000   0.00000   0.00000   0.00000
   D10        3.14159  -0.00000   0.00000  -0.00000   0.00000   3.14159
   D11        3.14159   0.00000   0.00000   0.00000   0.00000   3.14159
   D12        0.00000   0.00000   0.00000   0.00000   0.00000   0.00000
   D13        0.00000   0.00000   0.00000   0.00000   0.00000   0.00000
   D14        3.14159  -0.00000   0.00000  -0.00000   0.00000   3.14159
   D15        3.14159   0.00000   0.00000   0.00000   0.00000   3.14159
   D16        0.00000   0.00000   0.00000   0.00000   0.00000   0.00000
   D17        0.00000  -0.00000   0.00000  -0.00000   0.00000   0.00000
   D18        3.14159  -0.00000   0.00000  -0.00000   0.00000   3.14159
   D19        3.14159   0.00000   0.00000   0.00000   0.00000   3.14159
   D20        0.00000   0.00000   0.00000   0.00000   0.00000   0.00000
         Item               Value     Threshold  Converged?
 Maximum Force            0.000791     0.000450     NO 
 RMS     Force            0.000225     0.000300     YES
 Maximum Displacement     0.003265     0.001800     NO 
 RMS     Displacement     0.000804     0.001200     YES
 Predicted change in Energy=-2.568706D-06
 GradGradGradGradGradGradGradGradGradGradGradGradGradGradGradGradGradGrad

                          Input orientation:                          
 ---------------------------------------------------------------------
 Center     Atomic      Atomic             Coordinates (Angstroms)
 Number     Number       Type             X           Y           Z
 ---------------------------------------------------------------------
      1          6           0       -3.206264    0.197798    0.000000
      2          6           0       -2.017775    0.906974    0.000000
      3          6           0       -0.771239    0.263033    0.000000
      4          6           0       -0.731721   -1.141657    0.000000
      5          6           0       -1.929433   -1.876643    0.000000
      6          6           0       -3.150179   -1.185058    0.000000
      7         17           0       -4.618805   -2.069817    0.000000
      8         17           0        0.771367   -1.955269    0.000000
      9         17           0       -1.871040   -3.586557    0.000000
     10         17           0       -2.080026    2.620387    0.000000
     11         17           0        0.692347    1.149109    0.000000
 ---------------------------------------------------------------------
                    Distance matrix (angstroms):
                    1          2          3          4          5
     1  C    0.000000
     2  C    1.383993   0.000000
     3  C    2.435899   1.403037   0.000000
     4  C    2.813806   2.418848   1.405246   0.000000
     5  C    2.435899   2.785018   2.433027   1.405246   0.000000
     6  C    1.383993   2.378852   2.785018   2.418847   1.403037
     7  Cl   2.671582   3.953055   4.499550   3.996361   2.696302
     8  Cl   4.522969   3.996467   2.701943   1.709163   2.701943
     9  Cl   4.012999   4.495925   4.003611   2.697328   1.710911
    10  Cl   2.671582   1.714544   2.696302   3.996361   4.499551
    11  Cl   4.012999   2.720918   1.710911   2.697328   4.003611
                    6          7          8          9         10
     6  C    0.000000
     7  Cl   1.714544   0.000000
     8  Cl   3.996467   5.391389   0.000000
     9  Cl   2.720917   3.138585   3.105384   0.000000
    10  Cl   3.953055   5.333237   5.391389   6.210461   0.000000
    11  Cl   4.495925   6.210461   3.105384   5.384931   3.138584
                   11
    11  Cl   0.000000
 Stoichiometry    C6Cl5(1-)
 Framework group  CS[SG(C6Cl5)]
 Deg. of freedom    19
 Full point group                 CS      NOp   2
 Largest Abelian subgroup         CS      NOp   2
 Largest concise Abelian subgroup C1      NOp   1
                         Standard orientation:                         
 ---------------------------------------------------------------------
 Center     Atomic      Atomic             Coordinates (Angstroms)
 Number     Number       Type             X           Y           Z
 ---------------------------------------------------------------------
      1          6           0        0.000000    1.844863   -0.000000
      2          6           0        1.189426    1.137260   -0.000000
      3          6           0        1.216514   -0.265515    0.000000
      4          6           0        0.000000   -0.968943    0.000000
      5          6           0       -1.216514   -0.265515    0.000000
      6          6           0       -1.189426    1.137260   -0.000000
      7         17           0       -2.666618    2.007641   -0.000000
      8         17           0       -0.000000   -2.678106    0.000000
      9         17           0       -2.692466   -1.130837    0.000000
     10         17           0        2.666618    2.007641   -0.000000
     11         17           0        2.692465   -1.130837    0.000000
 ---------------------------------------------------------------------
 Rotational constants (GHZ):           0.7148507           0.4706487           0.2837990
 Standard basis: VSTO-6G (5D, 7F)
 There are    33 symmetry adapted cartesian basis functions of A'  symmetry.
 There are    11 symmetry adapted cartesian basis functions of A"  symmetry.
 There are    33 symmetry adapted basis functions of A'  symmetry.
 There are    11 symmetry adapted basis functions of A"  symmetry.
    44 basis functions,   264 primitive gaussians,    44 cartesian basis functions
    30 alpha electrons       30 beta electrons
       nuclear repulsion energy       353.2100101086 Hartrees.
 Integral buffers will be    131072 words long.
 Regular integral format.
 Two-electron integral symmetry is turned off.
 Do NDO integrals.
 One-electron integrals computed using PRISM.
 NBasis=    44 RedAO= T EigKep=  1.00D+00  NBF=    33    11
 NBsUse=    44 1.00D-06 EigRej= -1.00D+00 NBFU=    33    11
 Initial guess from the checkpoint file:  "geometry_chks/1_3456ClBzAnionIntermediate.chk"
 B after Tr=     0.000000   -0.000000    0.000000
         Rot=    0.707107   -0.000000   -0.000000    0.707107 Ang=  90.00 deg.
 Initial guess orbital symmetries:
       Occupied  (A') (A') (A') (A') (A') (A') (A') (A') (A') (A')
                 (A') (A') (A') (A') (A") (A') (A") (A') (A") (A")
                 (A") (A') (A') (A') (A') (A') (A") (A") (A") (A')
       Virtual   (A") (A") (A') (A') (A') (A') (A') (A") (A') (A')
                 (A') (A') (A') (A')
 Keep J ints in memory in canonical form, NReq=865421.
 Overlap will be assumed to be unity.
 Requested convergence on RMS density matrix=1.00D-08 within**** cycles.
 Requested convergence on MAX density matrix=1.00D-06.
 Requested convergence on             energy=1.00D-06.
 No special actions if energy rises.
 Fock symm off for IB=2 I1=    1 I=   34 J=   22 Cut=1.00D-07 Err=3.10D-05
 Fock matrix is not symmetric: symmetry in diagonalization turned off.
 SCF Done:  E(RAM1) = -0.377028849942E-02 A.U. after   10 cycles
            NFock=  9  Conv=0.42D-08     -V/T= 1.0000
 Calling FoFJK, ICntrl=      2127 FMM=F ISym2X=1 I1Cent= 0 IOpClX= 0 NMat=1 NMatS=1 NMatT=0.
 ***** Axes restored to original set *****
 -------------------------------------------------------------------
 Center     Atomic                   Forces (Hartrees/Bohr)
 Number     Number              X              Y              Z
 -------------------------------------------------------------------
      1        6           0.000080210   -0.000043475    0.000000000
      2        6          -0.000076660    0.000063352    0.000000000
      3        6           0.000260757    0.000046054    0.000000000
      4        6          -0.000156818    0.000084667    0.000000000
      5        6           0.000104289   -0.000243400   -0.000000000
      6        6          -0.000095130    0.000029658   -0.000000000
      7       17           0.000019992   -0.000038124   -0.000000000
      8       17          -0.000059420    0.000032157   -0.000000000
      9       17          -0.000003141    0.000137568   -0.000000000
     10       17           0.000042821    0.000004136   -0.000000000
     11       17          -0.000116899   -0.000072593   -0.000000000
 -------------------------------------------------------------------
 Cartesian Forces:  Max     0.000260757 RMS     0.000086388

 GradGradGradGradGradGradGradGradGradGradGradGradGradGradGradGradGradGrad
 Berny optimization.
 Using GEDIIS/GDIIS optimizer.
 FormGI is forming the generalized inverse of G from B-inverse, IUseBI=4.
 Internal  Forces:  Max     0.000141489 RMS     0.000051090
 Search for a local minimum.
 Step number   5 out of a maximum of   57
 All quantities printed in internal units (Hartrees-Bohrs-Radians)
 Mixed Optimization -- En-DIIS/RFO-DIIS
 Swapping is turned off.
 Update second derivatives using D2CorX and points    1    2    3    4    5
 DE= -2.48D-06 DEPred=-2.57D-06 R= 9.66D-01
 TightC=F SS=  1.41D+00  RLast= 3.43D-03 DXNew= 8.4853D-01 1.0286D-02
 Trust test= 9.66D-01 RLast= 3.43D-03 DXMaxT set to 5.05D-01
 ITU=  1  1  1  1  0
     Eigenvalues ---    0.02011   0.02011   0.02011   0.02011   0.02011
     Eigenvalues ---    0.02011   0.02011   0.02011   0.20944   0.24904
     Eigenvalues ---    0.25000   0.25000   0.25000   0.25000   0.25129
     Eigenvalues ---    0.26527   0.26827   0.28597   0.29033   0.29034
     Eigenvalues ---    0.30533   0.41121   0.43268   0.44656   0.44657
     Eigenvalues ---    0.55955   0.75498
 En-DIIS/RFO-DIIS/Sim-DIIS IScMMF=       -3 using points:     5    4
 RFO step:  Lambda=-4.40535975D-07.
 DidBck=F Rises=F RFO-DIIS coefs:    1.06590   -0.06590
 Iteration  1 RMS(Cart)=  0.00021484 RMS(Int)=  0.00000002
 Iteration  2 RMS(Cart)=  0.00000003 RMS(Int)=  0.00000001
 ClnCor:  largest displacement from symmetrization is 3.38D-12 for atom    11.
 Variable       Old X    -DE/DX   Delta X   Delta X   Delta X     New X
                                 (Linear)    (Quad)   (Total)
    R1        2.61537   0.00004  -0.00010   0.00005  -0.00005   2.61532
    R2        2.61537   0.00004  -0.00010   0.00005  -0.00005   2.61532
    R3        2.65136   0.00002   0.00006   0.00007   0.00012   2.65148
    R4        3.24002   0.00000  -0.00004  -0.00002  -0.00006   3.23996
    R5        2.65553  -0.00005   0.00002  -0.00010  -0.00008   2.65545
    R6        3.23315  -0.00014  -0.00001  -0.00052  -0.00053   3.23263
    R7        2.65553  -0.00005   0.00002  -0.00010  -0.00008   2.65545
    R8        3.22985  -0.00007   0.00004  -0.00023  -0.00019   3.22966
    R9        2.65135   0.00002   0.00006   0.00007   0.00012   2.65148
   R10        3.23315  -0.00014  -0.00001  -0.00052  -0.00053   3.23263
   R11        3.24002   0.00000  -0.00004  -0.00002  -0.00006   3.23996
    A1        2.06825   0.00007  -0.00001   0.00030   0.00029   2.06854
    A2        2.12677  -0.00005   0.00005  -0.00014  -0.00009   2.12669
    A3        2.07247   0.00009  -0.00004   0.00034   0.00029   2.07277
    A4        2.08394  -0.00005  -0.00001  -0.00020  -0.00020   2.08373
    A5        2.07575  -0.00006  -0.00005  -0.00028  -0.00033   2.07542
    A6        2.12037   0.00003   0.00003   0.00015   0.00018   2.12056
    A7        2.08706   0.00003   0.00002   0.00012   0.00015   2.08721
    A8        2.09307   0.00014   0.00001   0.00054   0.00055   2.09362
    A9        2.09506  -0.00007  -0.00001  -0.00027  -0.00028   2.09478
   A10        2.09506  -0.00007  -0.00001  -0.00027  -0.00028   2.09478
   A11        2.07575  -0.00006  -0.00005  -0.00028  -0.00033   2.07542
   A12        2.08706   0.00003   0.00002   0.00012   0.00015   2.08721
   A13        2.12037   0.00003   0.00003   0.00015   0.00018   2.12056
   A14        2.12677  -0.00005   0.00005  -0.00014  -0.00009   2.12669
   A15        2.07247   0.00009  -0.00004   0.00034   0.00029   2.07277
   A16        2.08394  -0.00005  -0.00001  -0.00020  -0.00020   2.08373
    D1       -0.00000  -0.00000   0.00000  -0.00000   0.00000   0.00000
    D2        3.14159  -0.00000   0.00000  -0.00000   0.00000   3.14159
    D3        0.00000   0.00000   0.00000   0.00000  -0.00000   0.00000
    D4        3.14159   0.00000   0.00000   0.00000   0.00000   3.14159
    D5        0.00000  -0.00000   0.00000  -0.00000   0.00000   0.00000
    D6        3.14159  -0.00000   0.00000  -0.00000   0.00000   3.14159
    D7        3.14159   0.00000   0.00000   0.00000   0.00000   3.14159
    D8       -0.00000   0.00000   0.00000   0.00000   0.00000   0.00000
    D9       -0.00000   0.00000   0.00000   0.00000   0.00000   0.00000
   D10        3.14159  -0.00000   0.00000  -0.00000   0.00000   3.14159
   D11        3.14159   0.00000   0.00000   0.00000   0.00000   3.14159
   D12        0.00000   0.00000   0.00000   0.00000  -0.00000   0.00000
   D13        0.00000  -0.00000   0.00000  -0.00000  -0.00000   0.00000
   D14        3.14159  -0.00000   0.00000  -0.00000   0.00000   3.14159
   D15        3.14159   0.00000   0.00000   0.00000   0.00000   3.14159
   D16        0.00000   0.00000   0.00000   0.00000   0.00000   0.00000
   D17       -0.00000  -0.00000   0.00000  -0.00000   0.00000   0.00000
   D18        3.14159  -0.00000   0.00000  -0.00000   0.00000   3.14159
   D19        3.14159   0.00000   0.00000   0.00000   0.00000   3.14159
   D20       -0.00000  -0.00000   0.00000  -0.00000   0.00000   0.00000
         Item               Value     Threshold  Converged?
 Maximum Force            0.000141     0.000450     YES
 RMS     Force            0.000051     0.000300     YES
 Maximum Displacement     0.000697     0.001800     YES
 RMS     Displacement     0.000215     0.001200     YES
 Predicted change in Energy=-2.202688D-07
 Optimization completed.
    -- Stationary point found.
                           ----------------------------
                           !   Optimized Parameters   !
                           ! (Angstroms and Degrees)  !
 --------------------------                            --------------------------
 ! Name  Definition              Value          Derivative Info.                !
 --------------------------------------------------------------------------------
 ! R1    R(1,2)                  1.384          -DE/DX =    0.0                 !
 ! R2    R(1,6)                  1.384          -DE/DX =    0.0                 !
 ! R3    R(2,3)                  1.403          -DE/DX =    0.0                 !
 ! R4    R(2,10)                 1.7145         -DE/DX =    0.0                 !
 ! R5    R(3,4)                  1.4052         -DE/DX =   -0.0001              !
 ! R6    R(3,11)                 1.7109         -DE/DX =   -0.0001              !
 ! R7    R(4,5)                  1.4052         -DE/DX =   -0.0001              !
 ! R8    R(4,8)                  1.7092         -DE/DX =   -0.0001              !
 ! R9    R(5,6)                  1.403          -DE/DX =    0.0                 !
 ! R10   R(5,9)                  1.7109         -DE/DX =   -0.0001              !
 ! R11   R(6,7)                  1.7145         -DE/DX =    0.0                 !
 ! A1    A(2,1,6)              118.5022         -DE/DX =    0.0001              !
 ! A2    A(1,2,3)              121.8551         -DE/DX =    0.0                 !
 ! A3    A(1,2,10)             118.744          -DE/DX =    0.0001              !
 ! A4    A(3,2,10)             119.4009         -DE/DX =    0.0                 !
 ! A5    A(2,3,4)              118.9316         -DE/DX =   -0.0001              !
 ! A6    A(2,3,11)             121.4885         -DE/DX =    0.0                 !
 ! A7    A(4,3,11)             119.5799         -DE/DX =    0.0                 !
 ! A8    A(3,4,5)              119.9242         -DE/DX =    0.0001              !
 ! A9    A(3,4,8)              120.0379         -DE/DX =   -0.0001              !
 ! A10   A(5,4,8)              120.0379         -DE/DX =   -0.0001              !
 ! A11   A(4,5,6)              118.9316         -DE/DX =   -0.0001              !
 ! A12   A(4,5,9)              119.5799         -DE/DX =    0.0                 !
 ! A13   A(6,5,9)              121.4885         -DE/DX =    0.0                 !
 ! A14   A(1,6,5)              121.8552         -DE/DX =    0.0                 !
 ! A15   A(1,6,7)              118.7439         -DE/DX =    0.0001              !
 ! A16   A(5,6,7)              119.4009         -DE/DX =    0.0                 !
 ! D1    D(6,1,2,3)              0.0            -DE/DX =    0.0                 !
 ! D2    D(6,1,2,10)           180.0            -DE/DX =    0.0                 !
 ! D3    D(2,1,6,5)              0.0            -DE/DX =    0.0                 !
 ! D4    D(2,1,6,7)            180.0            -DE/DX =    0.0                 !
 ! D5    D(1,2,3,4)              0.0            -DE/DX =    0.0                 !
 ! D6    D(1,2,3,11)           180.0            -DE/DX =    0.0                 !
 ! D7    D(10,2,3,4)           180.0            -DE/DX =    0.0                 !
 ! D8    D(10,2,3,11)            0.0            -DE/DX =    0.0                 !
 ! D9    D(2,3,4,5)              0.0            -DE/DX =    0.0                 !
 ! D10   D(2,3,4,8)            180.0            -DE/DX =    0.0                 !
 ! D11   D(11,3,4,5)           180.0            -DE/DX =    0.0                 !
 ! D12   D(11,3,4,8)             0.0            -DE/DX =    0.0                 !
 ! D13   D(3,4,5,6)              0.0            -DE/DX =    0.0                 !
 ! D14   D(3,4,5,9)            180.0            -DE/DX =    0.0                 !
 ! D15   D(8,4,5,6)            180.0            -DE/DX =    0.0                 !
 ! D16   D(8,4,5,9)              0.0            -DE/DX =    0.0                 !
 ! D17   D(4,5,6,1)              0.0            -DE/DX =    0.0                 !
 ! D18   D(4,5,6,7)            180.0            -DE/DX =    0.0                 !
 ! D19   D(9,5,6,1)            180.0            -DE/DX =    0.0                 !
 ! D20   D(9,5,6,7)              0.0            -DE/DX =    0.0                 !
 --------------------------------------------------------------------------------
 GradGradGradGradGradGradGradGradGradGradGradGradGradGradGradGradGradGrad

                          Input orientation:                          
 ---------------------------------------------------------------------
 Center     Atomic      Atomic             Coordinates (Angstroms)
 Number     Number       Type             X           Y           Z
 ---------------------------------------------------------------------
      1          6           0       -3.206264    0.197798    0.000000
      2          6           0       -2.017775    0.906974   -0.000000
      3          6           0       -0.771239    0.263033   -0.000000
      4          6           0       -0.731721   -1.141657    0.000000
      5          6           0       -1.929433   -1.876643    0.000000
      6          6           0       -3.150179   -1.185058    0.000000
      7         17           0       -4.618805   -2.069817    0.000000
      8         17           0        0.771367   -1.955269    0.000000
      9         17           0       -1.871040   -3.586557    0.000000
     10         17           0       -2.080026    2.620387   -0.000000
     11         17           0        0.692347    1.149109   -0.000000
 ---------------------------------------------------------------------
                    Distance matrix (angstroms):
                    1          2          3          4          5
     1  C    0.000000
     2  C    1.383993   0.000000
     3  C    2.435899   1.403037   0.000000
     4  C    2.813806   2.418848   1.405246   0.000000
     5  C    2.435899   2.785018   2.433027   1.405246   0.000000
     6  C    1.383993   2.378852   2.785018   2.418847   1.403037
     7  Cl   2.671582   3.953055   4.499550   3.996361   2.696302
     8  Cl   4.522969   3.996467   2.701943   1.709163   2.701943
     9  Cl   4.012999   4.495925   4.003611   2.697328   1.710911
    10  Cl   2.671582   1.714544   2.696302   3.996361   4.499551
    11  Cl   4.012999   2.720918   1.710911   2.697328   4.003611
                    6          7          8          9         10
     6  C    0.000000
     7  Cl   1.714544   0.000000
     8  Cl   3.996467   5.391389   0.000000
     9  Cl   2.720917   3.138585   3.105384   0.000000
    10  Cl   3.953055   5.333237   5.391389   6.210461   0.000000
    11  Cl   4.495925   6.210461   3.105384   5.384931   3.138584
                   11
    11  Cl   0.000000
 Stoichiometry    C6Cl5(1-)
 Framework group  CS[SG(C6Cl5)]
 Deg. of freedom    19
 Full point group                 CS      NOp   2
 Largest Abelian subgroup         CS      NOp   2
 Largest concise Abelian subgroup C1      NOp   1
                         Standard orientation:                         
 ---------------------------------------------------------------------
 Center     Atomic      Atomic             Coordinates (Angstroms)
 Number     Number       Type             X           Y           Z
 ---------------------------------------------------------------------
      1          6           0        0.000000    1.844863    0.000000
      2          6           0        1.189426    1.137260   -0.000000
      3          6           0        1.216514   -0.265515   -0.000000
      4          6           0        0.000000   -0.968943   -0.000000
      5          6           0       -1.216514   -0.265515    0.000000
      6          6           0       -1.189426    1.137260    0.000000
      7         17           0       -2.666618    2.007641    0.000000
      8         17           0       -0.000000   -2.678106   -0.000000
      9         17           0       -2.692466   -1.130837    0.000000
     10         17           0        2.666618    2.007641   -0.000000
     11         17           0        2.692465   -1.130837   -0.000000
 ---------------------------------------------------------------------
 Rotational constants (GHZ):           0.7148507           0.4706487           0.2837990

 **********************************************************************

            Population analysis using the SCF Density.

 **********************************************************************

 Orbital symmetries:
       Occupied  (A') (A') (A') (A') (A') (A') (A') (A') (A') (A')
                 (A') (A') (A') (A') (A") (A') (A") (A') (A") (A")
                 (A") (A') (A') (A') (A') (A') (A") (A") (A") (A')
       Virtual   (A") (A") (A') (A') (A') (A') (A') (A") (A') (A')
                 (A') (A') (A') (A')
 The electronic state is 1-A'.
 Alpha  occ. eigenvalues --   -1.31536  -1.26000  -1.25168  -1.23766  -1.22923
 Alpha  occ. eigenvalues --   -1.19836  -0.98545  -0.96878  -0.72248  -0.70553
 Alpha  occ. eigenvalues --   -0.54028  -0.49088  -0.48369  -0.43484  -0.42980
 Alpha  occ. eigenvalues --   -0.40421  -0.37026  -0.35825  -0.35260  -0.33214
 Alpha  occ. eigenvalues --   -0.32664  -0.32376  -0.31314  -0.30405  -0.29474
 Alpha  occ. eigenvalues --   -0.27745  -0.27040  -0.19685  -0.18500  -0.14221
 Alpha virt. eigenvalues --    0.14325   0.15769   0.16355   0.17832   0.18220
 Alpha virt. eigenvalues --    0.20678   0.21426   0.25818   0.29598   0.29721
 Alpha virt. eigenvalues --    0.30829   0.31988   0.35691   0.37665
          Condensed to atoms (all electrons):
               1          2          3          4          5          6
     1  C    4.331251   0.000000   0.000000   0.000000   0.000000   0.000000
     2  C    0.000000   4.044813   0.000000   0.000000   0.000000   0.000000
     3  C    0.000000   0.000000   4.061231   0.000000   0.000000   0.000000
     4  C    0.000000   0.000000   0.000000   4.121555   0.000000   0.000000
     5  C    0.000000   0.000000   0.000000   0.000000   4.061231   0.000000
     6  C    0.000000   0.000000   0.000000   0.000000   0.000000   4.044812
     7  Cl   0.000000   0.000000   0.000000   0.000000   0.000000   0.000000
     8  Cl   0.000000   0.000000   0.000000   0.000000   0.000000   0.000000
     9  Cl   0.000000   0.000000   0.000000   0.000000   0.000000   0.000000
    10  Cl   0.000000   0.000000   0.000000   0.000000   0.000000   0.000000
    11  Cl   0.000000   0.000000   0.000000   0.000000   0.000000   0.000000
               7          8          9         10         11
     1  C    0.000000   0.000000   0.000000   0.000000   0.000000
     2  C    0.000000   0.000000   0.000000   0.000000   0.000000
     3  C    0.000000   0.000000   0.000000   0.000000   0.000000
     4  C    0.000000   0.000000   0.000000   0.000000   0.000000
     5  C    0.000000   0.000000   0.000000   0.000000   0.000000
     6  C    0.000000   0.000000   0.000000   0.000000   0.000000
     7  Cl   7.079050   0.000000   0.000000   0.000000   0.000000
     8  Cl   0.000000   7.052832   0.000000   0.000000   0.000000
     9  Cl   0.000000   0.000000   7.062087   0.000000   0.000000
    10  Cl   0.000000   0.000000   0.000000   7.079050   0.000000
    11  Cl   0.000000   0.000000   0.000000   0.000000   7.062087
 Mulliken charges:
               1
     1  C   -0.331251
     2  C   -0.044813
     3  C   -0.061231
     4  C   -0.121555
     5  C   -0.061231
     6  C   -0.044812
     7  Cl  -0.079050
     8  Cl  -0.052832
     9  Cl  -0.062087
    10  Cl  -0.079050
    11  Cl  -0.062087
 Sum of Mulliken charges =  -1.00000
 Mulliken charges with hydrogens summed into heavy atoms:
               1
     1  C   -0.331251
     2  C   -0.044813
     3  C   -0.061231
     4  C   -0.121555
     5  C   -0.061231
     6  C   -0.044812
     7  Cl  -0.079050
     8  Cl  -0.052832
     9  Cl  -0.062087
    10  Cl  -0.079050
    11  Cl  -0.062087
 Charge=             -1.0000 electrons
 Dipole moment (field-independent basis, Debye):
    X=             -0.0000    Y=             -4.8791    Z=              0.0000  Tot=              4.8791
 N-N= 3.532100101086D+02 E-N=-5.133892867677D+02  KE=-1.576268640351D+02
 Symmetry A'   KE=-1.203770372386D+02
 Symmetry A"   KE=-3.724982679651D+01
 1\1\GINC-SH03-08N42\FOpt\RAM1\ZDO\C6Cl5(1-)\JLAPIER\08-Dec-2025\0\\# o
 pt am1 SCF(maxcyc=10000)\\Anion Intermediate (removed 2) 1_3456\\-1,1\
 C,-3.2062641819,0.1977979413,0.\C,-2.0177753718,0.9069737854,0.\C,-0.7
 712392138,0.2630327762,0.\C,-0.7317212703,-1.1416570308,0.\C,-1.929432
 5568,-1.8766426375,0.\C,-3.1501793039,-1.1850581965,0.\Cl,-4.618805486
 9,-2.0698168608,0.\Cl,0.7713666231,-1.9552694382,0.\Cl,-1.8710399674,-
 3.5865565306,0.\Cl,-2.0800261489,2.6203871387,0.\Cl,0.6923468784,1.149
 109053,0.\\Version=ES64L-G16RevB.01\State=1-A'\HF=-0.0037703\RMSD=4.15
 1e-09\RMSF=8.639e-05\Dipole=1.6881244,-0.9137719,0.\PG=CS [SG(C6Cl5)]\
 \@


 TERRY FORSTER, PORTLY ATLANTA BRAVES RELIEVER,
 ANNOUNCING THAT HE WAS GOING TO A FAT FARM:
 "A WAIST IS A TERRIBLE THING TO MIND."
 Job cpu time:       0 days  0 hours  0 minutes  1.7 seconds.
 Elapsed time:       0 days  0 hours  0 minutes 12.1 seconds.
 File lengths (MBytes):  RWF=     10 Int=      0 D2E=      0 Chk=      2 Scr=      1
 Normal termination of Gaussian 16 at Mon Dec  8 17:08:36 2025.
