 Entering Gaussian System, Link 0=g16
 Initial command:
 /share/software/user/restricted/gaussian/g16.B01/l1.exe "/home/users/jlapier/Chloroaromatics/Gau-11181.inp" -scrdir="/home/users/jlapier/Chloroaromatics/"
 Entering Link 1 = /share/software/user/restricted/gaussian/g16.B01/l1.exe PID=     11183.
  
 Copyright (c) 1988-2017, Gaussian, Inc.  All Rights Reserved.
  
 This is part of the Gaussian(R) 16 program.  It is based on
 the Gaussian(R) 09 system (copyright 2009, Gaussian, Inc.),
 the Gaussian(R) 03 system (copyright 2003, Gaussian, Inc.),
 the Gaussian(R) 98 system (copyright 1998, Gaussian, Inc.),
 the Gaussian(R) 94 system (copyright 1995, Gaussian, Inc.),
 the Gaussian 92(TM) system (copyright 1992, Gaussian, Inc.),
 the Gaussian 90(TM) system (copyright 1990, Gaussian, Inc.),
 the Gaussian 88(TM) system (copyright 1988, Gaussian, Inc.),
 the Gaussian 86(TM) system (copyright 1986, Carnegie Mellon
 University), and the Gaussian 82(TM) system (copyright 1983,
 Carnegie Mellon University). Gaussian is a federally registered
 trademark of Gaussian, Inc.
  
 This software contains proprietary and confidential information,
 including trade secrets, belonging to Gaussian, Inc.
  
 This software is provided under written license and may be
 used, copied, transmitted, or stored only in accord with that
 written license.
  
 The following legend is applicable only to US Government
 contracts under FAR:
  
                    RESTRICTED RIGHTS LEGEND
  
 Use, reproduction and disclosure by the US Government is
 subject to restrictions as set forth in subparagraphs (a)
 and (c) of the Commercial Computer Software - Restricted
 Rights clause in FAR 52.227-19.
  
 Gaussian, Inc.
 340 Quinnipiac St., Bldg. 40, Wallingford CT 06492
  
  
 ---------------------------------------------------------------
 Warning -- This program may not be used in any manner that
 competes with the business of Gaussian, Inc. or will provide
 assistance to any competitor of Gaussian, Inc.  The licensee
 of this program is prohibited from giving any competitor of
 Gaussian, Inc. access to this program.  By using this program,
 the user acknowledges that Gaussian, Inc. is engaged in the
 business of creating and licensing software in the field of
 computational chemistry and represents and warrants to the
 licensee that it is not a competitor of Gaussian, Inc. and that
 it will not use this program in any manner prohibited above.
 ---------------------------------------------------------------
  

 Cite this work as:
 Gaussian 16, Revision B.01,
 M. J. Frisch, G. W. Trucks, H. B. Schlegel, G. E. Scuseria, 
 M. A. Robb, J. R. Cheeseman, G. Scalmani, V. Barone, 
 G. A. Petersson, H. Nakatsuji, X. Li, M. Caricato, A. V. Marenich, 
 J. Bloino, B. G. Janesko, R. Gomperts, B. Mennucci, H. P. Hratchian, 
 J. V. Ortiz, A. F. Izmaylov, J. L. Sonnenberg, D. Williams-Young, 
 F. Ding, F. Lipparini, F. Egidi, J. Goings, B. Peng, A. Petrone, 
 T. Henderson, D. Ranasinghe, V. G. Zakrzewski, J. Gao, N. Rega, 
 G. Zheng, W. Liang, M. Hada, M. Ehara, K. Toyota, R. Fukuda, 
 J. Hasegawa, M. Ishida, T. Nakajima, Y. Honda, O. Kitao, H. Nakai, 
 T. Vreven, K. Throssell, J. A. Montgomery, Jr., J. E. Peralta, 
 F. Ogliaro, M. J. Bearpark, J. J. Heyd, E. N. Brothers, K. N. Kudin, 
 V. N. Staroverov, T. A. Keith, R. Kobayashi, J. Normand, 
 K. Raghavachari, A. P. Rendell, J. C. Burant, S. S. Iyengar, 
 J. Tomasi, M. Cossi, J. M. Millam, M. Klene, C. Adamo, R. Cammi, 
 J. W. Ochterski, R. L. Martin, K. Morokuma, O. Farkas, 
 J. B. Foresman, and D. J. Fox, Gaussian, Inc., Wallingford CT, 2016.
 
 ******************************************
 Gaussian 16:  ES64L-G16RevB.01 20-Dec-2017
                 8-Dec-2025 
 ******************************************
 %mem=2GB
 %nprocshare=1
 Will use up to    1 processors via shared memory.
 %chk=geometry_chks/1_34ClBzAnionIntermediate.chk
 ---------------------------
 # opt am1 SCF(maxcyc=10000)
 ---------------------------
 1/18=20,19=15,26=1,38=1/1,3;
 2/9=110,12=2,17=6,18=5,40=1/2;
 3/5=2,25=1,41=700000,71=1/1,2,3;
 4/35=1/1;
 5/5=2,7=10000,35=1,38=5/2;
 6/7=2,8=2,9=2,10=2,28=1/1;
 7//1,2,3,16;
 1/18=20,19=15,26=1/3(2);
 2/9=110/2;
 99//99;
 2/9=110/2;
 3/5=2,25=1,41=700000,71=1,135=20/1,2,3;
 4/5=5,16=3,35=1/1;
 5/5=2,7=10000,35=1,38=5/2;
 7//1,2,3,16;
 1/18=20,19=15,26=1/3(-5);
 2/9=110/2;
 6/7=2,8=2,9=2,10=2,19=2,28=1/1;
 99/9=1/99;
 -----------------------------------
 Anion Intermediate (removed 2) 1_34
 -----------------------------------
 Symbolic Z-matrix:
 Charge = -1 Multiplicity = 1
 C                    -3.20928   0.19943   0. 
 C                    -2.0115    0.93555   0. 
 C                    -0.77511   0.2663    0. 
 C                    -0.7365   -1.13907   0. 
 C                    -1.93429  -1.87519   0. 
 C                    -3.17067  -1.20594   0. 
 Cl                   -4.67483  -2.13035   0. 
 Cl                    0.81614  -1.97951   0. 
 Cl                   -1.8858   -3.64003   0. 
 H                    -2.05998   2.7004    0. 
 H                     0.72905   1.19071   0. 
 
 Add virtual bond connecting atoms H11        and C3         Dist= 3.34D+00.
 Add virtual bond connecting atoms H10        and C2         Dist= 3.34D+00.

 GradGradGradGradGradGradGradGradGradGradGradGradGradGradGradGradGradGrad
 Berny optimization.
 Initialization pass.
                           ----------------------------
                           !    Initial Parameters    !
                           ! (Angstroms and Degrees)  !
 --------------------------                            --------------------------
 ! Name  Definition              Value          Derivative Info.                !
 --------------------------------------------------------------------------------
 ! R1    R(1,2)                  1.4059         estimate D2E/DX2                !
 ! R2    R(1,6)                  1.4059         estimate D2E/DX2                !
 ! R3    R(2,3)                  1.4059         estimate D2E/DX2                !
 ! R4    R(2,10)                 1.7655         estimate D2E/DX2                !
 ! R5    R(3,4)                  1.4059         estimate D2E/DX2                !
 ! R6    R(3,11)                 1.7655         estimate D2E/DX2                !
 ! R7    R(4,5)                  1.4059         estimate D2E/DX2                !
 ! R8    R(4,8)                  1.7655         estimate D2E/DX2                !
 ! R9    R(5,6)                  1.4059         estimate D2E/DX2                !
 ! R10   R(5,9)                  1.7655         estimate D2E/DX2                !
 ! R11   R(6,7)                  1.7655         estimate D2E/DX2                !
 ! A1    A(2,1,6)              119.9999         estimate D2E/DX2                !
 ! A2    A(1,2,3)              120.0            estimate D2E/DX2                !
 ! A3    A(1,2,10)             120.0001         estimate D2E/DX2                !
 ! A4    A(3,2,10)             119.9999         estimate D2E/DX2                !
 ! A5    A(2,3,4)              120.0001         estimate D2E/DX2                !
 ! A6    A(2,3,11)             120.0            estimate D2E/DX2                !
 ! A7    A(4,3,11)             119.9999         estimate D2E/DX2                !
 ! A8    A(3,4,5)              119.9997         estimate D2E/DX2                !
 ! A9    A(3,4,8)              120.0003         estimate D2E/DX2                !
 ! A10   A(5,4,8)              120.0            estimate D2E/DX2                !
 ! A11   A(4,5,6)              120.0            estimate D2E/DX2                !
 ! A12   A(4,5,9)              119.9996         estimate D2E/DX2                !
 ! A13   A(6,5,9)              120.0004         estimate D2E/DX2                !
 ! A14   A(1,6,5)              120.0003         estimate D2E/DX2                !
 ! A15   A(1,6,7)              119.9999         estimate D2E/DX2                !
 ! A16   A(5,6,7)              119.9998         estimate D2E/DX2                !
 ! D1    D(6,1,2,3)              0.0            estimate D2E/DX2                !
 ! D2    D(6,1,2,10)           180.0            estimate D2E/DX2                !
 ! D3    D(2,1,6,5)              0.0            estimate D2E/DX2                !
 ! D4    D(2,1,6,7)            180.0            estimate D2E/DX2                !
 ! D5    D(1,2,3,4)              0.0            estimate D2E/DX2                !
 ! D6    D(1,2,3,11)           180.0            estimate D2E/DX2                !
 ! D7    D(10,2,3,4)           180.0            estimate D2E/DX2                !
 ! D8    D(10,2,3,11)            0.0            estimate D2E/DX2                !
 ! D9    D(2,3,4,5)              0.0            estimate D2E/DX2                !
 ! D10   D(2,3,4,8)            180.0            estimate D2E/DX2                !
 ! D11   D(11,3,4,5)           180.0            estimate D2E/DX2                !
 ! D12   D(11,3,4,8)             0.0            estimate D2E/DX2                !
 ! D13   D(3,4,5,6)              0.0            estimate D2E/DX2                !
 ! D14   D(3,4,5,9)            180.0            estimate D2E/DX2                !
 ! D15   D(8,4,5,6)            180.0            estimate D2E/DX2                !
 ! D16   D(8,4,5,9)              0.0            estimate D2E/DX2                !
 ! D17   D(4,5,6,1)              0.0            estimate D2E/DX2                !
 ! D18   D(4,5,6,7)            180.0            estimate D2E/DX2                !
 ! D19   D(9,5,6,1)            180.0            estimate D2E/DX2                !
 ! D20   D(9,5,6,7)              0.0            estimate D2E/DX2                !
 --------------------------------------------------------------------------------
 Trust Radius=3.00D-01 FncErr=1.00D-07 GrdErr=1.00D-07 EigMax=2.50D+02 EigMin=1.00D-04
 Number of steps in this run=     57 maximum allowed number of steps=    100.
 GradGradGradGradGradGradGradGradGradGradGradGradGradGradGradGradGradGrad

                          Input orientation:                          
 ---------------------------------------------------------------------
 Center     Atomic      Atomic             Coordinates (Angstroms)
 Number     Number       Type             X           Y           Z
 ---------------------------------------------------------------------
      1          6           0       -3.209280    0.199430    0.000000
      2          6           0       -2.011500    0.935550    0.000000
      3          6           0       -0.775110    0.266300    0.000000
      4          6           0       -0.736500   -1.139070    0.000000
      5          6           0       -1.934290   -1.875190    0.000000
      6          6           0       -3.170670   -1.205940    0.000000
      7         17           0       -4.674830   -2.130350    0.000000
      8         17           0        0.816140   -1.979510    0.000000
      9         17           0       -1.885800   -3.640030    0.000000
     10          1           0       -2.059980    2.700400    0.000000
     11          1           0        0.729050    1.190710    0.000000
 ---------------------------------------------------------------------
                    Distance matrix (angstroms):
                    1          2          3          4          5
     1  C    0.000000
     2  C    1.405898   0.000000
     3  C    2.435088   1.405900   0.000000
     4  C    2.811801   2.435092   1.405900   0.000000
     5  C    2.435087   2.811800   2.435093   1.405907   0.000000
     6  C    1.405900   2.435088   2.811796   2.435088   1.405892
     7  Cl   2.752401   4.061166   4.577308   4.061167   2.752393
     8  Cl   4.577312   4.061173   2.752406   1.765511   2.752408
     9  Cl   4.061164   4.577306   4.061163   2.752397   1.765506
    10  H    2.752406   1.765516   2.752405   4.061173   4.577316
    11  H    4.061167   2.752403   1.765512   2.752401   4.061173
                    6          7          8          9         10
     6  C    0.000000
     7  Cl   1.765512   0.000000
     8  Cl   4.061165   5.493041   0.000000
     9  Cl   2.752396   3.171407   3.171404   0.000000
    10  H    4.061173   5.493049   5.493052   6.342822   0.000000
    11  H    4.577308   6.342819   3.171416   5.493040   3.171412
                   11
    11  H    0.000000
 Stoichiometry    C6H2Cl3(1-)
 Framework group  CS[SG(C6H2Cl3)]
 Deg. of freedom    19
 Full point group                 CS      NOp   2
 Largest Abelian subgroup         CS      NOp   2
 Largest concise Abelian subgroup C1      NOp   1
                         Standard orientation:                         
 ---------------------------------------------------------------------
 Center     Atomic      Atomic             Coordinates (Angstroms)
 Number     Number       Type             X           Y           Z
 ---------------------------------------------------------------------
      1          6           0       -1.861050    1.248404   -0.000000
      2          6           0       -2.564000    0.030862   -0.000000
      3          6           0       -1.861050   -1.186684    0.000000
      4          6           0       -0.455149   -1.186686    0.000000
      5          6           0        0.247801    0.030866   -0.000000
      6          6           0       -0.455149    1.248402   -0.000000
      7         17           0        0.427606    2.777380   -0.000000
      8         17           0        0.427611   -2.715662    0.000000
      9         17           0        2.013307    0.030859    0.000000
     10          1           0       -4.329515    0.030859   -0.000000
     11          1           0       -2.743805   -2.715662    0.000000
 ---------------------------------------------------------------------
 Rotational constants (GHZ):           1.4523932           0.8332518           0.5294826
 Standard basis: VSTO-6G (5D, 7F)
 There are    29 symmetry adapted cartesian basis functions of A'  symmetry.
 There are     9 symmetry adapted cartesian basis functions of A"  symmetry.
 There are    29 symmetry adapted basis functions of A'  symmetry.
 There are     9 symmetry adapted basis functions of A"  symmetry.
    38 basis functions,   228 primitive gaussians,    38 cartesian basis functions
    24 alpha electrons       24 beta electrons
       nuclear repulsion energy       242.1157807043 Hartrees.
 Integral buffers will be    131072 words long.
 Regular integral format.
 Two-electron integral symmetry is turned off.
 Do NDO integrals.
 One-electron integrals computed using PRISM.
 NBasis=    38 RedAO= T EigKep=  1.00D+00  NBF=    29     9
 NBsUse=    38 1.00D-06 EigRej= -1.00D+00 NBFU=    29     9
 Simple Huckel Guess.
 Initial guess orbital symmetries:
       Occupied  (A') (A') (A') (A') (A') (A') (A') (A') (A') (A")
                 (A') (A') (A') (A') (A") (A") (A') (A") (A') (A')
                 (A') (A") (A") (A')
       Virtual   (A') (A") (A") (A') (A") (A') (A') (A') (A') (A')
                 (A') (A') (A') (A')
 The electronic state of the initial guess is 1-A'.
 Keep J ints in memory in canonical form, NReq=863588.
 Overlap will be assumed to be unity.
 Requested convergence on RMS density matrix=1.00D-08 within**** cycles.
 Requested convergence on MAX density matrix=1.00D-06.
 Requested convergence on             energy=1.00D-06.
 No special actions if energy rises.
 Fock symm off for IB=2 I1=    1 I=   30 J=   26 Cut=1.00D-07 Err=8.19D-03
 Fock matrix is not symmetric: symmetry in diagonalization turned off.
 SCF Done:  E(RAM1) =  0.277991033514     A.U. after   17 cycles
            NFock= 16  Conv=0.52D-08     -V/T= 1.0025

 **********************************************************************

            Population analysis using the SCF Density.

 **********************************************************************

 Orbital symmetries:
       Occupied  (A') (A') (A') (A') (A') (A') (A') (A') (A') (A')
                 (A') (A") (A') (A") (A") (A') (A') (A') (A') (A")
                 (A') (A") (A") (A')
       Virtual   (A') (A") (A') (A') (A") (A') (A') (A") (A') (A')
                 (A') (A') (A') (A')
 The electronic state is 1-A'.
 Alpha  occ. eigenvalues --   -1.26822  -1.22725  -1.21252  -1.18825  -0.94524
 Alpha  occ. eigenvalues --   -0.93164  -0.66155  -0.65272  -0.48868  -0.43986
 Alpha  occ. eigenvalues --   -0.40944  -0.39213  -0.37312  -0.33544  -0.31565
 Alpha  occ. eigenvalues --   -0.31155  -0.30334  -0.28623  -0.27967  -0.27906
 Alpha  occ. eigenvalues --   -0.22987  -0.19254  -0.17360  -0.12313
 Alpha virt. eigenvalues --    0.14768   0.16442   0.16599   0.17708   0.17831
 Alpha virt. eigenvalues --    0.19955   0.21468   0.27555   0.31323   0.31647
 Alpha virt. eigenvalues --    0.33228   0.34885   0.36971   0.39784
          Condensed to atoms (all electrons):
               1          2          3          4          5          6
     1  C    4.344807   0.000000   0.000000   0.000000   0.000000   0.000000
     2  C    0.000000   4.115832   0.000000   0.000000   0.000000   0.000000
     3  C    0.000000   0.000000   4.105875   0.000000   0.000000   0.000000
     4  C    0.000000   0.000000   0.000000   4.117669   0.000000   0.000000
     5  C    0.000000   0.000000   0.000000   0.000000   4.041083   0.000000
     6  C    0.000000   0.000000   0.000000   0.000000   0.000000   4.049596
     7  Cl   0.000000   0.000000   0.000000   0.000000   0.000000   0.000000
     8  Cl   0.000000   0.000000   0.000000   0.000000   0.000000   0.000000
     9  Cl   0.000000   0.000000   0.000000   0.000000   0.000000   0.000000
    10  H    0.000000   0.000000   0.000000   0.000000   0.000000   0.000000
    11  H    0.000000   0.000000   0.000000   0.000000   0.000000   0.000000
               7          8          9         10         11
     1  C    0.000000   0.000000   0.000000   0.000000   0.000000
     2  C    0.000000   0.000000   0.000000   0.000000   0.000000
     3  C    0.000000   0.000000   0.000000   0.000000   0.000000
     4  C    0.000000   0.000000   0.000000   0.000000   0.000000
     5  C    0.000000   0.000000   0.000000   0.000000   0.000000
     6  C    0.000000   0.000000   0.000000   0.000000   0.000000
     7  Cl   7.110067   0.000000   0.000000   0.000000   0.000000
     8  Cl   0.000000   7.105400   0.000000   0.000000   0.000000
     9  Cl   0.000000   0.000000   7.105600   0.000000   0.000000
    10  H    0.000000   0.000000   0.000000   0.956657   0.000000
    11  H    0.000000   0.000000   0.000000   0.000000   0.947413
 Mulliken charges:
               1
     1  C   -0.344807
     2  C   -0.115832
     3  C   -0.105875
     4  C   -0.117669
     5  C   -0.041083
     6  C   -0.049596
     7  Cl  -0.110067
     8  Cl  -0.105400
     9  Cl  -0.105600
    10  H    0.043343
    11  H    0.052587
 Sum of Mulliken charges =  -1.00000
 Mulliken charges with hydrogens summed into heavy atoms:
               1
     1  C   -0.344807
     2  C   -0.072489
     3  C   -0.053289
     4  C   -0.117669
     5  C   -0.041083
     6  C   -0.049596
     7  Cl  -0.110067
     8  Cl  -0.105400
     9  Cl  -0.105600
 Charge=             -1.0000 electrons
 Dipole moment (field-independent basis, Debye):
    X=              4.0208    Y=             -3.4537    Z=              0.0000  Tot=              5.3004
 N-N= 2.421157807043D+02 E-N=-3.441724345251D+02  KE=-1.134617574738D+02
 Symmetry A'   KE=-8.740459573318D+01
 Symmetry A"   KE=-2.605716174060D+01
 Calling FoFJK, ICntrl=      2127 FMM=F ISym2X=1 I1Cent= 0 IOpClX= 0 NMat=1 NMatS=1 NMatT=0.
 ***** Axes restored to original set *****
 -------------------------------------------------------------------
 Center     Atomic                   Forces (Hartrees/Bohr)
 Number     Number              X              Y              Z
 -------------------------------------------------------------------
      1        6           0.020340846    0.008641189   -0.000000000
      2        6           0.007413682    0.045169580   -0.000000000
      3        6           0.048334323    0.061036903   -0.000000000
      4        6           0.018931947    0.007855038   -0.000000000
      5        6          -0.003534754   -0.019817760    0.000000000
      6        6          -0.000239540    0.018830922    0.000000000
      7       17           0.023639086    0.015507554   -0.000000000
      8       17          -0.023476373    0.015650790   -0.000000000
      9       17           0.001615536    0.024786999   -0.000000000
     10        1           0.003438354   -0.115782862    0.000000000
     11        1          -0.096463108   -0.061878353    0.000000000
 -------------------------------------------------------------------
 Cartesian Forces:  Max     0.115782862 RMS     0.034196111

 GradGradGradGradGradGradGradGradGradGradGradGradGradGradGradGradGradGrad
 Berny optimization.
 FormGI is forming the generalized inverse of G from B-inverse, IUseBI=4.
 Internal  Forces:  Max     0.115833618 RMS     0.028080120
 Search for a local minimum.
 Step number   1 out of a maximum of   57
 All quantities printed in internal units (Hartrees-Bohrs-Radians)
 Mixed Optimization -- RFO/linear search
 Second derivative matrix not updated -- first step.
 ITU=  0
     Eigenvalues ---    0.02011   0.02011   0.02011   0.02011   0.02011
     Eigenvalues ---    0.02011   0.02011   0.02011   0.06524   0.06524
     Eigenvalues ---    0.16000   0.16000   0.22422   0.24427   0.25000
     Eigenvalues ---    0.25000   0.25000   0.25000   0.29033   0.29033
     Eigenvalues ---    0.29034   0.40957   0.41540   0.44656   0.44657
     Eigenvalues ---    0.44657   0.44657
 RFO step:  Lambda=-1.45904787D-01 EMin= 2.01065791D-02
 Linear search not attempted -- first point.
 Maximum step size (   0.300) exceeded in Quadratic search.
    -- Step size scaled by   0.376
 Iteration  1 RMS(Cart)=  0.04879720 RMS(Int)=  0.00114207
 Iteration  2 RMS(Cart)=  0.00105601 RMS(Int)=  0.00001987
 Iteration  3 RMS(Cart)=  0.00000025 RMS(Int)=  0.00001987
 ClnCor:  largest displacement from symmetrization is 1.15D-10 for atom     8.
 Variable       Old X    -DE/DX   Delta X   Delta X   Delta X     New X
                                 (Linear)    (Quad)   (Total)
    R1        2.65676  -0.04576   0.00000  -0.02980  -0.02978   2.62699
    R2        2.65677  -0.02900   0.00000  -0.01821  -0.01822   2.63854
    R3        2.65677  -0.05184   0.00000  -0.03387  -0.03384   2.62293
    R4        3.33634  -0.11583   0.00000  -0.20649  -0.20649   3.12986
    R5        2.65677  -0.03333   0.00000  -0.02138  -0.02137   2.63540
    R6        3.33633  -0.11458   0.00000  -0.20426  -0.20426   3.13208
    R7        2.65678  -0.01497   0.00000  -0.00879  -0.00881   2.64797
    R8        3.33633  -0.02810   0.00000  -0.02424  -0.02424   3.31209
    R9        2.65675  -0.00932   0.00000  -0.00499  -0.00502   2.65173
   R10        3.33632  -0.02473   0.00000  -0.02134  -0.02134   3.31498
   R11        3.33633  -0.02826   0.00000  -0.02438  -0.02438   3.31195
    A1        2.09439  -0.01526   0.00000  -0.01597  -0.01595   2.07845
    A2        2.09439   0.01915   0.00000   0.01675   0.01681   2.11120
    A3        2.09440  -0.00914   0.00000  -0.00785  -0.00787   2.08652
    A4        2.09439  -0.01000   0.00000  -0.00890  -0.00893   2.08546
    A5        2.09440   0.00576   0.00000   0.00385   0.00389   2.09828
    A6        2.09440   0.00081   0.00000   0.00262   0.00259   2.09699
    A7        2.09439  -0.00657   0.00000  -0.00646  -0.00648   2.08791
    A8        2.09439  -0.00845   0.00000  -0.00742  -0.00743   2.08696
    A9        2.09440  -0.00009   0.00000  -0.00040  -0.00039   2.09401
   A10        2.09440   0.00854   0.00000   0.00781   0.00782   2.10222
   A11        2.09439  -0.00934   0.00000  -0.00652  -0.00658   2.08782
   A12        2.09439   0.00084   0.00000  -0.00038  -0.00035   2.09404
   A13        2.09440   0.00850   0.00000   0.00690   0.00693   2.10133
   A14        2.09440   0.00814   0.00000   0.00931   0.00927   2.10367
   A15        2.09439  -0.00546   0.00000  -0.00598  -0.00596   2.08844
   A16        2.09439  -0.00268   0.00000  -0.00333  -0.00331   2.09108
    D1       -0.00000   0.00000   0.00000   0.00000   0.00000   0.00000
    D2        3.14159   0.00000   0.00000   0.00000   0.00000   3.14159
    D3        0.00000  -0.00000   0.00000  -0.00000   0.00000   0.00000
    D4        3.14159  -0.00000   0.00000  -0.00000   0.00000   3.14159
    D5       -0.00000  -0.00000   0.00000  -0.00000   0.00000   0.00000
    D6        3.14159   0.00000   0.00000   0.00000   0.00000   3.14159
    D7        3.14159  -0.00000   0.00000  -0.00000   0.00000   3.14159
    D8       -0.00000   0.00000   0.00000   0.00000   0.00000   0.00000
    D9        0.00000  -0.00000   0.00000  -0.00000   0.00000   0.00000
   D10        3.14159   0.00000   0.00000   0.00000   0.00000   3.14159
   D11        3.14159  -0.00000   0.00000  -0.00000   0.00000   3.14159
   D12        0.00000  -0.00000   0.00000  -0.00000  -0.00000   0.00000
   D13       -0.00000   0.00000   0.00000   0.00000   0.00000   0.00000
   D14        3.14159   0.00000   0.00000   0.00000   0.00000   3.14159
   D15        3.14159  -0.00000   0.00000  -0.00000   0.00000   3.14159
   D16       -0.00000  -0.00000   0.00000  -0.00000   0.00000   0.00000
   D17       -0.00000   0.00000   0.00000   0.00000   0.00000   0.00000
   D18        3.14159  -0.00000   0.00000  -0.00000   0.00000   3.14159
   D19        3.14159   0.00000   0.00000   0.00000   0.00000   3.14159
   D20        0.00000  -0.00000   0.00000  -0.00000  -0.00000   0.00000
         Item               Value     Threshold  Converged?
 Maximum Force            0.115834     0.000450     NO 
 RMS     Force            0.028080     0.000300     NO 
 Maximum Displacement     0.222394     0.001800     NO 
 RMS     Displacement     0.049784     0.001200     NO 
 Predicted change in Energy=-5.114757D-02
 GradGradGradGradGradGradGradGradGradGradGradGradGradGradGradGradGradGrad

                          Input orientation:                          
 ---------------------------------------------------------------------
 Center     Atomic      Atomic             Coordinates (Angstroms)
 Number     Number       Type             X           Y           Z
 ---------------------------------------------------------------------
      1          6           0       -3.196766    0.215252   -0.000000
      2          6           0       -2.002565    0.926855    0.000000
      3          6           0       -0.779862    0.269949    0.000000
      4          6           0       -0.731786   -1.123814    0.000000
      5          6           0       -1.925913   -1.856992   -0.000000
      6          6           0       -3.155253   -1.180387   -0.000000
      7         17           0       -4.651794   -2.092529   -0.000000
      8         17           0        0.815706   -1.946717    0.000000
      9         17           0       -1.877853   -3.610547   -0.000000
     10          1           0       -2.038434    2.582714    0.000000
     11          1           0        0.631749    1.138516    0.000000
 ---------------------------------------------------------------------
                    Distance matrix (angstroms):
                    1          2          3          4          5
     1  C    0.000000
     2  C    1.390141   0.000000
     3  C    2.417523   1.387994   0.000000
     4  C    2.805213   2.412493   1.394592   0.000000
     5  C    2.430898   2.784902   2.416053   1.401245   0.000000
     6  C    1.396257   2.401907   2.783156   2.424126   1.403235
     7  Cl   2.728179   4.016851   4.535765   4.037929   2.736038
     8  Cl   4.557854   4.024930   2.731198   1.752683   2.743086
     9  Cl   4.046761   4.539116   4.032844   2.738122   1.754214
    10  H    2.635642   1.656248   2.633038   3.930099   4.441132
    11  H    3.938266   2.642804   1.657424   2.641471   3.938872
                    6          7          8          9         10
     6  C    0.000000
     7  Cl   1.752609   0.000000
     8  Cl   4.044227   5.469444   0.000000
     9  Cl   2.745438   3.162140   3.166005   0.000000
    10  H    3.925330   5.356076   5.353677   6.195343   0.000000
    11  H    4.440574   6.193180   3.090712   5.371379   3.035718
                   11
    11  H    0.000000
 Stoichiometry    C6H2Cl3(1-)
 Framework group  CS[SG(C6H2Cl3)]
 Deg. of freedom    19
 Full point group                 CS      NOp   2
 Largest Abelian subgroup         CS      NOp   2
 Largest concise Abelian subgroup C1      NOp   1
                         Standard orientation:                         
 ---------------------------------------------------------------------
 Center     Atomic      Atomic             Coordinates (Angstroms)
 Number     Number       Type             X           Y           Z
 ---------------------------------------------------------------------
      1          6           0       -1.459143   -1.690881   -0.000000
      2          6           0       -0.336751   -2.511083   -0.000000
      3          6           0        0.942045   -1.971445    0.000000
      4          6           0        1.120299   -0.588293    0.000000
      5          6           0       -0.000000    0.253384    0.000000
      6          6           0       -1.287246   -0.305246   -0.000000
      7         17           0       -2.691891    0.742900   -0.000000
      8         17           0        2.737989    0.086229    0.000000
      9         17           0        0.211899    1.994752    0.000000
     10          1           0       -0.527373   -4.156326   -0.000000
     11          1           0        2.266208   -2.968263    0.000000
 ---------------------------------------------------------------------
 Rotational constants (GHZ):           1.4791199           0.8416052           0.5363992
 Standard basis: VSTO-6G (5D, 7F)
 There are    29 symmetry adapted cartesian basis functions of A'  symmetry.
 There are     9 symmetry adapted cartesian basis functions of A"  symmetry.
 There are    29 symmetry adapted basis functions of A'  symmetry.
 There are     9 symmetry adapted basis functions of A"  symmetry.
    38 basis functions,   228 primitive gaussians,    38 cartesian basis functions
    24 alpha electrons       24 beta electrons
       nuclear repulsion energy       243.3780822456 Hartrees.
 Integral buffers will be    131072 words long.
 Regular integral format.
 Two-electron integral symmetry is turned off.
 Do NDO integrals.
 One-electron integrals computed using PRISM.
 NBasis=    38 RedAO= T EigKep=  1.00D+00  NBF=    29     9
 NBsUse=    38 1.00D-06 EigRej= -1.00D+00 NBFU=    29     9
 Initial guess from the checkpoint file:  "geometry_chks/1_34ClBzAnionIntermediate.chk"
 B after Tr=     0.000000    0.000000    0.000000
         Rot=    0.748508    0.000000   -0.000000   -0.663126 Ang= -83.08 deg.
 Initial guess orbital symmetries:
       Occupied  (A') (A') (A') (A') (A') (A') (A') (A') (A') (A')
                 (A') (A") (A') (A") (A") (A') (A') (A') (A') (A")
                 (A') (A") (A") (A')
       Virtual   (A') (A") (A') (A') (A") (A') (A') (A") (A') (A')
                 (A') (A') (A') (A')
 Keep J ints in memory in canonical form, NReq=863588.
 Overlap will be assumed to be unity.
 Requested convergence on RMS density matrix=1.00D-08 within**** cycles.
 Requested convergence on MAX density matrix=1.00D-06.
 Requested convergence on             energy=1.00D-06.
 No special actions if energy rises.
 Fock symm off for IB=2 I1=    1 I=   30 J=    7 Cut=1.00D-07 Err=1.26D-03
 Fock matrix is not symmetric: symmetry in diagonalization turned off.
 SCF Done:  E(RAM1) =  0.223450151417     A.U. after   14 cycles
            NFock= 13  Conv=0.30D-08     -V/T= 1.0020
 Calling FoFJK, ICntrl=      2127 FMM=F ISym2X=1 I1Cent= 0 IOpClX= 0 NMat=1 NMatS=1 NMatT=0.
 ***** Axes restored to original set *****
 -------------------------------------------------------------------
 Center     Atomic                   Forces (Hartrees/Bohr)
 Number     Number              X              Y              Z
 -------------------------------------------------------------------
      1        6           0.006128793    0.007264733   -0.000000000
      2        6           0.004680915    0.079137398   -0.000000000
      3        6           0.074466272    0.068399906    0.000000000
      4        6           0.020386319   -0.000240517    0.000000000
      5        6          -0.004443484   -0.021941052   -0.000000000
      6        6          -0.003961532    0.010026633   -0.000000000
      7       17           0.017120830    0.010908694    0.000000000
      8       17          -0.017834395    0.011781013   -0.000000000
      9       17           0.001342490    0.019428808    0.000000000
     10        1           0.002937838   -0.120296412    0.000000000
     11        1          -0.100824044   -0.064469204    0.000000000
 -------------------------------------------------------------------
 Cartesian Forces:  Max     0.120296412 RMS     0.038011831

 GradGradGradGradGradGradGradGradGradGradGradGradGradGradGradGradGradGrad
 Berny optimization.
 Using GEDIIS/GDIIS optimizer.
 FormGI is forming the generalized inverse of G from B-inverse, IUseBI=4.
 Internal  Forces:  Max     0.120331822 RMS     0.026281905
 Search for a local minimum.
 Step number   2 out of a maximum of   57
 All quantities printed in internal units (Hartrees-Bohrs-Radians)
 Mixed Optimization -- RFO/linear search
 Update second derivatives using D2CorX and points    1    2
 DE= -5.45D-02 DEPred=-5.11D-02 R= 1.07D+00
 TightC=F SS=  1.41D+00  RLast= 3.00D-01 DXNew= 5.0454D-01 9.0000D-01
 Trust test= 1.07D+00 RLast= 3.00D-01 DXMaxT set to 5.05D-01
 ITU=  1  0
 Use linear search instead of GDIIS.
 Linear search step of   0.600 exceeds DXMaxT=   0.505 but not scaled.
 Quartic linear search produced a step of  2.00000.
 Iteration  1 RMS(Cart)=  0.06161619 RMS(Int)=  0.04349681
 Iteration  2 RMS(Cart)=  0.03822671 RMS(Int)=  0.00229064
 Iteration  3 RMS(Cart)=  0.00212751 RMS(Int)=  0.00012129
 Iteration  4 RMS(Cart)=  0.00000006 RMS(Int)=  0.00012129
 ClnCor:  largest displacement from symmetrization is 1.29D-08 for atom    10.
 Variable       Old X    -DE/DX   Delta X   Delta X   Delta X     New X
                                 (Linear)    (Quad)   (Total)
    R1        2.62699  -0.02311  -0.05955   0.00000  -0.05941   2.56758
    R2        2.63854  -0.01423  -0.03645   0.00000  -0.03651   2.60203
    R3        2.62293  -0.02819  -0.06767   0.00000  -0.06747   2.55545
    R4        3.12986  -0.12033  -0.41297   0.00000  -0.41297   2.71688
    R5        2.63540  -0.01532  -0.04274   0.00000  -0.04268   2.59272
    R6        3.13208  -0.11966  -0.40851   0.00000  -0.40851   2.72357
    R7        2.64797  -0.00397  -0.01762   0.00000  -0.01776   2.63021
    R8        3.31209  -0.02128  -0.04848   0.00000  -0.04848   3.26361
    R9        2.65173  -0.00156  -0.01004   0.00000  -0.01024   2.64149
   R10        3.31498  -0.01938  -0.04268   0.00000  -0.04268   3.27230
   R11        3.31195  -0.02030  -0.04876   0.00000  -0.04876   3.26319
    A1        2.07845  -0.01114  -0.03190   0.00000  -0.03178   2.04667
    A2        2.11120   0.01312   0.03361   0.00000   0.03394   2.14514
    A3        2.08652  -0.00604  -0.01575   0.00000  -0.01591   2.07061
    A4        2.08546  -0.00708  -0.01786   0.00000  -0.01803   2.06744
    A5        2.09828   0.00356   0.00777   0.00000   0.00802   2.10631
    A6        2.09699   0.00146   0.00519   0.00000   0.00507   2.10206
    A7        2.08791  -0.00502  -0.01296   0.00000  -0.01309   2.07482
    A8        2.08696  -0.00587  -0.01487   0.00000  -0.01495   2.07200
    A9        2.09401  -0.00043  -0.00078   0.00000  -0.00073   2.09328
   A10        2.10222   0.00629   0.01564   0.00000   0.01569   2.11790
   A11        2.08782  -0.00630  -0.01316   0.00000  -0.01351   2.07431
   A12        2.09404   0.00004  -0.00070   0.00000  -0.00053   2.09351
   A13        2.10133   0.00626   0.01386   0.00000   0.01403   2.11537
   A14        2.10367   0.00663   0.01854   0.00000   0.01828   2.12194
   A15        2.08844  -0.00399  -0.01192   0.00000  -0.01179   2.07665
   A16        2.09108  -0.00265  -0.00662   0.00000  -0.00649   2.08459
    D1       -0.00000   0.00000   0.00000   0.00000   0.00000   0.00000
    D2        3.14159   0.00000   0.00000   0.00000   0.00000   3.14159
    D3       -0.00000  -0.00000   0.00000   0.00000   0.00000   0.00000
    D4        3.14159  -0.00000   0.00000   0.00000   0.00000   3.14159
    D5        0.00000   0.00000   0.00000   0.00000   0.00000   0.00000
    D6        3.14159   0.00000   0.00000   0.00000   0.00000   3.14159
    D7        3.14159  -0.00000   0.00000   0.00000   0.00000   3.14159
    D8       -0.00000  -0.00000   0.00000   0.00000   0.00000   0.00000
    D9        0.00000  -0.00000   0.00000   0.00000  -0.00000   0.00000
   D10        3.14159  -0.00000   0.00000   0.00000   0.00000   3.14159
   D11        3.14159  -0.00000   0.00000   0.00000   0.00000   3.14159
   D12        0.00000  -0.00000   0.00000   0.00000  -0.00000   0.00000
   D13       -0.00000   0.00000   0.00000   0.00000   0.00000   0.00000
   D14        3.14159   0.00000   0.00000   0.00000   0.00000   3.14159
   D15        3.14159  -0.00000   0.00000   0.00000   0.00000   3.14159
   D16        0.00000   0.00000   0.00000   0.00000   0.00000   0.00000
   D17        0.00000   0.00000   0.00000   0.00000   0.00000   0.00000
   D18        3.14159   0.00000   0.00000   0.00000   0.00000   3.14159
   D19        3.14159  -0.00000   0.00000   0.00000   0.00000   3.14159
   D20       -0.00000   0.00000   0.00000   0.00000   0.00000   0.00000
         Item               Value     Threshold  Converged?
 Maximum Force            0.120332     0.000450     NO 
 RMS     Force            0.026282     0.000300     NO 
 Maximum Displacement     0.444670     0.001800     NO 
 RMS     Displacement     0.099505     0.001200     NO 
 Predicted change in Energy=-1.054235D-01
 GradGradGradGradGradGradGradGradGradGradGradGradGradGradGradGradGradGrad

                          Input orientation:                          
 ---------------------------------------------------------------------
 Center     Atomic      Atomic             Coordinates (Angstroms)
 Number     Number       Type             X           Y           Z
 ---------------------------------------------------------------------
      1          6           0       -3.170288    0.246999   -0.000000
      2          6           0       -1.984190    0.909760    0.000000
      3          6           0       -0.789055    0.277039    0.000000
      4          6           0       -0.722391   -1.093349    0.000000
      5          6           0       -1.909111   -1.820631   -0.000000
      6          6           0       -3.123920   -1.129158   -0.000000
      7         17           0       -4.605428   -2.016281   -0.000000
      8         17           0        0.814330   -1.881457    0.000000
      9         17           0       -1.862183   -3.551624   -0.000000
     10          1           0       -1.998190    2.347405    0.000000
     11          1           0        0.437656    1.033598    0.000000
 ---------------------------------------------------------------------
                    Distance matrix (angstroms):
                    1          2          3          4          5
     1  C    0.000000
     2  C    1.358705   0.000000
     3  C    2.381422   1.352288   0.000000
     4  C    2.790830   2.367400   1.372008   0.000000
     5  C    2.421912   2.731423   2.377971   1.391849   0.000000
     6  C    1.376938   2.335845   2.725616   2.401796   1.397818
     7  Cl   2.679937   3.928435   4.452417   3.991213   2.703406
     8  Cl   4.517466   3.952544   2.688856   1.727028   2.724120
     9  Cl   4.017545   4.463052   3.976212   2.709657   1.731629
    10  H    2.405311   1.437713   2.397587   3.669667   4.168988
    11  H    3.692695   2.425010   1.441250   2.422729   3.695124
                    6          7          8          9         10
     6  C    0.000000
     7  Cl   1.726804   0.000000
     8  Cl   4.009459   5.421434   0.000000
     9  Cl   2.731359   3.143671   3.154866   0.000000
    10  H    3.654279   5.083251   5.078734   5.900596   0.000000
    11  H    4.166814   5.893594   2.939291   5.129671   2.767568
                   11
    11  H    0.000000
 Stoichiometry    C6H2Cl3(1-)
 Framework group  CS[SG(C6H2Cl3)]
 Deg. of freedom    19
 Full point group                 CS      NOp   2
 Largest Abelian subgroup         CS      NOp   2
 Largest concise Abelian subgroup C1      NOp   1
                         Standard orientation:                         
 ---------------------------------------------------------------------
 Center     Atomic      Atomic             Coordinates (Angstroms)
 Number     Number       Type             X           Y           Z
 ---------------------------------------------------------------------
      1          6           0       -1.438919   -1.687303   -0.000000
      2          6           0       -0.316014   -2.452264   -0.000000
      3          6           0        0.930348   -1.927606   -0.000000
      4          6           0        1.117824   -0.568467   -0.000000
      5          6           0       -0.000000    0.260817    0.000000
      6          6           0       -1.271150   -0.320624   -0.000000
      7         17           0       -2.668488    0.693920    0.000000
      8         17           0        2.718165    0.080791    0.000000
      9         17           0        0.199676    1.980895    0.000000
     10          1           0       -0.456974   -3.883050   -0.000000
     11          1           0        2.085420   -2.789586   -0.000000
 ---------------------------------------------------------------------
 Rotational constants (GHZ):           1.5342864           0.8588232           0.5506145
 Standard basis: VSTO-6G (5D, 7F)
 There are    29 symmetry adapted cartesian basis functions of A'  symmetry.
 There are     9 symmetry adapted cartesian basis functions of A"  symmetry.
 There are    29 symmetry adapted basis functions of A'  symmetry.
 There are     9 symmetry adapted basis functions of A"  symmetry.
    38 basis functions,   228 primitive gaussians,    38 cartesian basis functions
    24 alpha electrons       24 beta electrons
       nuclear repulsion energy       246.0305460563 Hartrees.
 Integral buffers will be    131072 words long.
 Regular integral format.
 Two-electron integral symmetry is turned off.
 Do NDO integrals.
 One-electron integrals computed using PRISM.
 NBasis=    38 RedAO= T EigKep=  1.00D+00  NBF=    29     9
 NBsUse=    38 1.00D-06 EigRej= -1.00D+00 NBFU=    29     9
 Initial guess from the checkpoint file:  "geometry_chks/1_34ClBzAnionIntermediate.chk"
 B after Tr=     0.000000   -0.000000   -0.000000
         Rot=    0.999995   -0.000000   -0.000000   -0.003032 Ang=  -0.35 deg.
 Initial guess orbital symmetries:
       Occupied  (A') (A') (A') (A') (A') (A') (A') (A') (A') (A')
                 (A') (A") (A') (A") (A") (A') (A') (A') (A") (A')
                 (A') (A") (A") (A')
       Virtual   (A') (A") (A') (A") (A') (A') (A') (A") (A') (A')
                 (A') (A') (A') (A')
 Keep J ints in memory in canonical form, NReq=863588.
 Overlap will be assumed to be unity.
 Requested convergence on RMS density matrix=1.00D-08 within**** cycles.
 Requested convergence on MAX density matrix=1.00D-06.
 Requested convergence on             energy=1.00D-06.
 No special actions if energy rises.
 Fock symm off for IB=2 I1=    1 I=   30 J=    5 Cut=1.00D-07 Err=3.06D-03
 Fock matrix is not symmetric: symmetry in diagonalization turned off.
 SCF Done:  E(RAM1) =  0.124357939201     A.U. after   14 cycles
            NFock= 13  Conv=0.51D-08     -V/T= 1.0011
 Calling FoFJK, ICntrl=      2127 FMM=F ISym2X=1 I1Cent= 0 IOpClX= 0 NMat=1 NMatS=1 NMatT=0.
 ***** Axes restored to original set *****
 -------------------------------------------------------------------
 Center     Atomic                   Forces (Hartrees/Bohr)
 Number     Number              X              Y              Z
 -------------------------------------------------------------------
      1        6          -0.027162130    0.003123510   -0.000000000
      2        6          -0.003588872    0.138069467   -0.000000000
      3        6           0.121368568    0.073700379    0.000000000
      4        6           0.022658328   -0.020752842   -0.000000000
      5        6          -0.006366632   -0.026699389    0.000000000
      6        6          -0.012338770   -0.009734263    0.000000000
      7       17           0.002732670    0.000982176    0.000000000
      8       17          -0.005257744    0.003396163    0.000000000
      9       17           0.000699922    0.007792708    0.000000000
     10        1           0.001432418   -0.110258856    0.000000000
     11        1          -0.094177758   -0.059619053    0.000000000
 -------------------------------------------------------------------
 Cartesian Forces:  Max     0.138069467 RMS     0.044931570

 GradGradGradGradGradGradGradGradGradGradGradGradGradGradGradGradGradGrad
 Berny optimization.
 Using GEDIIS/GDIIS optimizer.
 FormGI is forming the generalized inverse of G from B-inverse, IUseBI=4.
 Internal  Forces:  Max     0.111454799 RMS     0.024468789
 Search for a local minimum.
 Step number   3 out of a maximum of   57
 All quantities printed in internal units (Hartrees-Bohrs-Radians)
 Mixed Optimization -- RFO/linear search
 Update second derivatives using D2CorX and points    2    3
 ITU=  0  1  0
 Use linear search instead of GDIIS.
 Linear search step of   0.766 exceeds DXMaxT=   0.505 but not scaled.
 Quartic linear search produced a step of  1.27602.
 Iteration  1 RMS(Cart)=  0.06919974 RMS(Int)=  0.06689455
 Iteration  2 RMS(Cart)=  0.03817416 RMS(Int)=  0.02564186
 Iteration  3 RMS(Cart)=  0.02375425 RMS(Int)=  0.00024258
 Iteration  4 RMS(Cart)=  0.00001257 RMS(Int)=  0.00024236
 Iteration  5 RMS(Cart)=  0.00000000 RMS(Int)=  0.00024236
 ClnCor:  largest displacement from symmetrization is 1.36D-08 for atom     1.
 Variable       Old X    -DE/DX   Delta X   Delta X   Delta X     New X
                                 (Linear)    (Quad)   (Total)
    R1        2.56758   0.02872  -0.07580   0.00000  -0.07550   2.49208
    R2        2.60203   0.01834  -0.04658   0.00000  -0.04672   2.55532
    R3        2.55545   0.02943  -0.08610   0.00000  -0.08569   2.46977
    R4        2.71688  -0.11027  -0.52696   0.00000  -0.52696   2.18992
    R5        2.59272   0.02670  -0.05446   0.00000  -0.05431   2.53841
    R6        2.72357  -0.11145  -0.52127   0.00000  -0.52127   2.20230
    R7        2.63021   0.02026  -0.02266   0.00000  -0.02294   2.60728
    R8        3.26361  -0.00623  -0.06186   0.00000  -0.06186   3.20175
    R9        2.64149   0.01542  -0.01306   0.00000  -0.01347   2.62802
   R10        3.27230  -0.00777  -0.05446   0.00000  -0.05446   3.21784
   R11        3.26319  -0.00285  -0.06222   0.00000  -0.06222   3.20096
    A1        2.04667  -0.00075  -0.04055   0.00000  -0.04031   2.00636
    A2        2.14514  -0.00239   0.04330   0.00000   0.04394   2.18908
    A3        2.07061   0.00168  -0.02030   0.00000  -0.02062   2.04999
    A4        2.06744   0.00071  -0.02300   0.00000  -0.02332   2.04412
    A5        2.10631  -0.00299   0.01024   0.00000   0.01074   2.11705
    A6        2.10206   0.00328   0.00646   0.00000   0.00621   2.10826
    A7        2.07482  -0.00029  -0.01670   0.00000  -0.01695   2.05787
    A8        2.07200   0.00080  -0.01908   0.00000  -0.01924   2.05277
    A9        2.09328  -0.00141  -0.00093   0.00000  -0.00086   2.09242
   A10        2.11790   0.00062   0.02002   0.00000   0.02009   2.13800
   A11        2.07431   0.00156  -0.01723   0.00000  -0.01793   2.05638
   A12        2.09351  -0.00227  -0.00067   0.00000  -0.00033   2.09318
   A13        2.11537   0.00071   0.01791   0.00000   0.01826   2.13362
   A14        2.12194   0.00377   0.02332   0.00000   0.02280   2.14474
   A15        2.07665  -0.00097  -0.01504   0.00000  -0.01478   2.06187
   A16        2.08459  -0.00280  -0.00828   0.00000  -0.00802   2.07657
    D1        0.00000   0.00000   0.00000   0.00000  -0.00000   0.00000
    D2        3.14159   0.00000   0.00000   0.00000   0.00000   3.14159
    D3        0.00000  -0.00000   0.00000   0.00000   0.00000   0.00000
    D4        3.14159  -0.00000   0.00000   0.00000   0.00000   3.14159
    D5       -0.00000  -0.00000   0.00000   0.00000   0.00000   0.00000
    D6        3.14159   0.00000   0.00000   0.00000   0.00000   3.14159
    D7        3.14159  -0.00000   0.00000   0.00000   0.00000   3.14159
    D8        0.00000  -0.00000   0.00000   0.00000  -0.00000   0.00000
    D9        0.00000  -0.00000   0.00000   0.00000  -0.00000   0.00000
   D10        3.14159  -0.00000   0.00000   0.00000   0.00000   3.14159
   D11        3.14159  -0.00000   0.00000   0.00000   0.00000   3.14159
   D12       -0.00000  -0.00000   0.00000   0.00000   0.00000   0.00000
   D13       -0.00000   0.00000   0.00000   0.00000   0.00000   0.00000
   D14        3.14159   0.00000   0.00000   0.00000   0.00000   3.14159
   D15        3.14159   0.00000   0.00000   0.00000   0.00000   3.14159
   D16       -0.00000  -0.00000   0.00000   0.00000   0.00000   0.00000
   D17       -0.00000  -0.00000   0.00000   0.00000   0.00000   0.00000
   D18        3.14159   0.00000   0.00000   0.00000   0.00000   3.14159
   D19        3.14159   0.00000   0.00000   0.00000   0.00000   3.14159
   D20       -0.00000   0.00000   0.00000   0.00000   0.00000   0.00000
         Item               Value     Threshold  Converged?
 Maximum Force            0.111455     0.000450     NO 
 RMS     Force            0.024469     0.000300     NO 
 Maximum Displacement     0.566940     0.001800     NO 
 RMS     Displacement     0.126830     0.001200     NO 
 Predicted change in Energy=-9.173490D-02
 GradGradGradGradGradGradGradGradGradGradGradGradGradGradGradGradGradGrad

                          Input orientation:                          
 ---------------------------------------------------------------------
 Center     Atomic      Atomic             Coordinates (Angstroms)
 Number     Number       Type             X           Y           Z
 ---------------------------------------------------------------------
      1          6           0       -3.133633    0.287715   -0.000000
      2          6           0       -1.959710    0.888557    0.000000
      3          6           0       -0.800128    0.285669    0.000000
      4          6           0       -0.710468   -1.054605    0.000000
      5          6           0       -1.887595   -1.774310    0.000000
      6          6           0       -3.082935   -1.063548   -0.000000
      7         17           0       -4.545641   -1.917779   -0.000000
      8         17           0        0.811574   -1.798922    0.000000
      9         17           0       -1.842678   -3.476527   -0.000000
     10          1           0       -1.952599    2.047393    0.000000
     11          1           0        0.191044    0.898656    0.000000
 ---------------------------------------------------------------------
                    Distance matrix (angstroms):
                    1          2          3          4          5
     1  C    0.000000
     2  C    1.318753   0.000000
     3  C    2.333507   1.306945   0.000000
     4  C    2.770118   2.310082   1.343269   0.000000
     5  C    2.409266   2.663843   2.329398   1.379711   0.000000
     6  C    1.352214   2.252188   2.651716   2.372484   1.390691
     7  Cl   2.618773   3.816093   4.345579   3.931109   2.661916
     8  Cl   4.463039   3.860383   2.634976   1.694291   2.699280
     9  Cl   3.979458   4.366653   3.903977   2.673501   1.702810
    10  H    2.119271   1.158858   2.105199   3.341449   3.822256
    11  H    3.380344   2.150777   1.165407   2.151267   3.386072
                    6          7          8          9         10
     6  C    0.000000
     7  Cl   1.693877   0.000000
     8  Cl   3.963329   5.358533   0.000000
     9  Cl   2.713062   3.120210   3.139970   0.000000
    10  H    3.309927   4.737769   4.736538   5.525014   0.000000
    11  H    3.816960   5.510761   2.768028   4.824754   2.432037
                   11
    11  H    0.000000
 Stoichiometry    C6H2Cl3(1-)
 Framework group  CS[SG(C6H2Cl3)]
 Deg. of freedom    19
 Full point group                 CS      NOp   2
 Largest Abelian subgroup         CS      NOp   2
 Largest concise Abelian subgroup C1      NOp   1
                         Standard orientation:                         
 ---------------------------------------------------------------------
 Center     Atomic      Atomic             Coordinates (Angstroms)
 Number     Number       Type             X           Y           Z
 ---------------------------------------------------------------------
      1          6           0       -1.411649   -1.681897   -0.000000
      2          6           0       -0.291204   -2.377391    0.000000
      3          6           0        0.914096   -1.872063    0.000000
      4          6           0        1.113846   -0.543729    0.000000
      5          6           0       -0.000000    0.270488   -0.000000
      6          6           0       -1.249823   -0.339401   -0.000000
      7         17           0       -2.637198    0.632406   -0.000000
      8         17           0        2.692024    0.072692    0.000000
      9         17           0        0.184971    1.963222   -0.000000
     10          1           0       -0.379568   -3.532875    0.000000
     11          1           0        1.851410   -2.564607    0.000000
 ---------------------------------------------------------------------
 Rotational constants (GHZ):           1.6079959           0.8818660           0.5695243
 Standard basis: VSTO-6G (5D, 7F)
 There are    29 symmetry adapted cartesian basis functions of A'  symmetry.
 There are     9 symmetry adapted cartesian basis functions of A"  symmetry.
 There are    29 symmetry adapted basis functions of A'  symmetry.
 There are     9 symmetry adapted basis functions of A"  symmetry.
    38 basis functions,   228 primitive gaussians,    38 cartesian basis functions
    24 alpha electrons       24 beta electrons
       nuclear repulsion energy       249.7098137860 Hartrees.
 Integral buffers will be    131072 words long.
 Regular integral format.
 Two-electron integral symmetry is turned off.
 Do NDO integrals.
 One-electron integrals computed using PRISM.
 NBasis=    38 RedAO= T EigKep=  1.00D+00  NBF=    29     9
 NBsUse=    38 1.00D-06 EigRej= -1.00D+00 NBFU=    29     9
 Initial guess from the checkpoint file:  "geometry_chks/1_34ClBzAnionIntermediate.chk"
 B after Tr=    -0.000000   -0.000000   -0.000000
         Rot=    0.999993   -0.000000   -0.000000   -0.003724 Ang=  -0.43 deg.
 Initial guess orbital symmetries:
       Occupied  (A') (A') (A') (A') (A') (A') (A') (A') (A') (A')
                 (A') (A") (A') (A") (A') (A") (A') (A') (A") (A')
                 (A') (A") (A") (A')
       Virtual   (A") (A') (A") (A') (A') (A') (A') (A") (A') (A')
                 (A') (A') (A') (A')
 Keep J ints in memory in canonical form, NReq=863588.
 Overlap will be assumed to be unity.
 Requested convergence on RMS density matrix=1.00D-08 within**** cycles.
 Requested convergence on MAX density matrix=1.00D-06.
 Requested convergence on             energy=1.00D-06.
 No special actions if energy rises.
 Fock symm off for IB=2 I1=    1 I=   30 J=    1 Cut=1.00D-07 Err=6.11D-03
 Fock matrix is not symmetric: symmetry in diagonalization turned off.
 SCF Done:  E(RAM1) =  0.620910000486E-01 A.U. after   14 cycles
            NFock= 13  Conv=0.59D-08     -V/T= 1.0005
 Calling FoFJK, ICntrl=      2127 FMM=F ISym2X=1 I1Cent= 0 IOpClX= 0 NMat=1 NMatS=1 NMatT=0.
 ***** Axes restored to original set *****
 -------------------------------------------------------------------
 Center     Atomic                   Forces (Hartrees/Bohr)
 Number     Number              X              Y              Z
 -------------------------------------------------------------------
      1        6          -0.082194073   -0.005087677    0.000000000
      2        6          -0.022274229    0.162435164    0.000000000
      3        6           0.146202859    0.044532281   -0.000000000
      4        6           0.024657946   -0.057279035   -0.000000000
      5        6          -0.009135483   -0.033849417   -0.000000000
      6        6          -0.024549416   -0.038932278   -0.000000000
      7       17          -0.018452027   -0.013084324    0.000000000
      8       17           0.013625167   -0.008701354    0.000000000
      9       17          -0.000284749   -0.008923345    0.000000000
     10        1          -0.000368666   -0.025040904    0.000000000
     11        1          -0.027227328   -0.016069110    0.000000000
 -------------------------------------------------------------------
 Cartesian Forces:  Max     0.162435164 RMS     0.044970523

 GradGradGradGradGradGradGradGradGradGradGradGradGradGradGradGradGradGrad
 Berny optimization.
 Using GEDIIS/GDIIS optimizer.
 FormGI is forming the generalized inverse of G from B-inverse, IUseBI=4.
 Internal  Forces:  Max     0.127216919 RMS     0.033004883
 Search for a local minimum.
 Step number   4 out of a maximum of   57
 All quantities printed in internal units (Hartrees-Bohrs-Radians)
 Mixed Optimization -- RFO/linear search
 Update second derivatives using D2CorX and points    3    4
 ITU=  0  0  1  0
 Use linear search instead of GDIIS.
     Eigenvalues ---    0.02011   0.02011   0.02011   0.02011   0.02011
     Eigenvalues ---    0.02011   0.02011   0.02011   0.06518   0.11246
     Eigenvalues ---    0.15996   0.16001   0.22395   0.24634   0.24946
     Eigenvalues ---    0.25000   0.25000   0.25022   0.28335   0.29033
     Eigenvalues ---    0.29058   0.41081   0.41513   0.44643   0.44656
     Eigenvalues ---    0.44656   0.61296
 RFO step:  Lambda=-9.80420820D-02 EMin= 2.01065747D-02
 Quartic linear search produced a step of -0.03346.
 Maximum step size (   0.505) exceeded in Quadratic search.
    -- Step size scaled by   0.962
 Iteration  1 RMS(Cart)=  0.06412764 RMS(Int)=  0.00762940
 Iteration  2 RMS(Cart)=  0.00681552 RMS(Int)=  0.00059010
 Iteration  3 RMS(Cart)=  0.00001806 RMS(Int)=  0.00058994
 Iteration  4 RMS(Cart)=  0.00000000 RMS(Int)=  0.00058994
 ClnCor:  largest displacement from symmetrization is 9.35D-09 for atom    11.
 Variable       Old X    -DE/DX   Delta X   Delta X   Delta X     New X
                                 (Linear)    (Quad)   (Total)
    R1        2.49208   0.10948   0.00253   0.17510   0.17822   2.67030
    R2        2.55532   0.06612   0.00156   0.10232   0.10347   2.65878
    R3        2.46977   0.12722   0.00287   0.20292   0.20676   2.67653
    R4        2.18992  -0.02504   0.01763  -0.23276  -0.21513   1.97479
    R5        2.53841   0.09357   0.00182   0.14872   0.15094   2.68935
    R6        2.20230  -0.03161   0.01744  -0.26496  -0.24752   1.95478
    R7        2.60728   0.05595   0.00077   0.08527   0.08545   2.69273
    R8        3.20175   0.01606   0.00207   0.03448   0.03655   3.23830
    R9        2.62802   0.04063   0.00045   0.05910   0.05859   2.68661
   R10        3.21784   0.00891   0.00182   0.01895   0.02077   3.23862
   R11        3.20096   0.02253   0.00208   0.04891   0.05099   3.25195
    A1        2.00636   0.01623   0.00135   0.04348   0.04510   2.05145
    A2        2.18908  -0.02953  -0.00147  -0.06050  -0.06041   2.12866
    A3        2.04999   0.01453   0.00069   0.02983   0.02974   2.07973
    A4        2.04412   0.01500   0.00078   0.03067   0.03067   2.07479
    A5        2.11705  -0.01663  -0.00036  -0.02873  -0.02770   2.08935
    A6        2.10826   0.00759  -0.00021   0.01273   0.01183   2.12009
    A7        2.05787   0.00903   0.00057   0.01600   0.01588   2.07375
    A8        2.05277   0.01223   0.00064   0.02807   0.02851   2.08128
    A9        2.09242  -0.00318   0.00003  -0.00722  -0.00709   2.08533
   A10        2.13800  -0.00904  -0.00067  -0.02086  -0.02143   2.11657
   A11        2.05638   0.01621   0.00060   0.02497   0.02396   2.08034
   A12        2.09318  -0.00727   0.00001  -0.01063  -0.00981   2.08337
   A13        2.13362  -0.00894  -0.00061  -0.01435  -0.01415   2.11947
   A14        2.14474   0.00149  -0.00076  -0.00730  -0.00946   2.13529
   A15        2.06187   0.00245   0.00049   0.01146   0.01265   2.07452
   A16        2.07657  -0.00393   0.00027  -0.00416  -0.00320   2.07337
    D1       -0.00000   0.00000   0.00000   0.00000   0.00000   0.00000
    D2        3.14159   0.00000   0.00000   0.00000   0.00000   3.14159
    D3        0.00000  -0.00000   0.00000  -0.00000   0.00000   0.00000
    D4        3.14159  -0.00000   0.00000  -0.00000   0.00000   3.14159
    D5        0.00000  -0.00000   0.00000  -0.00000   0.00000   0.00000
    D6        3.14159   0.00000   0.00000   0.00000   0.00000   3.14159
    D7        3.14159  -0.00000   0.00000  -0.00000   0.00000   3.14159
    D8       -0.00000   0.00000   0.00000   0.00000   0.00000   0.00000
    D9        0.00000  -0.00000   0.00000  -0.00000  -0.00000   0.00000
   D10        3.14159   0.00000   0.00000   0.00000   0.00000   3.14159
   D11        3.14159  -0.00000   0.00000  -0.00000   0.00000   3.14159
   D12       -0.00000   0.00000   0.00000   0.00000   0.00000   0.00000
   D13        0.00000   0.00000   0.00000   0.00000   0.00000   0.00000
   D14        3.14159   0.00000   0.00000   0.00000   0.00000   3.14159
   D15        3.14159  -0.00000   0.00000  -0.00000   0.00000   3.14159
   D16        0.00000  -0.00000   0.00000  -0.00000   0.00000   0.00000
   D17       -0.00000  -0.00000   0.00000  -0.00000   0.00000   0.00000
   D18        3.14159   0.00000   0.00000   0.00000   0.00000   3.14159
   D19        3.14159  -0.00000   0.00000  -0.00000   0.00000   3.14159
   D20       -0.00000  -0.00000   0.00000  -0.00000   0.00000   0.00000
         Item               Value     Threshold  Converged?
 Maximum Force            0.127217     0.000450     NO 
 RMS     Force            0.033005     0.000300     NO 
 Maximum Displacement     0.251952     0.001800     NO 
 RMS     Displacement     0.064121     0.001200     NO 
 Predicted change in Energy=-6.074197D-02
 GradGradGradGradGradGradGradGradGradGradGradGradGradGradGradGradGradGrad

                          Input orientation:                          
 ---------------------------------------------------------------------
 Center     Atomic      Atomic             Coordinates (Angstroms)
 Number     Number       Type             X           Y           Z
 ---------------------------------------------------------------------
      1          6           0       -3.182737    0.315845   -0.000000
      2          6           0       -1.958706    1.021884    0.000000
      3          6           0       -0.708828    0.355644    0.000000
      4          6           0       -0.667821   -1.066908    0.000000
      5          6           0       -1.890507   -1.798664    0.000000
      6          6           0       -3.122900   -1.089849   -0.000000
      7         17           0       -4.593320   -1.983843   -0.000000
      8         17           0        0.847612   -1.866909    0.000000
      9         17           0       -1.844709   -3.511856   -0.000000
     10          1           0       -1.973607    2.066795    0.000000
     11          1           0        0.182753    0.880160    0.000000
 ---------------------------------------------------------------------
                    Distance matrix (angstroms):
                    1          2          3          4          5
     1  C    0.000000
     2  C    1.413062   0.000000
     3  C    2.474229   1.416359   0.000000
     4  C    2.869985   2.455492   1.423144   0.000000
     5  C    2.478105   2.821373   2.457114   1.424931   0.000000
     6  C    1.406967   2.411383   2.813752   2.455187   1.421693
     7  Cl   2.697835   3.996948   4.534588   4.031168   2.709149
     8  Cl   4.583463   4.027474   2.713346   1.713633   2.738970
     9  Cl   4.054826   4.535173   4.030854   2.713454   1.713804
    10  H    2.127867   1.045016   2.127840   3.394874   3.866352
    11  H    3.412474   2.146144   1.034424   2.124747   3.387404
                    6          7          8          9         10
     6  C    0.000000
     7  Cl   1.720860   0.000000
     8  Cl   4.045836   5.442189   0.000000
     9  Cl   2.738592   3.144787   3.155067   0.000000
    10  H    3.359356   4.823957   4.840795   5.580139   0.000000
    11  H    3.848153   5.568967   2.826380   4.837397   2.461299
                   11
    11  H    0.000000
 Stoichiometry    C6H2Cl3(1-)
 Framework group  CS[SG(C6H2Cl3)]
 Deg. of freedom    19
 Full point group                 CS      NOp   2
 Largest Abelian subgroup         CS      NOp   2
 Largest concise Abelian subgroup C1      NOp   1
                         Standard orientation:                         
 ---------------------------------------------------------------------
 Center     Atomic      Atomic             Coordinates (Angstroms)
 Number     Number       Type             X           Y           Z
 ---------------------------------------------------------------------
      1          6           0       -1.480787   -1.712933    0.000000
      2          6           0       -0.326699   -2.528300   -0.000000
      3          6           0        0.979036   -1.979548   -0.000000
      4          6           0        1.150390   -0.566758   -0.000000
      5          6           0       -0.000000    0.274094    0.000000
      6          6           0       -1.292229   -0.318658    0.000000
      7         17           0       -2.674422    0.706477    0.000000
      8         17           0        2.732832    0.090826   -0.000000
      9         17           0        0.202792    1.975857    0.000000
     10          1           0       -0.437408   -3.567436   -0.000000
     11          1           0        1.818731   -2.583655   -0.000000
 ---------------------------------------------------------------------
 Rotational constants (GHZ):           1.5120061           0.8489453           0.5436836
 Standard basis: VSTO-6G (5D, 7F)
 There are    29 symmetry adapted cartesian basis functions of A'  symmetry.
 There are     9 symmetry adapted cartesian basis functions of A"  symmetry.
 There are    29 symmetry adapted basis functions of A'  symmetry.
 There are     9 symmetry adapted basis functions of A"  symmetry.
    38 basis functions,   228 primitive gaussians,    38 cartesian basis functions
    24 alpha electrons       24 beta electrons
       nuclear repulsion energy       245.7268444507 Hartrees.
 Integral buffers will be    131072 words long.
 Regular integral format.
 Two-electron integral symmetry is turned off.
 Do NDO integrals.
 One-electron integrals computed using PRISM.
 NBasis=    38 RedAO= T EigKep=  1.00D+00  NBF=    29     9
 NBsUse=    38 1.00D-06 EigRej= -1.00D+00 NBFU=    29     9
 Initial guess from the checkpoint file:  "geometry_chks/1_34ClBzAnionIntermediate.chk"
 B after Tr=     0.000000   -0.000000   -0.000000
         Rot=    0.999991    0.000000    0.000000    0.004185 Ang=   0.48 deg.
 Initial guess orbital symmetries:
       Occupied  (A') (A') (A') (A') (A') (A') (A') (A') (A') (A')
                 (A') (A") (A') (A') (A") (A") (A') (A') (A") (A')
                 (A') (A") (A") (A')
       Virtual   (A") (A') (A") (A') (A') (A') (A") (A') (A') (A')
                 (A') (A') (A') (A')
 Keep J ints in memory in canonical form, NReq=863588.
 Overlap will be assumed to be unity.
 Requested convergence on RMS density matrix=1.00D-08 within**** cycles.
 Requested convergence on MAX density matrix=1.00D-06.
 Requested convergence on             energy=1.00D-06.
 No special actions if energy rises.
 Fock symm off for IB=2 I1=    1 I=   30 J=   23 Cut=1.00D-07 Err=2.02D-03
 Fock matrix is not symmetric: symmetry in diagonalization turned off.
 SCF Done:  E(RAM1) =  0.375365355005E-01 A.U. after   14 cycles
            NFock= 13  Conv=0.84D-08     -V/T= 1.0003
 Calling FoFJK, ICntrl=      2127 FMM=F ISym2X=1 I1Cent= 0 IOpClX= 0 NMat=1 NMatS=1 NMatT=0.
 ***** Axes restored to original set *****
 -------------------------------------------------------------------
 Center     Atomic                   Forces (Hartrees/Bohr)
 Number     Number              X              Y              Z
 -------------------------------------------------------------------
      1        6           0.019104032   -0.011624876   -0.000000000
      2        6           0.003910579   -0.065722018   -0.000000000
      3        6          -0.059611278   -0.040047164   -0.000000000
      4        6          -0.031240252    0.013781759   -0.000000000
      5        6           0.003567883    0.022085374   -0.000000000
      6        6           0.022610061    0.011312898    0.000000000
      7       17           0.002528898    0.001825155    0.000000000
      8       17          -0.002547662    0.001848646    0.000000000
      9       17           0.000380863    0.001342538    0.000000000
     10        1          -0.000626334    0.039578073    0.000000000
     11        1           0.041923212    0.025619616    0.000000000
 -------------------------------------------------------------------
 Cartesian Forces:  Max     0.065722018 RMS     0.022224718

 GradGradGradGradGradGradGradGradGradGradGradGradGradGradGradGradGradGrad
 Berny optimization.
 Using GEDIIS/GDIIS optimizer.
 FormGI is forming the generalized inverse of G from B-inverse, IUseBI=4.
 Internal  Forces:  Max     0.049124750 RMS     0.013342602
 Search for a local minimum.
 Step number   5 out of a maximum of   57
 All quantities printed in internal units (Hartrees-Bohrs-Radians)
 Mixed Optimization -- RFO/linear search
 Update second derivatives using D2CorX and points    4    5
 DE= -2.46D-02 DEPred=-6.07D-02 R= 4.04D-01
 Trust test= 4.04D-01 RLast= 4.92D-01 DXMaxT set to 5.05D-01
 ITU=  0  0  0  1  0
 Use linear search instead of GDIIS.
     Eigenvalues ---    0.02011   0.02011   0.02011   0.02011   0.02011
     Eigenvalues ---    0.02011   0.02011   0.02011   0.06539   0.15993
     Eigenvalues ---    0.15999   0.19388   0.22446   0.24476   0.24975
     Eigenvalues ---    0.24999   0.25001   0.25043   0.28424   0.29033
     Eigenvalues ---    0.29058   0.40775   0.41554   0.44648   0.44656
     Eigenvalues ---    0.44671   0.73154
 RFO step:  Lambda=-8.87404617D-03 EMin= 2.01065758D-02
 Quartic linear search produced a step of -0.32351.
 Iteration  1 RMS(Cart)=  0.03325998 RMS(Int)=  0.00550771
 Iteration  2 RMS(Cart)=  0.00522446 RMS(Int)=  0.00018976
 Iteration  3 RMS(Cart)=  0.00000030 RMS(Int)=  0.00018976
 ClnCor:  largest displacement from symmetrization is 5.24D-09 for atom     4.
 Variable       Old X    -DE/DX   Delta X   Delta X   Delta X     New X
                                 (Linear)    (Quad)   (Total)
    R1        2.67030  -0.02345  -0.05766   0.04380  -0.01406   2.65624
    R2        2.65878  -0.02410  -0.03347   0.01079  -0.02256   2.63622
    R3        2.67653  -0.02682  -0.06689   0.04906  -0.01814   2.65839
    R4        1.97479   0.03958   0.06960   0.08271   0.15230   2.12710
    R5        2.68935  -0.02819  -0.04883   0.02324  -0.02570   2.66366
    R6        1.95478   0.04912   0.08008   0.15765   0.23773   2.19251
    R7        2.69273  -0.03069  -0.02765  -0.00872  -0.03616   2.65657
    R8        3.23830  -0.00312  -0.01182   0.01149  -0.00033   3.23797
    R9        2.68661  -0.02664  -0.01895  -0.01435  -0.03300   2.65361
   R10        3.23862  -0.00133  -0.00672   0.00862   0.00190   3.24052
   R11        3.25195  -0.00311  -0.01650   0.01790   0.00140   3.25336
    A1        2.05145  -0.00189  -0.01459   0.01640   0.00168   2.05313
    A2        2.12866   0.00036   0.01954  -0.02397  -0.00494   2.12373
    A3        2.07973  -0.00024  -0.00962   0.01198   0.00261   2.08235
    A4        2.07479  -0.00012  -0.00992   0.01199   0.00232   2.07711
    A5        2.08935  -0.00224   0.00896  -0.01757  -0.00903   2.08031
    A6        2.12009   0.00032  -0.00383   0.00490   0.00129   2.12138
    A7        2.07375   0.00193  -0.00514   0.01267   0.00775   2.08150
    A8        2.08128   0.00505  -0.00922   0.02465   0.01553   2.09681
    A9        2.08533  -0.00325   0.00229  -0.01093  -0.00869   2.07665
   A10        2.11657  -0.00180   0.00693  -0.01372  -0.00684   2.10973
   A11        2.08034  -0.00288  -0.00775   0.00176  -0.00546   2.07488
   A12        2.08337   0.00077   0.00317  -0.00133   0.00158   2.08495
   A13        2.11947   0.00212   0.00458  -0.00043   0.00388   2.12336
   A14        2.13529   0.00161   0.00306  -0.00126   0.00223   2.13751
   A15        2.07452  -0.00121  -0.00409   0.00318  -0.00113   2.07340
   A16        2.07337  -0.00041   0.00103  -0.00192  -0.00110   2.07227
    D1       -0.00000   0.00000   0.00000   0.00000   0.00000   0.00000
    D2        3.14159   0.00000   0.00000   0.00000   0.00000   3.14159
    D3        0.00000  -0.00000   0.00000  -0.00000   0.00000   0.00000
    D4        3.14159  -0.00000   0.00000  -0.00000   0.00000   3.14159
    D5        0.00000   0.00000   0.00000   0.00000   0.00000   0.00000
    D6        3.14159   0.00000   0.00000   0.00000   0.00000   3.14159
    D7        3.14159  -0.00000   0.00000  -0.00000   0.00000   3.14159
    D8        0.00000  -0.00000   0.00000  -0.00000   0.00000   0.00000
    D9       -0.00000  -0.00000   0.00000  -0.00000   0.00000   0.00000
   D10        3.14159   0.00000   0.00000   0.00000   0.00000   3.14159
   D11        3.14159  -0.00000   0.00000  -0.00000   0.00000   3.14159
   D12       -0.00000   0.00000   0.00000  -0.00000   0.00000   0.00000
   D13        0.00000   0.00000   0.00000   0.00000   0.00000   0.00000
   D14        3.14159   0.00000   0.00000   0.00000   0.00000   3.14159
   D15        3.14159  -0.00000   0.00000  -0.00000   0.00000   3.14159
   D16       -0.00000   0.00000   0.00000   0.00000   0.00000   0.00000
   D17       -0.00000   0.00000   0.00000   0.00000   0.00000   0.00000
   D18        3.14159   0.00000   0.00000   0.00000   0.00000   3.14159
   D19        3.14159  -0.00000   0.00000  -0.00000   0.00000   3.14159
   D20       -0.00000  -0.00000   0.00000  -0.00000   0.00000   0.00000
         Item               Value     Threshold  Converged?
 Maximum Force            0.049125     0.000450     NO 
 RMS     Force            0.013343     0.000300     NO 
 Maximum Displacement     0.175291     0.001800     NO 
 RMS     Displacement     0.037274     0.001200     NO 
 Predicted change in Energy=-1.066506D-02
 GradGradGradGradGradGradGradGradGradGradGradGradGradGradGradGradGradGrad

                          Input orientation:                          
 ---------------------------------------------------------------------
 Center     Atomic      Atomic             Coordinates (Angstroms)
 Number     Number       Type             X           Y           Z
 ---------------------------------------------------------------------
      1          6           0       -3.180917    0.292094   -0.000000
      2          6           0       -1.966643    1.000128    0.000000
      3          6           0       -0.725392    0.338108    0.000000
      4          6           0       -0.697841   -1.071169    0.000000
      5          6           0       -1.899569   -1.800630    0.000000
      6          6           0       -3.117381   -1.101487   -0.000000
      7         17           0       -4.586739   -1.998649   -0.000000
      8         17           0        0.816967   -1.871976    0.000000
      9         17           0       -1.845726   -3.514595   -0.000000
     10          1           0       -1.985041    2.125590    0.000000
     11          1           0        0.275513    0.924886    0.000000
 ---------------------------------------------------------------------
                    Distance matrix (angstroms):
                    1          2          3          4          5
     1  C    0.000000
     2  C    1.405622   0.000000
     3  C    2.455956   1.406761   0.000000
     4  C    2.832693   2.429018   1.409546   0.000000
     5  C    2.453843   2.801561   2.439855   1.405796   0.000000
     6  C    1.395028   2.396035   2.791782   2.419730   1.404233
     7  Cl   2.687719   3.982156   4.513362   3.997968   2.694456
     8  Cl   4.546017   3.999683   2.695059   1.713457   2.717473
     9  Cl   4.034056   4.516342   4.012289   2.699624   1.714810
    10  H    2.189024   1.125612   2.186735   3.446180   3.927151
    11  H    3.513878   2.243418   1.160224   2.220733   3.487036
                    6          7          8          9         10
     6  C    0.000000
     7  Cl   1.721602   0.000000
     8  Cl   4.009084   5.405191   0.000000
     9  Cl   2.727672   3.132291   3.128599   0.000000
    10  H    3.419973   4.876287   4.881781   5.641905   0.000000
    11  H    3.951951   5.673496   2.848791   4.920228   2.559648
                   11
    11  H    0.000000
 Stoichiometry    C6H2Cl3(1-)
 Framework group  CS[SG(C6H2Cl3)]
 Deg. of freedom    19
 Full point group                 CS      NOp   2
 Largest Abelian subgroup         CS      NOp   2
 Largest concise Abelian subgroup C1      NOp   1
                         Standard orientation:                         
 ---------------------------------------------------------------------
 Center     Atomic      Atomic             Coordinates (Angstroms)
 Number     Number       Type             X           Y           Z
 ---------------------------------------------------------------------
      1          6           0       -1.482582   -1.687713   -0.000000
      2          6           0       -0.344516   -2.512685   -0.000000
      3          6           0        0.956273   -1.977033    0.000000
      4          6           0        1.123457   -0.577436    0.000000
      5          6           0       -0.000000    0.267613    0.000000
      6          6           0       -1.281148   -0.307304   -0.000000
      7         17           0       -2.654283    0.731162   -0.000000
      8         17           0        2.710219    0.069187    0.000000
      9         17           0        0.223564    1.967787    0.000000
     10          1           0       -0.474444   -3.630773   -0.000000
     11          1           0        1.894048   -2.660186    0.000000
 ---------------------------------------------------------------------
 Rotational constants (GHZ):           1.5208022           0.8606750           0.5496238
 Standard basis: VSTO-6G (5D, 7F)
 There are    29 symmetry adapted cartesian basis functions of A'  symmetry.
 There are     9 symmetry adapted cartesian basis functions of A"  symmetry.
 There are    29 symmetry adapted basis functions of A'  symmetry.
 There are     9 symmetry adapted basis functions of A"  symmetry.
    38 basis functions,   228 primitive gaussians,    38 cartesian basis functions
    24 alpha electrons       24 beta electrons
       nuclear repulsion energy       246.1458323523 Hartrees.
 Integral buffers will be    131072 words long.
 Regular integral format.
 Two-electron integral symmetry is turned off.
 Do NDO integrals.
 One-electron integrals computed using PRISM.
 NBasis=    38 RedAO= T EigKep=  1.00D+00  NBF=    29     9
 NBsUse=    38 1.00D-06 EigRej= -1.00D+00 NBFU=    29     9
 Initial guess from the checkpoint file:  "geometry_chks/1_34ClBzAnionIntermediate.chk"
 B after Tr=    -0.000000    0.000000    0.000000
         Rot=    0.999990    0.000000    0.000000    0.004453 Ang=   0.51 deg.
 Initial guess orbital symmetries:
       Occupied  (A') (A') (A') (A') (A') (A') (A') (A') (A') (A')
[...]
 Calling FoFJK, ICntrl=      2127 FMM=F ISym2X=1 I1Cent= 0 IOpClX= 0 NMat=1 NMatS=1 NMatT=0.
 ***** Axes restored to original set *****
 -------------------------------------------------------------------
 Center     Atomic                   Forces (Hartrees/Bohr)
 Number     Number              X              Y              Z
 -------------------------------------------------------------------
      1        6           0.000061392   -0.000028963   -0.000000000
      2        6          -0.000094749    0.000024171   -0.000000000
      3        6           0.000005437    0.000009290   -0.000000000
      4        6          -0.000044176   -0.000045721   -0.000000000
      5        6           0.000067047   -0.000100578    0.000000000
      6        6          -0.000090180    0.000078316   -0.000000000
      7       17           0.000023549   -0.000011420    0.000000000
      8       17           0.000029365   -0.000028410    0.000000000
      9       17          -0.000001559    0.000054516    0.000000000
     10        1           0.000002447    0.000026562    0.000000000
     11        1           0.000041428    0.000022236    0.000000000
 -------------------------------------------------------------------
 Cartesian Forces:  Max     0.000100578 RMS     0.000040994

 GradGradGradGradGradGradGradGradGradGradGradGradGradGradGradGradGradGrad
 Berny optimization.
 Using GEDIIS/GDIIS optimizer.
 FormGI is forming the generalized inverse of G from B-inverse, IUseBI=4.
 Internal  Forces:  Max     0.000072383 RMS     0.000024437
 Search for a local minimum.
 Step number  11 out of a maximum of   57
 All quantities printed in internal units (Hartrees-Bohrs-Radians)
 Mixed Optimization -- En-DIIS/RFO-DIIS
 Swapping is turned off.
 Update second derivatives using D2CorX and points    4    5    6    8    7
                                                      9   10   11
 DE= -2.24D-06 DEPred=-2.27D-06 R= 9.87D-01
 TightC=F SS=  1.41D+00  RLast= 2.94D-03 DXNew= 4.2426D-01 8.8160D-03
 Trust test= 9.87D-01 RLast= 2.94D-03 DXMaxT set to 2.52D-01
 ITU=  1  1  1 -1  1  0  0  0  0  1  0
     Eigenvalues ---    0.02011   0.02011   0.02011   0.02011   0.02011
     Eigenvalues ---    0.02011   0.02011   0.02011   0.15763   0.15984
     Eigenvalues ---    0.19564   0.22106   0.24711   0.24960   0.25015
     Eigenvalues ---    0.25255   0.27827   0.28631   0.29122   0.32422
     Eigenvalues ---    0.34458   0.42173   0.43514   0.44655   0.45983
     Eigenvalues ---    0.59118   0.78467
 En-DIIS/RFO-DIIS/Sim-DIIS IScMMF=       -3 using points:    11   10    9
 RFO step:  Lambda=-6.79958175D-08.
 DidBck=F Rises=F RFO-DIIS coefs:    0.98988    0.00852    0.00161
 Iteration  1 RMS(Cart)=  0.00007853 RMS(Int)=  0.00000000
 Iteration  2 RMS(Cart)=  0.00000000 RMS(Int)=  0.00000000
 ClnCor:  largest displacement from symmetrization is 1.26D-13 for atom     7.
 Variable       Old X    -DE/DX   Delta X   Delta X   Delta X     New X
                                 (Linear)    (Quad)   (Total)
    R1        2.63070  -0.00003   0.00000  -0.00010  -0.00010   2.63060
    R2        2.61970  -0.00002   0.00000  -0.00009  -0.00008   2.61962
    R3        2.63368   0.00007   0.00000   0.00010   0.00010   2.63378
    R4        2.07697   0.00003  -0.00001   0.00008   0.00007   2.07705
    R5        2.64569   0.00007   0.00000   0.00012   0.00012   2.64581
    R6        2.07672   0.00005   0.00002   0.00008   0.00010   2.07682
    R7        2.64961  -0.00002  -0.00000  -0.00005  -0.00005   2.64956
    R8        3.24481   0.00004  -0.00000   0.00015   0.00015   3.24495
    R9        2.65342   0.00006  -0.00001   0.00015   0.00014   2.65356
   R10        3.23915  -0.00005  -0.00000  -0.00018  -0.00018   3.23897
   R11        3.25370  -0.00001  -0.00000  -0.00005  -0.00005   3.25366
    A1        2.05732   0.00003  -0.00000   0.00013   0.00012   2.05744
    A2        2.12541  -0.00002   0.00000  -0.00010  -0.00010   2.12531
    A3        2.08035   0.00001  -0.00000   0.00007   0.00007   2.08042
    A4        2.07743   0.00001   0.00000   0.00003   0.00003   2.07746
    A5        2.08225  -0.00000   0.00000   0.00001   0.00001   2.08227
    A6        2.11683   0.00000  -0.00000   0.00000   0.00000   2.11683
    A7        2.08410  -0.00000  -0.00000  -0.00002  -0.00002   2.08409
    A8        2.10047  -0.00000  -0.00000   0.00002   0.00002   2.10049
    A9        2.06962   0.00002   0.00000   0.00005   0.00005   2.06967
   A10        2.11310  -0.00002   0.00000  -0.00007  -0.00007   2.11303
   A11        2.06406  -0.00001   0.00000  -0.00007  -0.00006   2.06400
   A12        2.09055   0.00000  -0.00000   0.00004   0.00003   2.09058
   A13        2.12857   0.00000  -0.00000   0.00003   0.00003   2.12860
   A14        2.13686   0.00000   0.00000  -0.00000  -0.00000   2.13686
   A15        2.07191   0.00003  -0.00000   0.00014   0.00014   2.07205
   A16        2.07441  -0.00004   0.00000  -0.00014  -0.00014   2.07427
    D1       -0.00000   0.00000   0.00000   0.00000   0.00000   0.00000
    D2        3.14159   0.00000   0.00000   0.00000   0.00000   3.14159
    D3        0.00000  -0.00000   0.00000  -0.00000   0.00000   0.00000
    D4        3.14159  -0.00000   0.00000  -0.00000   0.00000   3.14159
    D5       -0.00000  -0.00000   0.00000  -0.00000   0.00000   0.00000
    D6        3.14159   0.00000   0.00000   0.00000   0.00000   3.14159
    D7        3.14159  -0.00000   0.00000  -0.00000   0.00000   3.14159
    D8       -0.00000  -0.00000   0.00000  -0.00000   0.00000   0.00000
    D9        0.00000  -0.00000   0.00000  -0.00000   0.00000   0.00000
   D10        3.14159   0.00000   0.00000   0.00000   0.00000   3.14159
   D11        3.14159  -0.00000   0.00000  -0.00000   0.00000   3.14159
   D12        0.00000  -0.00000   0.00000  -0.00000  -0.00000   0.00000
   D13        0.00000   0.00000   0.00000   0.00000  -0.00000   0.00000
   D14        3.14159   0.00000   0.00000   0.00000   0.00000   3.14159
   D15        3.14159  -0.00000   0.00000  -0.00000   0.00000   3.14159
   D16       -0.00000  -0.00000   0.00000  -0.00000   0.00000   0.00000
   D17       -0.00000  -0.00000   0.00000  -0.00000   0.00000   0.00000
   D18        3.14159   0.00000   0.00000   0.00000   0.00000   3.14159
   D19        3.14159  -0.00000   0.00000  -0.00000   0.00000   3.14159
   D20        0.00000   0.00000   0.00000   0.00000   0.00000   0.00000
         Item               Value     Threshold  Converged?
 Maximum Force            0.000072     0.000450     YES
 RMS     Force            0.000024     0.000300     YES
 Maximum Displacement     0.000309     0.001800     YES
 RMS     Displacement     0.000079     0.001200     YES
 Predicted change in Energy=-3.706320D-08
 Optimization completed.
    -- Stationary point found.
                           ----------------------------
                           !   Optimized Parameters   !
                           ! (Angstroms and Degrees)  !
 --------------------------                            --------------------------
 ! Name  Definition              Value          Derivative Info.                !
 --------------------------------------------------------------------------------
 ! R1    R(1,2)                  1.3921         -DE/DX =    0.0                 !
 ! R2    R(1,6)                  1.3863         -DE/DX =    0.0                 !
 ! R3    R(2,3)                  1.3937         -DE/DX =    0.0001              !
 ! R4    R(2,10)                 1.0991         -DE/DX =    0.0                 !
 ! R5    R(3,4)                  1.4            -DE/DX =    0.0001              !
 ! R6    R(3,11)                 1.099          -DE/DX =    0.0                 !
 ! R7    R(4,5)                  1.4021         -DE/DX =    0.0                 !
 ! R8    R(4,8)                  1.7171         -DE/DX =    0.0                 !
 ! R9    R(5,6)                  1.4041         -DE/DX =    0.0001              !
 ! R10   R(5,9)                  1.7141         -DE/DX =   -0.0001              !
 ! R11   R(6,7)                  1.7218         -DE/DX =    0.0                 !
 ! A1    A(2,1,6)              117.8757         -DE/DX =    0.0                 !
 ! A2    A(1,2,3)              121.7768         -DE/DX =    0.0                 !
 ! A3    A(1,2,10)             119.195          -DE/DX =    0.0                 !
 ! A4    A(3,2,10)             119.0282         -DE/DX =    0.0                 !
 ! A5    A(2,3,4)              119.3042         -DE/DX =    0.0                 !
 ! A6    A(2,3,11)             121.2854         -DE/DX =    0.0                 !
 ! A7    A(4,3,11)             119.4103         -DE/DX =    0.0                 !
 ! A8    A(3,4,5)              120.3481         -DE/DX =    0.0                 !
 ! A9    A(3,4,8)              118.5802         -DE/DX =    0.0                 !
 ! A10   A(5,4,8)              121.0717         -DE/DX =    0.0                 !
 ! A11   A(4,5,6)              118.2622         -DE/DX =    0.0                 !
 ! A12   A(4,5,9)              119.7798         -DE/DX =    0.0                 !
 ! A13   A(6,5,9)              121.958          -DE/DX =    0.0                 !
 ! A14   A(1,6,5)              122.433          -DE/DX =    0.0                 !
 ! A15   A(1,6,7)              118.7118         -DE/DX =    0.0                 !
 ! A16   A(5,6,7)              118.8552         -DE/DX =    0.0                 !
 ! D1    D(6,1,2,3)              0.0            -DE/DX =    0.0                 !
 ! D2    D(6,1,2,10)           180.0            -DE/DX =    0.0                 !
 ! D3    D(2,1,6,5)              0.0            -DE/DX =    0.0                 !
 ! D4    D(2,1,6,7)            180.0            -DE/DX =    0.0                 !
 ! D5    D(1,2,3,4)              0.0            -DE/DX =    0.0                 !
 ! D6    D(1,2,3,11)           180.0            -DE/DX =    0.0                 !
 ! D7    D(10,2,3,4)           180.0            -DE/DX =    0.0                 !
 ! D8    D(10,2,3,11)            0.0            -DE/DX =    0.0                 !
 ! D9    D(2,3,4,5)              0.0            -DE/DX =    0.0                 !
 ! D10   D(2,3,4,8)            180.0            -DE/DX =    0.0                 !
 ! D11   D(11,3,4,5)           180.0            -DE/DX =    0.0                 !
 ! D12   D(11,3,4,8)             0.0            -DE/DX =    0.0                 !
 ! D13   D(3,4,5,6)              0.0            -DE/DX =    0.0                 !
 ! D14   D(3,4,5,9)            180.0            -DE/DX =    0.0                 !
 ! D15   D(8,4,5,6)            180.0            -DE/DX =    0.0                 !
 ! D16   D(8,4,5,9)              0.0            -DE/DX =    0.0                 !
 ! D17   D(4,5,6,1)              0.0            -DE/DX =    0.0                 !
 ! D18   D(4,5,6,7)            180.0            -DE/DX =    0.0                 !
 ! D19   D(9,5,6,1)            180.0            -DE/DX =    0.0                 !
 ! D20   D(9,5,6,7)              0.0            -DE/DX =    0.0                 !
 --------------------------------------------------------------------------------
 GradGradGradGradGradGradGradGradGradGradGradGradGradGradGradGradGradGrad

                          Input orientation:                          
 ---------------------------------------------------------------------
 Center     Atomic      Atomic             Coordinates (Angstroms)
 Number     Number       Type             X           Y           Z
 ---------------------------------------------------------------------
      1          6           0       -3.162532    0.294437   -0.000000
      2          6           0       -1.958419    0.993059    0.000000
      3          6           0       -0.729027    0.336594    0.000000
      4          6           0       -0.699630   -1.063136    0.000000
      5          6           0       -1.894473   -1.796807    0.000000
      6          6           0       -3.108194   -1.090786   -0.000000
      7         17           0       -4.584699   -1.976495   -0.000000
      8         17           0        0.825134   -1.852725    0.000000
      9         17           0       -1.841486   -3.510074   -0.000000
     10          1           0       -1.976202    2.092002    0.000000
     11          1           0        0.216758    0.896230    0.000000
 ---------------------------------------------------------------------
                    Distance matrix (angstroms):
                    1          2          3          4          5
     1  C    0.000000
     2  C    1.392107   0.000000
     3  C    2.433871   1.393682   0.000000
     4  C    2.812275   2.410910   1.400039   0.000000
     5  C    2.445665   2.790599   2.430981   1.402115   0.000000
     6  C    1.386288   2.379998   2.774500   2.408723   1.404131
     7  Cl   2.679494   3.964290   4.496287   3.990989   2.696220
     8  Cl   4.528994   3.980785   2.684871   1.717077   2.720182
     9  Cl   4.027339   4.504650   4.004300   2.700248   1.714085
    10  H    2.153746   1.099088   2.153347   3.403606   3.889668
    11  H    3.432457   2.177331   1.098954   2.163072   3.421951
                    6          7          8          9         10
     6  C    0.000000
     7  Cl   1.721787   0.000000
     8  Cl   4.006447   5.411248   0.000000
     9  Cl   2.730842   3.142782   3.139692   0.000000
    10  H    3.378098   4.832900   4.838218   5.603696   0.000000
    11  H    3.873440   5.595225   2.815471   4.863320   2.497788
                   11
    11  H    0.000000
 Stoichiometry    C6H2Cl3(1-)
 Framework group  CS[SG(C6H2Cl3)]
 Deg. of freedom    19
 Full point group                 CS      NOp   2
 Largest Abelian subgroup         CS      NOp   2
 Largest concise Abelian subgroup C1      NOp   1
                         Standard orientation:                         
 ---------------------------------------------------------------------
 Center     Atomic      Atomic             Coordinates (Angstroms)
 Number     Number       Type             X           Y           Z
 ---------------------------------------------------------------------
      1          6           0       -1.461793   -1.687835   -0.000000
      2          6           0       -0.329826   -2.498151   -0.000000
      3          6           0        0.956590   -1.961973    0.000000
      4          6           0        1.119396   -0.571433    0.000000
      5          6           0        0.000000    0.272888    0.000000
      6          6           0       -1.275543   -0.314116   -0.000000
      7         17           0       -2.660811    0.708422   -0.000000
      8         17           0        2.712536    0.069082    0.000000
      9         17           0        0.216202    1.973284    0.000000
     10          1           0       -0.452375   -3.590385   -0.000000
     11          1           0        1.844667   -2.609290    0.000000
 ---------------------------------------------------------------------
 Rotational constants (GHZ):           1.5309058           0.8608525           0.5510106

 **********************************************************************

            Population analysis using the SCF Density.

 **********************************************************************

 Orbital symmetries:
       Occupied  (A') (A') (A') (A') (A') (A') (A') (A') (A') (A')
                 (A') (A") (A') (A') (A") (A') (A") (A') (A') (A")
                 (A') (A") (A") (A')
       Virtual   (A") (A") (A') (A') (A') (A") (A') (A') (A') (A')
                 (A') (A') (A') (A')
 The electronic state is 1-A'.
 Alpha  occ. eigenvalues --   -1.28703  -1.23411  -1.21945  -1.19506  -0.97753
 Alpha  occ. eigenvalues --   -0.94535  -0.69494  -0.67224  -0.51174  -0.44713
 Alpha  occ. eigenvalues --   -0.44297  -0.39688  -0.39119  -0.35985  -0.33761
 Alpha  occ. eigenvalues --   -0.31839  -0.31544  -0.29711  -0.28772  -0.27552
 Alpha  occ. eigenvalues --   -0.26319  -0.18694  -0.16633  -0.11834
 Alpha virt. eigenvalues --    0.17058   0.18434   0.18621   0.20280   0.22700
 Alpha virt. eigenvalues --    0.28527   0.29522   0.31365   0.32743   0.33319
 Alpha virt. eigenvalues --    0.34496   0.35601   0.39022   0.40703
          Condensed to atoms (all electrons):
               1          2          3          4          5          6
     1  C    4.361533   0.000000   0.000000   0.000000   0.000000   0.000000
     2  C    0.000000   4.147088   0.000000   0.000000   0.000000   0.000000
     3  C    0.000000   0.000000   4.150169   0.000000   0.000000   0.000000
     4  C    0.000000   0.000000   0.000000   4.128802   0.000000   0.000000
     5  C    0.000000   0.000000   0.000000   0.000000   4.062543   0.000000
     6  C    0.000000   0.000000   0.000000   0.000000   0.000000   4.055105
     7  Cl   0.000000   0.000000   0.000000   0.000000   0.000000   0.000000
     8  Cl   0.000000   0.000000   0.000000   0.000000   0.000000   0.000000
     9  Cl   0.000000   0.000000   0.000000   0.000000   0.000000   0.000000
    10  H    0.000000   0.000000   0.000000   0.000000   0.000000   0.000000
    11  H    0.000000   0.000000   0.000000   0.000000   0.000000   0.000000
               7          8          9         10         11
     1  C    0.000000   0.000000   0.000000   0.000000   0.000000
     2  C    0.000000   0.000000   0.000000   0.000000   0.000000
     3  C    0.000000   0.000000   0.000000   0.000000   0.000000
     4  C    0.000000   0.000000   0.000000   0.000000   0.000000
     5  C    0.000000   0.000000   0.000000   0.000000   0.000000
     6  C    0.000000   0.000000   0.000000   0.000000   0.000000
     7  Cl   7.108229   0.000000   0.000000   0.000000   0.000000
     8  Cl   0.000000   7.098758   0.000000   0.000000   0.000000
     9  Cl   0.000000   0.000000   7.082863   0.000000   0.000000
    10  H    0.000000   0.000000   0.000000   0.904215   0.000000
    11  H    0.000000   0.000000   0.000000   0.000000   0.900696
 Mulliken charges:
               1
     1  C   -0.361533
     2  C   -0.147088
     3  C   -0.150169
     4  C   -0.128802
     5  C   -0.062543
     6  C   -0.055105
     7  Cl  -0.108229
     8  Cl  -0.098758
     9  Cl  -0.082863
    10  H    0.095785
    11  H    0.099304
 Sum of Mulliken charges =  -1.00000
 Mulliken charges with hydrogens summed into heavy atoms:
               1
     1  C   -0.361533
     2  C   -0.051303
     3  C   -0.050865
     4  C   -0.128802
     5  C   -0.062543
     6  C   -0.055105
     7  Cl  -0.108229
     8  Cl  -0.098758
     9  Cl  -0.082863
 Charge=             -1.0000 electrons
 Dipole moment (field-independent basis, Debye):
    X=              4.3234    Y=              3.3383    Z=              0.0000  Tot=              5.4622
 N-N= 2.466835471868D+02 E-N=-3.526295903302D+02  KE=-1.139947125417D+02
 Symmetry A'   KE=-8.794170702020D+01
 Symmetry A"   KE=-2.605300552146D+01
 1\1\GINC-SH03-01N18\FOpt\RAM1\ZDO\C6H2Cl3(1-)\JLAPIER\08-Dec-2025\0\\#
  opt am1 SCF(maxcyc=10000)\\Anion Intermediate (removed 2) 1_34\\-1,1\
 C,-3.1625322559,0.2944367513,0.\C,-1.9584187419,0.993058554,0.\C,-0.72
 90265358,0.3365943585,0.\C,-0.6996295899,-1.0631358142,0.\C,-1.8944731
 812,-1.7968073209,0.\C,-3.1081935631,-1.0907859413,0.\Cl,-4.5846990064
 ,-1.9764949697,0.\Cl,0.8251337784,-1.8527248685,0.\Cl,-1.841486496,-3.
 5100735435,0.\H,-1.9762023467,2.0920024429,0.\H,0.2167579386,0.8962303
 513,0.\\Version=ES64L-G16RevB.01\State=1-A'\HF=0.0293202\RMSD=2.298e-0
 9\RMSF=4.099e-05\Dipole=1.5679046,-1.4696655,0.\PG=CS [SG(C6H2Cl3)]\\@


 BE CAREFUL NOT TO BECOME TOO GOOD OF A SONGBIRD OR 
 THEY'LL THROW YOU INTO A CAGE.

                                    -- SNOOPY TO WOODSTOCK
 Job cpu time:       0 days  0 hours  0 minutes  3.3 seconds.
 Elapsed time:       0 days  0 hours  0 minutes 26.6 seconds.
 File lengths (MBytes):  RWF=     10 Int=      0 D2E=      0 Chk=      2 Scr=      1
 Normal termination of Gaussian 16 at Mon Dec  8 17:09:01 2025.
