 Entering Gaussian System, Link 0=g16
 Initial command:
 /share/software/user/restricted/gaussian/g16.B01/l1.exe "/home/users/jlapier/Chloroaromatics/Gau-13117.inp" -scrdir="/home/users/jlapier/Chloroaromatics/"
 Entering Link 1 = /share/software/user/restricted/gaussian/g16.B01/l1.exe PID=     13118.
  
 Copyright (c) 1988-2017, Gaussian, Inc.  All Rights Reserved.
  
 This is part of the Gaussian(R) 16 program.  It is based on
 the Gaussian(R) 09 system (copyright 2009, Gaussian, Inc.),
 the Gaussian(R) 03 system (copyright 2003, Gaussian, Inc.),
 the Gaussian(R) 98 system (copyright 1998, Gaussian, Inc.),
 the Gaussian(R) 94 system (copyright 1995, Gaussian, Inc.),
 the Gaussian 92(TM) system (copyright 1992, Gaussian, Inc.),
 the Gaussian 90(TM) system (copyright 1990, Gaussian, Inc.),
 the Gaussian 88(TM) system (copyright 1988, Gaussian, Inc.),
 the Gaussian 86(TM) system (copyright 1986, Carnegie Mellon
 University), and the Gaussian 82(TM) system (copyright 1983,
 Carnegie Mellon University). Gaussian is a federally registered
 trademark of Gaussian, Inc.
  
 This software contains proprietary and confidential information,
 including trade secrets, belonging to Gaussian, Inc.
  
 This software is provided under written license and may be
 used, copied, transmitted, or stored only in accord with that
 written license.
  
 The following legend is applicable only to US Government
 contracts under FAR:
  
                    RESTRICTED RIGHTS LEGEND
  
 Use, reproduction and disclosure by the US Government is
 subject to restrictions as set forth in subparagraphs (a)
 and (c) of the Commercial Computer Software - Restricted
 Rights clause in FAR 52.227-19.
  
 Gaussian, Inc.
 340 Quinnipiac St., Bldg. 40, Wallingford CT 06492
  
  
 ---------------------------------------------------------------
 Warning -- This program may not be used in any manner that
 competes with the business of Gaussian, Inc. or will provide
 assistance to any competitor of Gaussian, Inc.  The licensee
 of this program is prohibited from giving any competitor of
 Gaussian, Inc. access to this program.  By using this program,
 the user acknowledges that Gaussian, Inc. is engaged in the
 business of creating and licensing software in the field of
 computational chemistry and represents and warrants to the
 licensee that it is not a competitor of Gaussian, Inc. and that
 it will not use this program in any manner prohibited above.
 ---------------------------------------------------------------
  

 Cite this work as:
 Gaussian 16, Revision B.01,
 M. J. Frisch, G. W. Trucks, H. B. Schlegel, G. E. Scuseria, 
 M. A. Robb, J. R. Cheeseman, G. Scalmani, V. Barone, 
 G. A. Petersson, H. Nakatsuji, X. Li, M. Caricato, A. V. Marenich, 
 J. Bloino, B. G. Janesko, R. Gomperts, B. Mennucci, H. P. Hratchian, 
 J. V. Ortiz, A. F. Izmaylov, J. L. Sonnenberg, D. Williams-Young, 
 F. Ding, F. Lipparini, F. Egidi, J. Goings, B. Peng, A. Petrone, 
 T. Henderson, D. Ranasinghe, V. G. Zakrzewski, J. Gao, N. Rega, 
 G. Zheng, W. Liang, M. Hada, M. Ehara, K. Toyota, R. Fukuda, 
 J. Hasegawa, M. Ishida, T. Nakajima, Y. Honda, O. Kitao, H. Nakai, 
 T. Vreven, K. Throssell, J. A. Montgomery, Jr., J. E. Peralta, 
 F. Ogliaro, M. J. Bearpark, J. J. Heyd, E. N. Brothers, K. N. Kudin, 
 V. N. Staroverov, T. A. Keith, R. Kobayashi, J. Normand, 
 K. Raghavachari, A. P. Rendell, J. C. Burant, S. S. Iyengar, 
 J. Tomasi, M. Cossi, J. M. Millam, M. Klene, C. Adamo, R. Cammi, 
 J. W. Ochterski, R. L. Martin, K. Morokuma, O. Farkas, 
 J. B. Foresman, and D. J. Fox, Gaussian, Inc., Wallingford CT, 2016.
 
 ******************************************
 Gaussian 16:  ES64L-G16RevB.01 20-Dec-2017
                 8-Dec-2025 
 ******************************************
 %mem=2GB
 %nprocshare=1
 Will use up to    1 processors via shared memory.
 %chk=geometry_chks/1_345ClBzAnionIntermediate.chk
 ---------------------------
 # opt am1 SCF(maxcyc=10000)
 ---------------------------
 1/18=20,19=15,26=1,38=1/1,3;
 2/9=110,12=2,17=6,18=5,40=1/2;
 3/5=2,25=1,41=700000,71=1/1,2,3;
 4/35=1/1;
 5/5=2,7=10000,35=1,38=5/2;
 6/7=2,8=2,9=2,10=2,28=1/1;
 7//1,2,3,16;
 1/18=20,19=15,26=1/3(2);
 2/9=110/2;
 99//99;
 2/9=110/2;
 3/5=2,25=1,41=700000,71=1,135=20/1,2,3;
 4/5=5,16=3,35=1/1;
 5/5=2,7=10000,35=1,38=5/2;
 7//1,2,3,16;
 1/18=20,19=15,26=1/3(-5);
 2/9=110/2;
 6/7=2,8=2,9=2,10=2,19=2,28=1/1;
 99/9=1/99;
 ------------------------------------
 Anion Intermediate (removed 2) 1_345
 ------------------------------------
 Symbolic Z-matrix:
 Charge = -1 Multiplicity = 1
 C                    -3.20928   0.19943   0. 
 C                    -2.0115    0.93555   0. 
 C                    -0.77511   0.2663    0. 
 C                    -0.7365   -1.13907   0. 
 C                    -1.93429  -1.87519   0. 
 C                    -3.17067  -1.20594   0. 
 Cl                   -4.67483  -2.13035   0. 
 Cl                    0.81614  -1.97951   0. 
 Cl                   -1.8858   -3.64003   0. 
 Cl                   -2.05998   2.7004    0. 
 H                     0.72905   1.19071   0. 
 
 Add virtual bond connecting atoms H11        and C3         Dist= 3.34D+00.

 GradGradGradGradGradGradGradGradGradGradGradGradGradGradGradGradGradGrad
 Berny optimization.
 Initialization pass.
                           ----------------------------
                           !    Initial Parameters    !
                           ! (Angstroms and Degrees)  !
 --------------------------                            --------------------------
 ! Name  Definition              Value          Derivative Info.                !
 --------------------------------------------------------------------------------
 ! R1    R(1,2)                  1.4059         estimate D2E/DX2                !
 ! R2    R(1,6)                  1.4059         estimate D2E/DX2                !
 ! R3    R(2,3)                  1.4059         estimate D2E/DX2                !
 ! R4    R(2,10)                 1.7655         estimate D2E/DX2                !
 ! R5    R(3,4)                  1.4059         estimate D2E/DX2                !
 ! R6    R(3,11)                 1.7655         estimate D2E/DX2                !
 ! R7    R(4,5)                  1.4059         estimate D2E/DX2                !
 ! R8    R(4,8)                  1.7655         estimate D2E/DX2                !
 ! R9    R(5,6)                  1.4059         estimate D2E/DX2                !
 ! R10   R(5,9)                  1.7655         estimate D2E/DX2                !
 ! R11   R(6,7)                  1.7655         estimate D2E/DX2                !
 ! A1    A(2,1,6)              119.9999         estimate D2E/DX2                !
 ! A2    A(1,2,3)              120.0            estimate D2E/DX2                !
 ! A3    A(1,2,10)             120.0001         estimate D2E/DX2                !
 ! A4    A(3,2,10)             119.9999         estimate D2E/DX2                !
 ! A5    A(2,3,4)              120.0001         estimate D2E/DX2                !
 ! A6    A(2,3,11)             120.0            estimate D2E/DX2                !
 ! A7    A(4,3,11)             119.9999         estimate D2E/DX2                !
 ! A8    A(3,4,5)              119.9997         estimate D2E/DX2                !
 ! A9    A(3,4,8)              120.0003         estimate D2E/DX2                !
 ! A10   A(5,4,8)              120.0            estimate D2E/DX2                !
 ! A11   A(4,5,6)              120.0            estimate D2E/DX2                !
 ! A12   A(4,5,9)              119.9996         estimate D2E/DX2                !
 ! A13   A(6,5,9)              120.0004         estimate D2E/DX2                !
 ! A14   A(1,6,5)              120.0003         estimate D2E/DX2                !
 ! A15   A(1,6,7)              119.9999         estimate D2E/DX2                !
 ! A16   A(5,6,7)              119.9998         estimate D2E/DX2                !
 ! D1    D(6,1,2,3)              0.0            estimate D2E/DX2                !
 ! D2    D(6,1,2,10)           180.0            estimate D2E/DX2                !
 ! D3    D(2,1,6,5)              0.0            estimate D2E/DX2                !
 ! D4    D(2,1,6,7)            180.0            estimate D2E/DX2                !
 ! D5    D(1,2,3,4)              0.0            estimate D2E/DX2                !
 ! D6    D(1,2,3,11)           180.0            estimate D2E/DX2                !
 ! D7    D(10,2,3,4)           180.0            estimate D2E/DX2                !
 ! D8    D(10,2,3,11)            0.0            estimate D2E/DX2                !
 ! D9    D(2,3,4,5)              0.0            estimate D2E/DX2                !
 ! D10   D(2,3,4,8)            180.0            estimate D2E/DX2                !
 ! D11   D(11,3,4,5)           180.0            estimate D2E/DX2                !
 ! D12   D(11,3,4,8)             0.0            estimate D2E/DX2                !
 ! D13   D(3,4,5,6)              0.0            estimate D2E/DX2                !
 ! D14   D(3,4,5,9)            180.0            estimate D2E/DX2                !
 ! D15   D(8,4,5,6)            180.0            estimate D2E/DX2                !
 ! D16   D(8,4,5,9)              0.0            estimate D2E/DX2                !
 ! D17   D(4,5,6,1)              0.0            estimate D2E/DX2                !
 ! D18   D(4,5,6,7)            180.0            estimate D2E/DX2                !
 ! D19   D(9,5,6,1)            180.0            estimate D2E/DX2                !
 ! D20   D(9,5,6,7)              0.0            estimate D2E/DX2                !
 --------------------------------------------------------------------------------
 Trust Radius=3.00D-01 FncErr=1.00D-07 GrdErr=1.00D-07 EigMax=2.50D+02 EigMin=1.00D-04
 Number of steps in this run=     57 maximum allowed number of steps=    100.
 GradGradGradGradGradGradGradGradGradGradGradGradGradGradGradGradGradGrad

                          Input orientation:                          
 ---------------------------------------------------------------------
 Center     Atomic      Atomic             Coordinates (Angstroms)
 Number     Number       Type             X           Y           Z
 ---------------------------------------------------------------------
      1          6           0       -3.209280    0.199430    0.000000
      2          6           0       -2.011500    0.935550    0.000000
      3          6           0       -0.775110    0.266300    0.000000
      4          6           0       -0.736500   -1.139070    0.000000
      5          6           0       -1.934290   -1.875190    0.000000
      6          6           0       -3.170670   -1.205940    0.000000
      7         17           0       -4.674830   -2.130350    0.000000
      8         17           0        0.816140   -1.979510    0.000000
      9         17           0       -1.885800   -3.640030    0.000000
     10         17           0       -2.059980    2.700400    0.000000
     11          1           0        0.729050    1.190710    0.000000
 ---------------------------------------------------------------------
                    Distance matrix (angstroms):
                    1          2          3          4          5
     1  C    0.000000
     2  C    1.405898   0.000000
     3  C    2.435088   1.405900   0.000000
     4  C    2.811801   2.435092   1.405900   0.000000
     5  C    2.435087   2.811800   2.435093   1.405907   0.000000
     6  C    1.405900   2.435088   2.811796   2.435088   1.405892
     7  Cl   2.752401   4.061166   4.577308   4.061167   2.752393
     8  Cl   4.577312   4.061173   2.752406   1.765511   2.752408
     9  Cl   4.061164   4.577306   4.061163   2.752397   1.765506
    10  Cl   2.752406   1.765516   2.752405   4.061173   4.577316
    11  H    4.061167   2.752403   1.765512   2.752401   4.061173
                    6          7          8          9         10
     6  C    0.000000
     7  Cl   1.765512   0.000000
     8  Cl   4.061165   5.493041   0.000000
     9  Cl   2.752396   3.171407   3.171404   0.000000
    10  Cl   4.061173   5.493049   5.493052   6.342822   0.000000
    11  H    4.577308   6.342819   3.171416   5.493040   3.171412
                   11
    11  H    0.000000
 Stoichiometry    C6HCl4(1-)
 Framework group  CS[SG(C6HCl4)]
 Deg. of freedom    19
 Full point group                 CS      NOp   2
 Largest Abelian subgroup         CS      NOp   2
 Largest concise Abelian subgroup C1      NOp   1
                         Standard orientation:                         
 ---------------------------------------------------------------------
 Center     Atomic      Atomic             Coordinates (Angstroms)
 Number     Number       Type             X           Y           Z
 ---------------------------------------------------------------------
      1          6           0       -1.243704   -1.201312    0.000000
      2          6           0       -0.026163   -1.904264    0.000000
      3          6           0        1.191384   -1.201316    0.000000
      4          6           0        1.191389    0.204584   -0.000000
      5          6           0       -0.026163    0.907536   -0.000000
      6          6           0       -1.243699    0.204589   -0.000000
      7         17           0       -2.772676    1.087347   -0.000000
      8         17           0        2.720366    1.087342   -0.000000
      9         17           0       -0.026152    2.673042   -0.000000
     10         17           0       -0.026163   -3.669780    0.000000
     11          1           0        2.720360   -2.084074    0.000000
 ---------------------------------------------------------------------
 Rotational constants (GHZ):           0.8337214           0.5634320           0.3362160
 Standard basis: VSTO-6G (5D, 7F)
 There are    31 symmetry adapted cartesian basis functions of A'  symmetry.
 There are    10 symmetry adapted cartesian basis functions of A"  symmetry.
 There are    31 symmetry adapted basis functions of A'  symmetry.
 There are    10 symmetry adapted basis functions of A"  symmetry.
    41 basis functions,   246 primitive gaussians,    41 cartesian basis functions
    27 alpha electrons       27 beta electrons
       nuclear repulsion energy       291.4421986216 Hartrees.
 Integral buffers will be    131072 words long.
 Regular integral format.
 Two-electron integral symmetry is turned off.
 Do NDO integrals.
 One-electron integrals computed using PRISM.
 NBasis=    41 RedAO= T EigKep=  1.00D+00  NBF=    31    10
 NBsUse=    41 1.00D-06 EigRej= -1.00D+00 NBFU=    31    10
 Simple Huckel Guess.
 Initial guess orbital symmetries:
       Occupied  (A') (A') (A') (A') (A') (A') (A') (A') (A') (A')
                 (A") (A') (A') (A') (A") (A') (A") (A') (A") (A')
                 (A") (A') (A') (A') (A") (A") (A')
       Virtual   (A") (A') (A") (A") (A') (A') (A') (A') (A') (A')
                 (A') (A') (A') (A')
 The electronic state of the initial guess is 1-A'.
 Keep J ints in memory in canonical form, NReq=864464.
 Overlap will be assumed to be unity.
 Requested convergence on RMS density matrix=1.00D-08 within**** cycles.
 Requested convergence on MAX density matrix=1.00D-06.
 Requested convergence on             energy=1.00D-06.
 No special actions if energy rises.
 Fock symm off for IB=2 I1=    1 I=   32 J=   31 Cut=1.00D-07 Err=7.72D-03
 Fock matrix is not symmetric: symmetry in diagonalization turned off.
 SCF Done:  E(RAM1) =  0.138214745774     A.U. after   17 cycles
            NFock= 16  Conv=0.49D-08     -V/T= 1.0010

 **********************************************************************

            Population analysis using the SCF Density.

 **********************************************************************

 Orbital symmetries:
       Occupied  (A') (A') (A') (A') (A') (A') (A') (A') (A') (A')
                 (A') (A') (A") (A') (A') (A") (A") (A") (A') (A')
                 (A') (A') (A") (A') (A") (A") (A')
       Virtual   (A') (A") (A') (A") (A') (A') (A') (A") (A') (A')
                 (A') (A') (A') (A')
 The electronic state is 1-A'.
 Alpha  occ. eigenvalues --   -1.28105  -1.23550  -1.22761  -1.21585  -1.19126
 Alpha  occ. eigenvalues --   -0.96580  -0.94586  -0.69120  -0.66996  -0.51580
 Alpha  occ. eigenvalues --   -0.45986  -0.44532  -0.40350  -0.39058  -0.37139
 Alpha  occ. eigenvalues --   -0.34285  -0.34043  -0.31987  -0.31922  -0.30732
 Alpha  occ. eigenvalues --   -0.29274  -0.28501  -0.27556  -0.26845  -0.19856
 Alpha  occ. eigenvalues --   -0.18124  -0.13529
 Alpha virt. eigenvalues --    0.14017   0.15046   0.16539   0.16861   0.17592
 Alpha virt. eigenvalues --    0.20200   0.21001   0.26116   0.30242   0.30617
 Alpha virt. eigenvalues --    0.32180   0.33079   0.35607   0.38004
          Condensed to atoms (all electrons):
               1          2          3          4          5          6
     1  C    4.317249   0.000000   0.000000   0.000000   0.000000   0.000000
     2  C    0.000000   4.055657   0.000000   0.000000   0.000000   0.000000
     3  C    0.000000   0.000000   4.105107   0.000000   0.000000   0.000000
     4  C    0.000000   0.000000   0.000000   4.118229   0.000000   0.000000
     5  C    0.000000   0.000000   0.000000   0.000000   4.032221   0.000000
     6  C    0.000000   0.000000   0.000000   0.000000   0.000000   4.052639
     7  Cl   0.000000   0.000000   0.000000   0.000000   0.000000   0.000000
     8  Cl   0.000000   0.000000   0.000000   0.000000   0.000000   0.000000
     9  Cl   0.000000   0.000000   0.000000   0.000000   0.000000   0.000000
    10  Cl   0.000000   0.000000   0.000000   0.000000   0.000000   0.000000
    11  H    0.000000   0.000000   0.000000   0.000000   0.000000   0.000000
               7          8          9         10         11
     1  C    0.000000   0.000000   0.000000   0.000000   0.000000
     2  C    0.000000   0.000000   0.000000   0.000000   0.000000
     3  C    0.000000   0.000000   0.000000   0.000000   0.000000
     4  C    0.000000   0.000000   0.000000   0.000000   0.000000
     5  C    0.000000   0.000000   0.000000   0.000000   0.000000
     6  C    0.000000   0.000000   0.000000   0.000000   0.000000
     7  Cl   7.098397   0.000000   0.000000   0.000000   0.000000
     8  Cl   0.000000   7.096638   0.000000   0.000000   0.000000
     9  Cl   0.000000   0.000000   7.098019   0.000000   0.000000
    10  Cl   0.000000   0.000000   0.000000   7.116371   0.000000
    11  H    0.000000   0.000000   0.000000   0.000000   0.909472
 Mulliken charges:
               1
     1  C   -0.317249
     2  C   -0.055657
     3  C   -0.105107
     4  C   -0.118229
     5  C   -0.032221
     6  C   -0.052639
     7  Cl  -0.098397
     8  Cl  -0.096638
     9  Cl  -0.098019
    10  Cl  -0.116371
    11  H    0.090528
 Sum of Mulliken charges =  -1.00000
 Mulliken charges with hydrogens summed into heavy atoms:
               1
     1  C   -0.317249
     2  C   -0.055657
     3  C   -0.014579
     4  C   -0.118229
     5  C   -0.032221
     6  C   -0.052639
     7  Cl  -0.098397
     8  Cl  -0.096638
     9  Cl  -0.098019
    10  Cl  -0.116371
 Charge=             -1.0000 electrons
 Dipole moment (field-independent basis, Debye):
    X=              3.7402    Y=              2.6472    Z=              0.0000  Tot=              4.5822
 N-N= 2.914421986216D+02 E-N=-4.164301749538D+02  KE=-1.356236214993D+02
 Symmetry A'   KE=-1.039571467701D+02
 Symmetry A"   KE=-3.166647472921D+01
 Calling FoFJK, ICntrl=      2127 FMM=F ISym2X=1 I1Cent= 0 IOpClX= 0 NMat=1 NMatS=1 NMatT=0.
 ***** Axes restored to original set *****
 -------------------------------------------------------------------
 Center     Atomic                   Forces (Hartrees/Bohr)
 Number     Number              X              Y              Z
 -------------------------------------------------------------------
      1        6           0.009020502   -0.004738901   -0.000000000
      2        6           0.007243166   -0.011595768   -0.000000000
      3        6           0.062186920    0.044016259   -0.000000000
      4        6           0.019861162    0.010685543   -0.000000000
      5        6          -0.006149298   -0.020915159   -0.000000000
      6        6           0.000776381    0.014331710    0.000000000
      7       17           0.024992696    0.016622561    0.000000000
      8       17          -0.024535953    0.016488632    0.000000000
      9       17           0.001576413    0.025810299    0.000000000
     10       17           0.002563816   -0.029032651    0.000000000
     11        1          -0.097535804   -0.061672525    0.000000000
 -------------------------------------------------------------------
 Cartesian Forces:  Max     0.097535804 RMS     0.026908933

 GradGradGradGradGradGradGradGradGradGradGradGradGradGradGradGradGradGrad
 Berny optimization.
 FormGI is forming the generalized inverse of G from B-inverse, IUseBI=4.
 Internal  Forces:  Max     0.115388738 RMS     0.021481192
 Search for a local minimum.
 Step number   1 out of a maximum of   57
 All quantities printed in internal units (Hartrees-Bohrs-Radians)
 Mixed Optimization -- RFO/linear search
 Second derivative matrix not updated -- first step.
 ITU=  0
     Eigenvalues ---    0.02011   0.02011   0.02011   0.02011   0.02011
     Eigenvalues ---    0.02011   0.02011   0.02011   0.06524   0.16000
     Eigenvalues ---    0.23485   0.25000   0.25000   0.25000   0.25000
     Eigenvalues ---    0.25000   0.25000   0.29033   0.29033   0.29033
     Eigenvalues ---    0.29034   0.41081   0.41568   0.44656   0.44657
     Eigenvalues ---    0.44657   0.44657
 RFO step:  Lambda=-9.94182623D-02 EMin= 2.01065791D-02
 Linear search not attempted -- first point.
 Maximum step size (   0.300) exceeded in Quadratic search.
    -- Step size scaled by   0.411
 Iteration  1 RMS(Cart)=  0.03807456 RMS(Int)=  0.01280908
 Iteration  2 RMS(Cart)=  0.01219168 RMS(Int)=  0.00001011
 Iteration  3 RMS(Cart)=  0.00000158 RMS(Int)=  0.00001007
 Iteration  4 RMS(Cart)=  0.00000000 RMS(Int)=  0.00001007
 ClnCor:  largest displacement from symmetrization is 1.60D-10 for atom    11.
 Variable       Old X    -DE/DX   Delta X   Delta X   Delta X     New X
                                 (Linear)    (Quad)   (Total)
    R1        2.65676  -0.02821   0.00000  -0.02157  -0.02156   2.63520
    R2        2.65677  -0.02666   0.00000  -0.01975  -0.01976   2.63701
    R3        2.65677  -0.03450   0.00000  -0.02661  -0.02659   2.63017
    R4        3.33634  -0.02909   0.00000  -0.03066  -0.03066   3.30568
    R5        2.65677  -0.03588   0.00000  -0.02730  -0.02729   2.62947
    R6        3.33633  -0.11539   0.00000  -0.28781  -0.28781   3.04852
    R7        2.65678  -0.01382   0.00000  -0.01004  -0.01005   2.64672
    R8        3.33633  -0.02943   0.00000  -0.03101  -0.03101   3.30532
    R9        2.65675  -0.01158   0.00000  -0.00805  -0.00807   2.64868
   R10        3.33632  -0.02576   0.00000  -0.02714  -0.02714   3.30918
   R11        3.33633  -0.03000   0.00000  -0.03161  -0.03161   3.30472
    A1        2.09439  -0.01314   0.00000  -0.01571  -0.01571   2.07868
    A2        2.09439   0.00869   0.00000   0.00849   0.00852   2.10291
    A3        2.09440  -0.00140   0.00000  -0.00078  -0.00080   2.09360
    A4        2.09439  -0.00729   0.00000  -0.00771  -0.00772   2.08667
    A5        2.09440   0.00829   0.00000   0.00886   0.00888   2.10328
    A6        2.09440  -0.00169   0.00000  -0.00054  -0.00055   2.09385
    A7        2.09439  -0.00661   0.00000  -0.00832  -0.00833   2.08606
    A8        2.09439  -0.00572   0.00000  -0.00677  -0.00677   2.08762
    A9        2.09440  -0.00184   0.00000  -0.00215  -0.00214   2.09226
   A10        2.09440   0.00757   0.00000   0.00892   0.00892   2.10331
   A11        2.09439  -0.00796   0.00000  -0.00786  -0.00789   2.08651
   A12        2.09439   0.00017   0.00000  -0.00055  -0.00054   2.09385
   A13        2.09440   0.00779   0.00000   0.00841   0.00842   2.10283
   A14        2.09440   0.00984   0.00000   0.01300   0.01297   2.10737
   A15        2.09439  -0.00672   0.00000  -0.00861  -0.00860   2.08580
   A16        2.09439  -0.00313   0.00000  -0.00439  -0.00438   2.09002
    D1        0.00000  -0.00000   0.00000   0.00000   0.00000   0.00000
    D2        3.14159   0.00000   0.00000   0.00000   0.00000   3.14159
    D3       -0.00000  -0.00000   0.00000  -0.00000   0.00000   0.00000
    D4        3.14159  -0.00000   0.00000  -0.00000   0.00000   3.14159
    D5       -0.00000   0.00000   0.00000   0.00000   0.00000   0.00000
    D6        3.14159   0.00000   0.00000   0.00000   0.00000   3.14159
    D7        3.14159  -0.00000   0.00000  -0.00000   0.00000   3.14159
    D8        0.00000   0.00000   0.00000   0.00000   0.00000   0.00000
    D9        0.00000  -0.00000   0.00000  -0.00000  -0.00000   0.00000
   D10        3.14159   0.00000   0.00000   0.00000   0.00000   3.14159
   D11        3.14159  -0.00000   0.00000  -0.00000   0.00000   3.14159
   D12        0.00000  -0.00000   0.00000  -0.00000  -0.00000   0.00000
   D13       -0.00000   0.00000   0.00000   0.00000   0.00000   0.00000
   D14        3.14159   0.00000   0.00000   0.00000   0.00000   3.14159
   D15        3.14159  -0.00000   0.00000  -0.00000   0.00000   3.14159
   D16       -0.00000   0.00000   0.00000   0.00000   0.00000   0.00000
   D17        0.00000   0.00000   0.00000   0.00000   0.00000   0.00000
   D18        3.14159   0.00000   0.00000   0.00000   0.00000   3.14159
   D19        3.14159  -0.00000   0.00000  -0.00000   0.00000   3.14159
   D20        0.00000   0.00000   0.00000   0.00000  -0.00000   0.00000
         Item               Value     Threshold  Converged?
 Maximum Force            0.115389     0.000450     NO 
 RMS     Force            0.021481     0.000300     NO 
 Maximum Displacement     0.249786     0.001800     NO 
 RMS     Displacement     0.049158     0.001200     NO 
 Predicted change in Energy=-3.692051D-02
 GradGradGradGradGradGradGradGradGradGradGradGradGradGradGradGradGradGrad

                          Input orientation:                          
 ---------------------------------------------------------------------
 Center     Atomic      Atomic             Coordinates (Angstroms)
 Number     Number       Type             X           Y           Z
 ---------------------------------------------------------------------
      1          6           0       -3.196561    0.206207   -0.000000
      2          6           0       -2.001334    0.924558   -0.000000
      3          6           0       -0.778236    0.260317   -0.000000
      4          6           0       -0.729592   -1.130290    0.000000
      5          6           0       -1.922316   -1.864492    0.000000
      6          6           0       -3.150132   -1.188466    0.000000
      7         17           0       -4.642584   -2.099967    0.000000
      8         17           0        0.816576   -1.948046    0.000000
      9         17           0       -1.872009   -3.614912    0.000000
     10         17           0       -2.033452    2.673556   -0.000000
     11          1           0        0.596869    1.103836   -0.000000
 ---------------------------------------------------------------------
                    Distance matrix (angstroms):
                    1          2          3          4          5
     1  C    0.000000
     2  C    1.394487   0.000000
     3  C    2.418930   1.391828   0.000000
     4  C    2.805737   2.416553   1.391458   0.000000
     5  C    2.431356   2.790168   2.413240   1.400586   0.000000
     6  C    1.395446   2.405121   2.779363   2.421239   1.401622
     7  Cl   2.722026   4.015464   4.528148   4.031350   2.730441
     8  Cl   4.554786   4.023987   2.724021   1.749102   2.740166
     9  Cl   4.044180   4.541312   4.026629   2.734678   1.751143
    10  Cl   2.727752   1.749293   2.720163   4.021106   4.539408
    11  H    3.898185   2.604381   1.613207   2.598234   3.893232
                    6          7          8          9         10
     6  C    0.000000
     7  Cl   1.748785   0.000000
     8  Cl   4.038778   5.461273   0.000000
     9  Cl   2.742488   3.157712   3.163374   0.000000
    10  Cl   4.020222   5.440045   5.429720   6.290540   0.000000
    11  H    4.392569   6.141353   3.059780   5.325593   3.063104
                   11
    11  H    0.000000
 Stoichiometry    C6HCl4(1-)
 Framework group  CS[SG(C6HCl4)]
 Deg. of freedom    19
 Full point group                 CS      NOp   2
 Largest Abelian subgroup         CS      NOp   2
 Largest concise Abelian subgroup C1      NOp   1
                         Standard orientation:                         
 ---------------------------------------------------------------------
 Center     Atomic      Atomic             Coordinates (Angstroms)
 Number     Number       Type             X           Y           Z
 ---------------------------------------------------------------------
      1          6           0       -1.281538   -1.158538   -0.000000
      2          6           0       -0.088851   -1.881098   -0.000000
      3          6           0        1.136581   -1.221174   -0.000000
      4          6           0        1.190128    0.169253    0.000000
      5          6           0       -0.000000    0.907655    0.000000
      6          6           0       -1.230192    0.235962    0.000000
      7         17           0       -2.719421    1.152720    0.000000
      8         17           0        2.739169    0.981552    0.000000
      9         17           0        0.056478    2.657887    0.000000
     10         17           0       -0.127135   -3.629973   -0.000000
     11          1           0        2.508703   -2.069536   -0.000000
 ---------------------------------------------------------------------
 Rotational constants (GHZ):           0.8445478           0.5745427           0.3419294
 Standard basis: VSTO-6G (5D, 7F)
 There are    31 symmetry adapted cartesian basis functions of A'  symmetry.
 There are    10 symmetry adapted cartesian basis functions of A"  symmetry.
 There are    31 symmetry adapted basis functions of A'  symmetry.
 There are    10 symmetry adapted basis functions of A"  symmetry.
    41 basis functions,   246 primitive gaussians,    41 cartesian basis functions
    27 alpha electrons       27 beta electrons
       nuclear repulsion energy       293.1024443032 Hartrees.
 Integral buffers will be    131072 words long.
 Regular integral format.
 Two-electron integral symmetry is turned off.
 Do NDO integrals.
 One-electron integrals computed using PRISM.
 NBasis=    41 RedAO= T EigKep=  1.00D+00  NBF=    31    10
 NBsUse=    41 1.00D-06 EigRej= -1.00D+00 NBFU=    31    10
 Initial guess from the checkpoint file:  "geometry_chks/1_345ClBzAnionIntermediate.chk"
 B after Tr=     0.000000   -0.000000   -0.000000
         Rot=    0.999884    0.000000    0.000000    0.015199 Ang=   1.74 deg.
 Initial guess orbital symmetries:
       Occupied  (A') (A') (A') (A') (A') (A') (A') (A') (A') (A')
                 (A') (A') (A") (A') (A') (A") (A") (A") (A') (A')
                 (A') (A') (A") (A') (A") (A") (A')
       Virtual   (A') (A") (A') (A") (A') (A') (A') (A") (A') (A')
                 (A') (A') (A') (A')
 Keep J ints in memory in canonical form, NReq=864464.
 Overlap will be assumed to be unity.
 Requested convergence on RMS density matrix=1.00D-08 within**** cycles.
 Requested convergence on MAX density matrix=1.00D-06.
 Requested convergence on             energy=1.00D-06.
 No special actions if energy rises.
 Fock symm off for IB=2 I1=    1 I=   32 J=    6 Cut=1.00D-07 Err=1.12D-03
 Fock matrix is not symmetric: symmetry in diagonalization turned off.
 SCF Done:  E(RAM1) =  0.980420174728E-01 A.U. after   13 cycles
            NFock= 12  Conv=0.85D-08     -V/T= 1.0007
 Calling FoFJK, ICntrl=      2127 FMM=F ISym2X=1 I1Cent= 0 IOpClX= 0 NMat=1 NMatS=1 NMatT=0.
 ***** Axes restored to original set *****
 -------------------------------------------------------------------
 Center     Atomic                   Forces (Hartrees/Bohr)
 Number     Number              X              Y              Z
 -------------------------------------------------------------------
      1        6           0.000458854   -0.001941763    0.000000000
      2        6           0.001779777   -0.000172517   -0.000000000
      3        6           0.087865553    0.058749983   -0.000000000
      4        6           0.020108610    0.000806747   -0.000000000
      5        6          -0.005949332   -0.023148344   -0.000000000
      6        6          -0.004225244    0.007312619   -0.000000000
      7       17           0.016494296    0.010895861    0.000000000
      8       17          -0.017283383    0.011552860    0.000000000
      9       17           0.001216092    0.019097900    0.000000000
     10       17           0.001853463   -0.018809610    0.000000000
     11        1          -0.102318686   -0.064343735    0.000000000
 -------------------------------------------------------------------
 Cartesian Forces:  Max     0.102318686 RMS     0.029326950

 GradGradGradGradGradGradGradGradGradGradGradGradGradGradGradGradGradGrad
 Berny optimization.
 Using GEDIIS/GDIIS optimizer.
 FormGI is forming the generalized inverse of G from B-inverse, IUseBI=4.
 Internal  Forces:  Max     0.120861150 RMS     0.019104807
 Search for a local minimum.
 Step number   2 out of a maximum of   57
 All quantities printed in internal units (Hartrees-Bohrs-Radians)
 Mixed Optimization -- RFO/linear search
 Update second derivatives using D2CorX and points    1    2
 DE= -4.02D-02 DEPred=-3.69D-02 R= 1.09D+00
 TightC=F SS=  1.41D+00  RLast= 3.00D-01 DXNew= 5.0454D-01 9.0000D-01
 Trust test= 1.09D+00 RLast= 3.00D-01 DXMaxT set to 5.05D-01
 ITU=  1  0
 Use linear search instead of GDIIS.
 Linear search step of   0.600 exceeds DXMaxT=   0.505 but not scaled.
 Quartic linear search produced a step of  2.00000.
 Iteration  1 RMS(Cart)=  0.05329826 RMS(Int)=  0.05479133
 Iteration  2 RMS(Cart)=  0.02774221 RMS(Int)=  0.02561796
 Iteration  3 RMS(Cart)=  0.02441166 RMS(Int)=  0.00006202
 Iteration  4 RMS(Cart)=  0.00000855 RMS(Int)=  0.00006177
 Iteration  5 RMS(Cart)=  0.00000000 RMS(Int)=  0.00006177
 ClnCor:  largest displacement from symmetrization is 7.93D-09 for atom     7.
 Variable       Old X    -DE/DX   Delta X   Delta X   Delta X     New X
                                 (Linear)    (Quad)   (Total)
    R1        2.63520  -0.01168  -0.04313   0.00000  -0.04306   2.59214
    R2        2.63701  -0.01202  -0.03951   0.00000  -0.03956   2.59745
    R3        2.63017  -0.01385  -0.05319   0.00000  -0.05308   2.57709
    R4        3.30568  -0.01884  -0.06131   0.00000  -0.06131   3.24437
    R5        2.62947  -0.01413  -0.05459   0.00000  -0.05454   2.57493
    R6        3.04852  -0.12086  -0.57563   0.00000  -0.57563   2.47289
    R7        2.64672  -0.00148  -0.02011   0.00000  -0.02017   2.62655
    R8        3.30532  -0.02068  -0.06202   0.00000  -0.06202   3.24331
    R9        2.64868  -0.00177  -0.01614   0.00000  -0.01624   2.63244
   R10        3.30918  -0.01906  -0.05428   0.00000  -0.05428   3.25490
   R11        3.30472  -0.01976  -0.06322   0.00000  -0.06322   3.24151
    A1        2.07868  -0.00768  -0.03142   0.00000  -0.03139   2.04730
    A2        2.10291   0.00535   0.01703   0.00000   0.01720   2.12011
    A3        2.09360  -0.00018  -0.00159   0.00000  -0.00167   2.09193
    A4        2.08667  -0.00517  -0.01544   0.00000  -0.01552   2.07115
    A5        2.10328   0.00428   0.01776   0.00000   0.01790   2.12118
    A6        2.09385  -0.00009  -0.00110   0.00000  -0.00117   2.09268
    A7        2.08606  -0.00419  -0.01667   0.00000  -0.01674   2.06932
    A8        2.08762  -0.00352  -0.01355   0.00000  -0.01357   2.07405
    A9        2.09226  -0.00176  -0.00429   0.00000  -0.00428   2.08798
   A10        2.10331   0.00528   0.01783   0.00000   0.01785   2.12116
   A11        2.08651  -0.00549  -0.01577   0.00000  -0.01594   2.07056
   A12        2.09385  -0.00018  -0.00107   0.00000  -0.00099   2.09286
   A13        2.10283   0.00566   0.01685   0.00000   0.01693   2.11976
   A14        2.10737   0.00706   0.02594   0.00000   0.02580   2.13317
   A15        2.08580  -0.00469  -0.01719   0.00000  -0.01712   2.06868
   A16        2.09002  -0.00237  -0.00875   0.00000  -0.00868   2.08134
    D1       -0.00000  -0.00000   0.00000   0.00000   0.00000   0.00000
    D2        3.14159   0.00000   0.00000   0.00000   0.00000   3.14159
    D3        0.00000   0.00000   0.00000   0.00000   0.00000   0.00000
    D4        3.14159  -0.00000   0.00000   0.00000   0.00000   3.14159
    D5        0.00000   0.00000   0.00000   0.00000   0.00000   0.00000
    D6        3.14159   0.00000   0.00000   0.00000   0.00000   3.14159
    D7        3.14159  -0.00000   0.00000   0.00000   0.00000   3.14159
    D8       -0.00000   0.00000   0.00000   0.00000   0.00000   0.00000
    D9       -0.00000   0.00000   0.00000   0.00000   0.00000   0.00000
   D10        3.14159   0.00000   0.00000   0.00000   0.00000   3.14159
   D11        3.14159  -0.00000   0.00000   0.00000   0.00000   3.14159
   D12       -0.00000  -0.00000   0.00000   0.00000   0.00000   0.00000
   D13        0.00000  -0.00000   0.00000   0.00000   0.00000   0.00000
   D14        3.14159   0.00000   0.00000   0.00000   0.00000   3.14159
   D15        3.14159  -0.00000   0.00000   0.00000   0.00000   3.14159
   D16       -0.00000  -0.00000   0.00000   0.00000   0.00000   0.00000
   D17       -0.00000  -0.00000   0.00000   0.00000   0.00000   0.00000
   D18        3.14159   0.00000   0.00000   0.00000   0.00000   3.14159
   D19        3.14159  -0.00000   0.00000   0.00000   0.00000   3.14159
   D20        0.00000   0.00000   0.00000   0.00000   0.00000   0.00000
         Item               Value     Threshold  Converged?
 Maximum Force            0.120861     0.000450     NO 
 RMS     Force            0.019105     0.000300     NO 
 Maximum Displacement     0.499705     0.001800     NO 
 RMS     Displacement     0.098259     0.001200     NO 
 Predicted change in Energy=-7.436130D-02
 GradGradGradGradGradGradGradGradGradGradGradGradGradGradGradGradGradGrad

                          Input orientation:                          
 ---------------------------------------------------------------------
 Center     Atomic      Atomic             Coordinates (Angstroms)
 Number     Number       Type             X           Y           Z
 ---------------------------------------------------------------------
      1          6           0       -3.170304    0.219555   -0.000000
      2          6           0       -1.980721    0.902528   -0.000000
      3          6           0       -0.784130    0.248350   -0.000000
      4          6           0       -0.715921   -1.112537    0.000000
      5          6           0       -1.898428   -1.842969    0.000000
      6          6           0       -3.108914   -1.153588    0.000000
      7         17           0       -4.577906   -2.039266    0.000000
      8         17           0        0.816509   -1.885384    0.000000
      9         17           0       -1.844588   -3.564546    0.000000
     10         17           0       -1.980804    2.619376   -0.000000
     11          1           0        0.332436    0.930782   -0.000000
 ---------------------------------------------------------------------
                    Distance matrix (angstroms):
                    1          2          3          4          5
     1  C    0.000000
     2  C    1.371699   0.000000
     3  C    2.386348   1.363737   0.000000
     4  C    2.792573   2.379119   1.362595   0.000000
     5  C    2.423153   2.746730   2.369658   1.389912   0.000000
     6  C    1.374514   2.345299   2.714784   2.393346   1.393027
     7  Cl   2.661506   3.924222   4.430116   3.971619   2.686658
     8  Cl   4.508375   3.949297   2.667370   1.716284   2.715268
     9  Cl   4.009605   4.469147   3.957619   2.699303   1.722418
    10  Cl   2.678442   1.716848   2.655897   3.940444   4.463105
    11  H    3.574218   2.313330   1.308599   2.296563   3.559557
                    6          7          8          9         10
     6  C    0.000000
     7  Cl   1.715331   0.000000
     8  Cl   3.993053   5.396609   0.000000
     9  Cl   2.722359   3.130096   3.146589   0.000000
    10  Cl   3.938005   5.333655   5.302623   6.185421   0.000000
    11  H    4.023368   5.738697   2.857466   4.994738   2.863988
                   11
    11  H    0.000000
 Stoichiometry    C6HCl4(1-)
 Framework group  CS[SG(C6HCl4)]
 Deg. of freedom    19
 Full point group                 CS      NOp   2
 Largest Abelian subgroup         CS      NOp   2
 Largest concise Abelian subgroup C1      NOp   1
                         Standard orientation:                         
 ---------------------------------------------------------------------
 Center     Atomic      Atomic             Coordinates (Angstroms)
 Number     Number       Type             X           Y           Z
 ---------------------------------------------------------------------
      1          6           0       -1.287897   -1.145639    0.000000
      2          6           0       -0.103668   -1.837853    0.000000
      3          6           0        1.097981   -1.193013    0.000000
      4          6           0        1.176784    0.167302   -0.000000
      5          6           0       -0.000000    0.906919   -0.000000
      6          6           0       -1.215817    0.226984   -0.000000
      7         17           0       -2.677868    1.124073   -0.000000
      8         17           0        2.715185    0.928193   -0.000000
      9         17           0        0.067243    2.628024   -0.000000
     10         17           0       -0.117119   -3.554649    0.000000
     11          1           0        2.209199   -1.884118    0.000000
 ---------------------------------------------------------------------
 Rotational constants (GHZ):           0.8669782           0.5977803           0.3538211
 Standard basis: VSTO-6G (5D, 7F)
 There are    31 symmetry adapted cartesian basis functions of A'  symmetry.
 There are    10 symmetry adapted cartesian basis functions of A"  symmetry.
 There are    31 symmetry adapted basis functions of A'  symmetry.
 There are    10 symmetry adapted basis functions of A"  symmetry.
    41 basis functions,   246 primitive gaussians,    41 cartesian basis functions
    27 alpha electrons       27 beta electrons
       nuclear repulsion energy       296.5764539854 Hartrees.
 Integral buffers will be    131072 words long.
 Regular integral format.
 Two-electron integral symmetry is turned off.
 Do NDO integrals.
 One-electron integrals computed using PRISM.
 NBasis=    41 RedAO= T EigKep=  1.00D+00  NBF=    31    10
 NBsUse=    41 1.00D-06 EigRej= -1.00D+00 NBFU=    31    10
 Initial guess from the checkpoint file:  "geometry_chks/1_345ClBzAnionIntermediate.chk"
 B after Tr=    -0.000000   -0.000000    0.000000
         Rot=    0.999999   -0.000000    0.000000    0.001520 Ang=   0.17 deg.
 Initial guess orbital symmetries:
       Occupied  (A') (A') (A') (A') (A') (A') (A') (A') (A') (A')
                 (A') (A') (A") (A') (A') (A") (A") (A') (A") (A')
                 (A') (A') (A") (A') (A") (A") (A')
       Virtual   (A") (A') (A") (A') (A') (A') (A') (A") (A') (A')
                 (A') (A') (A') (A')
 Keep J ints in memory in canonical form, NReq=864464.
 Overlap will be assumed to be unity.
 Requested convergence on RMS density matrix=1.00D-08 within**** cycles.
 Requested convergence on MAX density matrix=1.00D-06.
 Requested convergence on             energy=1.00D-06.
 No special actions if energy rises.
 Fock symm off for IB=2 I1=    1 I=   32 J=    6 Cut=1.00D-07 Err=1.69D-03
 Fock matrix is not symmetric: symmetry in diagonalization turned off.
 SCF Done:  E(RAM1) =  0.335267944665E-01 A.U. after   14 cycles
            NFock= 13  Conv=0.27D-08     -V/T= 1.0002
 Calling FoFJK, ICntrl=      2127 FMM=F ISym2X=1 I1Cent= 0 IOpClX= 0 NMat=1 NMatS=1 NMatT=0.
 ***** Axes restored to original set *****
 -------------------------------------------------------------------
 Center     Atomic                   Forces (Hartrees/Bohr)
 Number     Number              X              Y              Z
 -------------------------------------------------------------------
      1        6          -0.019193311    0.005187547    0.000000000
      2        6          -0.014846219    0.025400668    0.000000000
      3        6           0.112127967    0.071917068   -0.000000000
      4        6           0.018283310   -0.026846389   -0.000000000
      5        6          -0.005539834   -0.028116365    0.000000000
      6        6          -0.014176814   -0.008630118   -0.000000000
      7       17          -0.002639888   -0.001758565    0.000000000
      8       17          -0.000615046    0.000516493   -0.000000000
      9       17           0.000459365    0.004037415    0.000000000
     10       17           0.000463288    0.004339792    0.000000000
     11        1          -0.074322818   -0.046047545    0.000000000
 -------------------------------------------------------------------
 Cartesian Forces:  Max     0.112127967 RMS     0.029566493

 GradGradGradGradGradGradGradGradGradGradGradGradGradGradGradGradGradGrad
 Berny optimization.
 Using GEDIIS/GDIIS optimizer.
 FormGI is forming the generalized inverse of G from B-inverse, IUseBI=4.
 Internal  Forces:  Max     0.087429833 RMS     0.016523274
 Search for a local minimum.
 Step number   3 out of a maximum of   57
 All quantities printed in internal units (Hartrees-Bohrs-Radians)
 Mixed Optimization -- RFO/linear search
 Update second derivatives using D2CorX and points    2    3
 ITU=  0  1  0
 Use linear search instead of GDIIS.
     Eigenvalues ---    0.02011   0.02011   0.02011   0.02011   0.02011
     Eigenvalues ---    0.02011   0.02011   0.02011   0.04903   0.15999
     Eigenvalues ---    0.23580   0.24949   0.25000   0.25000   0.25000
     Eigenvalues ---    0.25000   0.25193   0.28621   0.29033   0.29034
     Eigenvalues ---    0.29260   0.41115   0.41509   0.44640   0.44656
     Eigenvalues ---    0.44657   0.66147
 RFO step:  Lambda=-4.17117212D-02 EMin= 2.01065751D-02
 Quartic linear search produced a step of  0.52587.
 Iteration  1 RMS(Cart)=  0.03091628 RMS(Int)=  0.07550105
 Iteration  2 RMS(Cart)=  0.02774147 RMS(Int)=  0.04632781
 Iteration  3 RMS(Cart)=  0.02779809 RMS(Int)=  0.01715504
 Iteration  4 RMS(Cart)=  0.01634602 RMS(Int)=  0.00009923
 Iteration  5 RMS(Cart)=  0.00000363 RMS(Int)=  0.00009918
 Iteration  6 RMS(Cart)=  0.00000000 RMS(Int)=  0.00009918
 ClnCor:  largest displacement from symmetrization is 5.22D-09 for atom     2.
 Variable       Old X    -DE/DX   Delta X   Delta X   Delta X     New X
                                 (Linear)    (Quad)   (Total)
    R1        2.59214   0.02475  -0.02265   0.07220   0.04960   2.64174
    R2        2.59745   0.02071  -0.02080   0.05905   0.03813   2.63558
    R3        2.57709   0.03663  -0.02792   0.10680   0.07904   2.65613
    R4        3.24437   0.00434  -0.03224   0.03740   0.00516   3.24953
    R5        2.57493   0.03981  -0.02868   0.11499   0.08643   2.66136
    R6        2.47289  -0.08743  -0.30271  -0.41487  -0.71757   1.75532
    R7        2.62655   0.02549  -0.01061   0.06735   0.05670   2.68326
    R8        3.24331  -0.00078  -0.03261   0.01931  -0.01331   3.23000
    R9        2.63244   0.01938  -0.00854   0.04918   0.04048   2.67292
   R10        3.25490  -0.00402  -0.02855   0.00487  -0.02368   3.23122
   R11        3.24151   0.00317  -0.03324   0.03382   0.00058   3.24208
    A1        2.04730   0.00556  -0.01651   0.03157   0.01496   2.06225
    A2        2.12011  -0.00224   0.00904  -0.01068  -0.00143   2.11867
    A3        2.09193   0.00187  -0.00088   0.00549   0.00450   2.09643
    A4        2.07115   0.00037  -0.00816   0.00519  -0.00307   2.06808
    A5        2.12118  -0.00793   0.00942  -0.03534  -0.02564   2.09554
    A6        2.09268   0.00462  -0.00061   0.01726   0.01650   2.10918
    A7        2.06932   0.00331  -0.00880   0.01808   0.00914   2.07846
    A8        2.07405   0.00229  -0.00714   0.01902   0.01197   2.08602
    A9        2.08798  -0.00144  -0.00225  -0.00623  -0.00852   2.07946
   A10        2.12116  -0.00085   0.00938  -0.01279  -0.00345   2.11771
   A11        2.07056   0.00078  -0.00838   0.00590  -0.00268   2.06788
   A12        2.09286  -0.00134  -0.00052  -0.00334  -0.00376   2.08910
   A13        2.11976   0.00056   0.00890  -0.00256   0.00644   2.12620
   A14        2.13317   0.00154   0.01357  -0.01047   0.00283   2.13600
   A15        2.06868  -0.00054  -0.00900   0.00782  -0.00104   2.06763
   A16        2.08134  -0.00100  -0.00456   0.00265  -0.00178   2.07955
    D1       -0.00000   0.00000   0.00000   0.00000   0.00000   0.00000
    D2        3.14159   0.00000   0.00000   0.00000   0.00000   3.14159
    D3        0.00000  -0.00000   0.00000  -0.00000   0.00000   0.00000
    D4        3.14159  -0.00000   0.00000  -0.00000   0.00000   3.14159
    D5       -0.00000   0.00000   0.00000   0.00000   0.00000   0.00000
    D6        3.14159   0.00000   0.00000   0.00000   0.00000   3.14159
    D7        3.14159  -0.00000   0.00000   0.00000   0.00000   3.14159
    D8       -0.00000   0.00000   0.00000   0.00000   0.00000   0.00000
    D9        0.00000  -0.00000   0.00000  -0.00000   0.00000   0.00000
   D10        3.14159   0.00000   0.00000   0.00000   0.00000   3.14159
   D11        3.14159  -0.00000   0.00000  -0.00000   0.00000   3.14159
   D12        0.00000  -0.00000   0.00000  -0.00000  -0.00000   0.00000
   D13        0.00000   0.00000   0.00000   0.00000   0.00000   0.00000
   D14        3.14159   0.00000   0.00000   0.00000   0.00000   3.14159
   D15        3.14159  -0.00000   0.00000  -0.00000   0.00000   3.14159
   D16       -0.00000   0.00000   0.00000   0.00000   0.00000   0.00000
   D17       -0.00000  -0.00000   0.00000  -0.00000   0.00000   0.00000
   D18        3.14159   0.00000   0.00000   0.00000   0.00000   3.14159
   D19        3.14159  -0.00000   0.00000  -0.00000   0.00000   3.14159
   D20        0.00000   0.00000   0.00000  -0.00000   0.00000   0.00000
         Item               Value     Threshold  Converged?
 Maximum Force            0.087430     0.000450     NO 
 RMS     Force            0.016523     0.000300     NO 
 Maximum Displacement     0.477366     0.001800     NO 
 RMS     Displacement     0.090541     0.001200     NO 
 Predicted change in Energy=-5.737392D-02
 GradGradGradGradGradGradGradGradGradGradGradGradGradGradGradGradGradGrad

                          Input orientation:                          
 ---------------------------------------------------------------------
 Center     Atomic      Atomic             Coordinates (Angstroms)
 Number     Number       Type             X           Y           Z
 ---------------------------------------------------------------------
      1          6           0       -3.160058    0.243842   -0.000000
      2          6           0       -1.955879    0.953917   -0.000000
      3          6           0       -0.715786    0.292266   -0.000000
      4          6           0       -0.667035   -1.115221    0.000000
      5          6           0       -1.877665   -1.857208    0.000000
      6          6           0       -3.102424   -1.149656    0.000000
      7         17           0       -4.575547   -2.029038    0.000000
      8         17           0        0.853734   -1.895461    0.000000
      9         17           0       -1.823747   -3.566247    0.000000
     10         17           0       -1.968188    2.673451   -0.000000
     11          1           0        0.079825    0.771655   -0.000000
 ---------------------------------------------------------------------
                    Distance matrix (angstroms):
                    1          2          3          4          5
     1  C    0.000000
     2  C    1.397946   0.000000
     3  C    2.444752   1.405564   0.000000
     4  C    2.839404   2.437714   1.408331   0.000000
     5  C    2.461492   2.812212   2.443399   1.419918   0.000000
     6  C    1.394689   2.395743   2.788401   2.435632   1.414449
     7  Cl   2.677610   3.969973   4.504022   4.013917   2.703349
     8  Cl   4.548312   4.001609   2.692497   1.709243   2.731667
     9  Cl   4.037636   4.522094   4.014436   2.710260   1.709889
    10  Cl   2.706207   1.719579   2.690456   4.005875   4.531563
    11  H    3.282595   2.043846   0.928876   2.029311   3.277604
                    6          7          8          9         10
     6  C    0.000000
     7  Cl   1.715636   0.000000
     8  Cl   4.025843   5.430924   0.000000
     9  Cl   2.734031   3.152050   3.156015   0.000000
    10  Cl   3.987811   5.376963   5.370121   6.241370   0.000000
    11  H    3.717276   5.432898   2.777129   4.737191   2.794850
                   11
    11  H    0.000000
 Stoichiometry    C6HCl4(1-)
 Framework group  CS[SG(C6HCl4)]
 Deg. of freedom    19
 Full point group                 CS      NOp   2
 Largest Abelian subgroup         CS      NOp   2
 Largest concise Abelian subgroup C1      NOp   1
                         Standard orientation:                         
 ---------------------------------------------------------------------
 Center     Atomic      Atomic             Coordinates (Angstroms)
 Number     Number       Type             X           Y           Z
 ---------------------------------------------------------------------
      1          6           0       -1.295814   -1.158570   -0.000000
      2          6           0       -0.096204   -1.876337   -0.000000
      3          6           0        1.148098   -1.222636   -0.000000
      4          6           0        1.205856    0.184510    0.000000
      5          6           0        0.000000    0.934230    0.000000
      6          6           0       -1.229262    0.234531    0.000000
      7         17           0       -2.696728    1.123323    0.000000
      8         17           0        2.731588    0.955001    0.000000
      9         17           0        0.064855    2.642889    0.000000
     10         17           0       -0.119518   -3.595757   -0.000000
     11          1           0        1.940625   -1.707108   -0.000000
 ---------------------------------------------------------------------
 Rotational constants (GHZ):           0.8548367           0.5854387           0.3474714
 Standard basis: VSTO-6G (5D, 7F)
 There are    31 symmetry adapted cartesian basis functions of A'  symmetry.
 There are    10 symmetry adapted cartesian basis functions of A"  symmetry.
 There are    31 symmetry adapted basis functions of A'  symmetry.
 There are    10 symmetry adapted basis functions of A"  symmetry.
    41 basis functions,   246 primitive gaussians,    41 cartesian basis functions
    27 alpha electrons       27 beta electrons
       nuclear repulsion energy       295.4676108187 Hartrees.
 Integral buffers will be    131072 words long.
 Regular integral format.
 Two-electron integral symmetry is turned off.
 Do NDO integrals.
 One-electron integrals computed using PRISM.
 NBasis=    41 RedAO= T EigKep=  1.00D+00  NBF=    31    10
 NBsUse=    41 1.00D-06 EigRej= -1.00D+00 NBFU=    31    10
 Initial guess from the checkpoint file:  "geometry_chks/1_345ClBzAnionIntermediate.chk"
 B after Tr=     0.000000   -0.000000   -0.000000
         Rot=    0.999999    0.000000   -0.000000   -0.001195 Ang=  -0.14 deg.
 Initial guess orbital symmetries:
       Occupied  (A') (A') (A') (A') (A') (A') (A') (A') (A') (A')
                 (A') (A') (A") (A') (A') (A") (A") (A') (A") (A')
                 (A') (A') (A") (A') (A") (A") (A')
       Virtual   (A") (A') (A") (A') (A') (A') (A') (A") (A') (A')
                 (A') (A') (A') (A')
 Keep J ints in memory in canonical form, NReq=864464.
 Overlap will be assumed to be unity.
 Requested convergence on RMS density matrix=1.00D-08 within**** cycles.
 Requested convergence on MAX density matrix=1.00D-06.
 Requested convergence on             energy=1.00D-06.
 No special actions if energy rises.
 Fock symm off for IB=2 I1=    1 I=   32 J=   27 Cut=1.00D-07 Err=1.53D-03
 Fock matrix is not symmetric: symmetry in diagonalization turned off.
 SCF Done:  E(RAM1) =  0.347834908246E-01 A.U. after   15 cycles
            NFock= 14  Conv=0.49D-08     -V/T= 1.0003
 Calling FoFJK, ICntrl=      2127 FMM=F ISym2X=1 I1Cent= 0 IOpClX= 0 NMat=1 NMatS=1 NMatT=0.
 ***** Axes restored to original set *****
 -------------------------------------------------------------------
 Center     Atomic                   Forces (Hartrees/Bohr)
 Number     Number              X              Y              Z
 -------------------------------------------------------------------
      1        6           0.007832043   -0.001434305   -0.000000000
      2        6          -0.010876409   -0.022071349   -0.000000000
      3        6          -0.132493949   -0.080532937    0.000000000
      4        6          -0.027982677   -0.002110603   -0.000000000
      5        6           0.004162614    0.014540350   -0.000000000
      6        6           0.014233432    0.005950236    0.000000000
      7       17           0.000772862    0.000091717    0.000000000
      8       17          -0.000846419    0.000438258    0.000000000
      9       17           0.000152770    0.000999430    0.000000000
     10       17           0.000246819   -0.002915423    0.000000000
     11        1           0.144798914    0.087044626    0.000000000
 -------------------------------------------------------------------
 Cartesian Forces:  Max     0.144798914 RMS     0.040645496

 GradGradGradGradGradGradGradGradGradGradGradGradGradGradGradGradGradGrad
 Berny optimization.
 Using GEDIIS/GDIIS optimizer.
 FormGI is forming the generalized inverse of G from B-inverse, IUseBI=4.
 Internal  Forces:  Max     0.168948105 RMS     0.025284270
 Search for a local minimum.
 Step number   4 out of a maximum of   57
 All quantities printed in internal units (Hartrees-Bohrs-Radians)
 Mixed Optimization -- RFO/linear search
 Update second derivatives using D2CorX and points    2    4    3
 DE=  1.26D-03 DEPred=-5.74D-02 R=-2.19D-02
 Trust test=-2.19D-02 RLast= 7.35D-01 DXMaxT set to 2.52D-01
 ITU= -1  0  1  0
 Use linear search instead of GDIIS.
     Eigenvalues ---    0.02011   0.02011   0.02011   0.02011   0.02011
     Eigenvalues ---    0.02011   0.02011   0.02011   0.15998   0.23010
     Eigenvalues ---    0.24938   0.24997   0.24999   0.25000   0.25000
     Eigenvalues ---    0.25188   0.28570   0.29029   0.29033   0.29255
     Eigenvalues ---    0.34865   0.41530   0.42063   0.44636   0.44657
     Eigenvalues ---    0.44983   0.56024
 RFO step:  Lambda=-2.96631962D-03 EMin= 2.01065744D-02
 Quartic linear search produced a step of -0.44535.
 Iteration  1 RMS(Cart)=  0.03331195 RMS(Int)=  0.01958212
 Iteration  2 RMS(Cart)=  0.01862740 RMS(Int)=  0.00001118
 Iteration  3 RMS(Cart)=  0.00000099 RMS(Int)=  0.00001116
 ClnCor:  largest displacement from symmetrization is 5.01D-11 for atom    11.
 Variable       Old X    -DE/DX   Delta X   Delta X   Delta X     New X
                                 (Linear)    (Quad)   (Total)
    R1        2.64174  -0.01408  -0.02209   0.01116  -0.01093   2.63080
    R2        2.63558  -0.01353  -0.01698   0.00437  -0.01260   2.62298
    R3        2.65613  -0.00475  -0.03520   0.03899   0.00377   2.65990
    R4        3.24953  -0.00292  -0.00230  -0.00293  -0.00523   3.24430
    R5        2.66136  -0.00668  -0.03849   0.04035   0.00184   2.66320
    R6        1.75532   0.16895   0.31957   0.01468   0.33425   2.08957
    R7        2.68326  -0.01950  -0.02525   0.00735  -0.01789   2.66537
    R8        3.23000  -0.00095   0.00593  -0.01098  -0.00505   3.22495
    R9        2.67292  -0.01561  -0.01803   0.00235  -0.01566   2.65726
   R10        3.23122  -0.00099   0.01054  -0.01748  -0.00694   3.22428
   R11        3.24208  -0.00071  -0.00026  -0.00163  -0.00188   3.24020
    A1        2.06225  -0.00370  -0.00666  -0.00025  -0.00691   2.05534
    A2        2.11867   0.00803   0.00064   0.01998   0.02059   2.13926
    A3        2.09643  -0.00365  -0.00201  -0.00619  -0.00818   2.08825
    A4        2.06808  -0.00438   0.00137  -0.01379  -0.01241   2.05567
    A5        2.09554  -0.01287   0.01142  -0.04361  -0.03223   2.06332
    A6        2.10918   0.00659  -0.00735   0.02648   0.01915   2.12833
    A7        2.07846   0.00628  -0.00407   0.01713   0.01308   2.09154
    A8        2.08602   0.00608  -0.00533   0.02282   0.01748   2.10350
    A9        2.07946  -0.00305   0.00380  -0.01364  -0.00984   2.06961
   A10        2.11771  -0.00303   0.00154  -0.00917  -0.00764   2.11007
   A11        2.06788   0.00124   0.00120  -0.00126  -0.00004   2.06784
   A12        2.08910  -0.00092   0.00167  -0.00372  -0.00206   2.08704
   A13        2.12620  -0.00032  -0.00287   0.00499   0.00210   2.12830
   A14        2.13600   0.00122  -0.00126   0.00234   0.00111   2.13711
   A15        2.06763  -0.00009   0.00047   0.00010   0.00055   2.06818
   A16        2.07955  -0.00112   0.00079  -0.00243  -0.00165   2.07790
    D1       -0.00000  -0.00000   0.00000  -0.00000   0.00000   0.00000
    D2        3.14159   0.00000   0.00000   0.00000   0.00000   3.14159
    D3        0.00000  -0.00000   0.00000  -0.00000   0.00000   0.00000
    D4        3.14159  -0.00000   0.00000  -0.00000   0.00000   3.14159
    D5       -0.00000   0.00000   0.00000   0.00000   0.00000   0.00000
    D6        3.14159   0.00000   0.00000   0.00000   0.00000   3.14159
    D7        3.14159  -0.00000   0.00000  -0.00000   0.00000   3.14159
    D8       -0.00000  -0.00000   0.00000  -0.00000   0.00000   0.00000
    D9        0.00000  -0.00000   0.00000  -0.00000  -0.00000   0.00000
   D10        3.14159  -0.00000   0.00000   0.00000   0.00000   3.14159
   D11        3.14159  -0.00000   0.00000  -0.00000   0.00000   3.14159
   D12        0.00000  -0.00000   0.00000  -0.00000   0.00000   0.00000
   D13       -0.00000   0.00000   0.00000   0.00000   0.00000   0.00000
   D14        3.14159   0.00000   0.00000   0.00000   0.00000   3.14159
   D15        3.14159  -0.00000   0.00000  -0.00000   0.00000   3.14159
   D16       -0.00000   0.00000   0.00000   0.00000   0.00000   0.00000
   D17       -0.00000   0.00000   0.00000   0.00000   0.00000   0.00000
   D18        3.14159   0.00000   0.00000   0.00000   0.00000   3.14159
   D19        3.14159  -0.00000   0.00000  -0.00000   0.00000   3.14159
   D20        0.00000   0.00000   0.00000   0.00000   0.00000   0.00000
         Item               Value     Threshold  Converged?
 Maximum Force            0.168948     0.000450     NO 
 RMS     Force            0.025284     0.000300     NO 
 Maximum Displacement     0.283158     0.001800     NO 
 RMS     Displacement     0.051334     0.001200     NO 
 Predicted change in Energy=-3.603725D-02
 GradGradGradGradGradGradGradGradGradGradGradGradGradGradGradGradGradGrad

                          Input orientation:                          
 ---------------------------------------------------------------------
 Center     Atomic      Atomic             Coordinates (Angstroms)
 Number     Number       Type             X           Y           Z
 ---------------------------------------------------------------------
      1          6           0       -3.173476    0.230188   -0.000000
      2          6           0       -1.971592    0.932745   -0.000000
      3          6           0       -0.718800    0.291077   -0.000000
      4          6           0       -0.691785   -1.117971    0.000000
      5          6           0       -1.892845   -1.857447    0.000000
      6          6           0       -3.111825   -1.156463    0.000000
      7         17           0       -4.580880   -2.040693    0.000000
      8         17           0        0.822213   -1.905494    0.000000
      9         17           0       -1.832066   -3.562582    0.000000
     10         17           0       -1.991380    2.649441   -0.000000
     11          1           0        0.229666    0.859501   -0.000000
 ---------------------------------------------------------------------
                    Distance matrix (angstroms):
                    1          2          3          4          5
     1  C    0.000000
     2  C    1.392160   0.000000
     3  C    2.455430   1.407560   0.000000
     4  C    2.824238   2.417300   1.409307   0.000000
     5  C    2.449129   2.791303   2.448375   1.410451   0.000000
     6  C    1.388021   2.380109   2.796773   2.420346   1.406162
     7  Cl   2.671645   3.955972   4.511409   3.997059   2.694274
     8  Cl   4.530636   3.982580   2.683216   1.706570   2.715483
     9  Cl   4.022994   4.497492   4.011240   2.697474   1.706218
    10  Cl   2.692608   1.716810   2.679802   3.985265   4.507965
    11  H    3.460839   2.202477   1.105755   2.181620   3.447733
                    6          7          8          9         10
     6  C    0.000000
     7  Cl   1.714639   0.000000
     8  Cl   4.004710   5.404785   0.000000
     9  Cl   2.725287   3.141994   3.129079   0.000000
    10  Cl   3.967405   5.357506   5.353852   6.214066   0.000000
    11  H    3.902522   5.617160   2.827775   4.879094   2.852530
                   11
    11  H    0.000000
 Stoichiometry    C6HCl4(1-)
 Framework group  CS[SG(C6HCl4)]
 Deg. of freedom    19
 Full point group                 CS      NOp   2
 Largest Abelian subgroup         CS      NOp   2
 Largest concise Abelian subgroup C1      NOp   1
                         Standard orientation:                         
 ---------------------------------------------------------------------
 Center     Atomic      Atomic             Coordinates (Angstroms)
 Number     Number       Type             X           Y           Z
 ---------------------------------------------------------------------
      1          6           0       -1.296068   -1.152197   -0.000000
      2          6           0       -0.099425   -1.863643   -0.000000
      3          6           0        1.158088   -1.231278   -0.000000
      4          6           0        1.195546    0.177531    0.000000
      5          6           0        0.000000    0.925889    0.000000
      6          6           0       -1.224142    0.233959    0.000000
      7         17           0       -2.686603    1.129052    0.000000
      8         17           0        2.715340    0.953811    0.000000
      9         17           0        0.073415    2.630526    0.000000
     10         17           0       -0.131935   -3.580145   -0.000000
     11          1           0        2.102316   -1.806716   -0.000000
 ---------------------------------------------------------------------
 Rotational constants (GHZ):           0.8612105           0.5896478           0.3500072
 Standard basis: VSTO-6G (5D, 7F)
 There are    31 symmetry adapted cartesian basis functions of A'  symmetry.
 There are    10 symmetry adapted cartesian basis functions of A"  symmetry.
 There are    31 symmetry adapted basis functions of A'  symmetry.
 There are    10 symmetry adapted basis functions of A"  symmetry.
    41 basis functions,   246 primitive gaussians,    41 cartesian basis functions
    27 alpha electrons       27 beta electrons
       nuclear repulsion energy       295.6277333183 Hartrees.
 Integral buffers will be    131072 words long.
 Regular integral format.
 Two-electron integral symmetry is turned off.
 Do NDO integrals.
 One-electron integrals computed using PRISM.
 NBasis=    41 RedAO= T EigKep=  1.00D+00  NBF=    31    10
 NBsUse=    41 1.00D-06 EigRej= -1.00D+00 NBFU=    31    10
 Lowest energy guess from the checkpoint file:  "geometry_chks/1_345ClBzAnionIntermediate.chk"
 B after Tr=     0.000000    0.000000   -0.000000
         Rot=    1.000000    0.000000   -0.000000   -0.000157 Ang=  -0.02 deg.
 B after Tr=    -0.000000    0.000000   -0.000000
         Rot=    0.999999   -0.000000    0.000000    0.001039 Ang=   0.12 deg.
 Initial guess orbital symmetries:
       Occupied  (A') (A') (A') (A") (A') (A') (A') (A") (A') (A')
                 (A") (A') (A') (A') (A") (A") (A") (A") (A") (A")
                 (A") (A") (A") (A") (A") (A") (A")
       Virtual   (A') (A') (A') (A") (A') (A') (A') (A") (A') (A')
                 (A") (A') (A') (A')
 Keep J ints in memory in canonical form, NReq=864464.
 Overlap will be assumed to be unity.
 Requested convergence on RMS density matrix=1.00D-08 within**** cycles.
 Requested convergence on MAX density matrix=1.00D-06.
 Requested convergence on             energy=1.00D-06.
 No special actions if energy rises.
 An orbital has undefined symmetry, so N**3 symmetry is turned off.
 SCF Done:  E(RAM1) =  0.973660943311E-02 A.U. after   13 cycles
            NFock= 12  Conv=0.99D-08     -V/T= 1.0001
 Calling FoFJK, ICntrl=      2127 FMM=F ISym2X=1 I1Cent= 0 IOpClX= 0 NMat=1 NMatS=1 NMatT=0.
 ***** Axes restored to original set *****
 -------------------------------------------------------------------
 Center     Atomic                   Forces (Hartrees/Bohr)
 Number     Number              X              Y              Z
 -------------------------------------------------------------------
      1        6           0.006120860    0.001432005   -0.000000000
      2        6           0.005319615   -0.013403930   -0.000000000
      3        6          -0.006480507   -0.003888852   -0.000000000
      4        6          -0.010466972    0.010644093   -0.000000000
      5        6           0.003897861    0.008516405   -0.000000000
      6        6           0.004510330    0.002460180    0.000000000
      7       17          -0.001188843   -0.000741173    0.000000000
      8       17           0.002959157   -0.000795952    0.000000000
      9       17          -0.000178115   -0.002371303    0.000000000
     10       17           0.000350954    0.001026720    0.000000000
     11        1          -0.004844338   -0.002878194    0.000000000
 -------------------------------------------------------------------
 Cartesian Forces:  Max     0.013403930 RMS     0.004577641

 GradGradGradGradGradGradGradGradGradGradGradGradGradGradGradGradGradGrad
 Berny optimization.
 Using GEDIIS/GDIIS optimizer.
 FormGI is forming the generalized inverse of G from B-inverse, IUseBI=4.
 Internal  Forces:  Max     0.013464782 RMS     0.003570993
 Search for a local minimum.
 Step number   5 out of a maximum of   57
 All quantities printed in internal units (Hartrees-Bohrs-Radians)
 Mixed Optimization -- RFO/linear search
 Update second derivatives using D2CorX and points    4    3    5
 DE= -2.38D-02 DEPred=-3.60D-02 R= 6.60D-01
 TightC=F SS=  1.41D+00  RLast= 4.18D-01 DXNew= 4.2426D-01 1.2528D+00
 Trust test= 6.60D-01 RLast= 4.18D-01 DXMaxT set to 4.24D-01
 ITU=  1 -1  0  1  0
 Use linear search instead of GDIIS.
     Eigenvalues ---    0.02011   0.02011   0.02011   0.02011   0.02011
     Eigenvalues ---    0.02011   0.02011   0.02011   0.15996   0.18778
     Eigenvalues ---    0.24946   0.24992   0.25000   0.25000   0.25008
     Eigenvalues ---    0.25186   0.26175   0.28944   0.29039   0.29042
     Eigenvalues ---    0.29491   0.41439   0.41796   0.44653   0.44657
     Eigenvalues ---    0.44744   0.68989
 RFO step:  Lambda=-1.07832861D-03 EMin= 2.01065740D-02
 Quartic linear search produced a step of -0.01912.
 Iteration  1 RMS(Cart)=  0.00921739 RMS(Int)=  0.00001499
 Iteration  2 RMS(Cart)=  0.00001741 RMS(Int)=  0.00000069
 Iteration  3 RMS(Cart)=  0.00000000 RMS(Int)=  0.00000069
 ClnCor:  largest displacement from symmetrization is 1.13D-12 for atom    11.
 Variable       Old X    -DE/DX   Delta X   Delta X   Delta X     New X
                                 (Linear)    (Quad)   (Total)
    R1        2.63080  -0.00800  -0.00074  -0.01141  -0.01215   2.61865
    R2        2.62298  -0.00425  -0.00049  -0.00405  -0.00454   2.61844
    R3        2.65990  -0.01339  -0.00158  -0.01871  -0.02029   2.63961
    R4        3.24430   0.00102   0.00000   0.00673   0.00674   3.25104
    R5        2.66320  -0.01346  -0.00169  -0.01822  -0.01991   2.64329
    R6        2.08957  -0.00563   0.00733  -0.03696  -0.02963   2.05994
    R7        2.66537  -0.00804  -0.00074  -0.01256  -0.01330   2.65206
    R8        3.22495   0.00299   0.00035   0.01151   0.01186   3.23681
    R9        2.65726  -0.00429  -0.00047  -0.00538  -0.00586   2.65140
   R10        3.22428   0.00236   0.00059   0.00792   0.00850   3.23279
   R11        3.24020   0.00140   0.00003   0.00793   0.00796   3.24816
    A1        2.05534  -0.00221  -0.00015  -0.00398  -0.00413   2.05122
    A2        2.13926   0.00226  -0.00037   0.00767   0.00730   2.14657
    A3        2.08825  -0.00054   0.00007  -0.00158  -0.00151   2.08673
    A4        2.05567  -0.00172   0.00030  -0.00608  -0.00579   2.04988
    A5        2.06332   0.00146   0.00111  -0.00384  -0.00274   2.06058
    A6        2.12833  -0.00075  -0.00068   0.00180   0.00112   2.12945
    A7        2.09154  -0.00071  -0.00042   0.00204   0.00162   2.09316
    A8        2.10350   0.00080  -0.00056   0.00525   0.00468   2.10818
    A9        2.06961  -0.00146   0.00035  -0.00623  -0.00587   2.06374
   A10        2.11007   0.00066   0.00021   0.00098   0.00119   2.11126
   A11        2.06784  -0.00088   0.00005  -0.00120  -0.00115   2.06669
   A12        2.08704   0.00086   0.00011   0.00205   0.00216   2.08920
   A13        2.12830   0.00002  -0.00016  -0.00085  -0.00102   2.12729
   A14        2.13711  -0.00142  -0.00008  -0.00390  -0.00397   2.13313
   A15        2.06818   0.00075   0.00001   0.00246   0.00247   2.07065
   A16        2.07790   0.00068   0.00007   0.00144   0.00150   2.07940
    D1        0.00000   0.00000   0.00000   0.00000   0.00000   0.00000
    D2        3.14159   0.00000   0.00000   0.00000   0.00000   3.14159
    D3       -0.00000  -0.00000   0.00000  -0.00000   0.00000   0.00000
    D4        3.14159  -0.00000   0.00000  -0.00000   0.00000   3.14159
    D5       -0.00000   0.00000   0.00000   0.00000   0.00000   0.00000
    D6        3.14159   0.00000   0.00000   0.00000   0.00000   3.14159
    D7        3.14159  -0.00000   0.00000  -0.00000   0.00000   3.14159
    D8        0.00000  -0.00000   0.00000  -0.00000   0.00000   0.00000
    D9        0.00000  -0.00000   0.00000  -0.00000  -0.00000   0.00000
   D10        3.14159   0.00000   0.00000   0.00000   0.00000   3.14159
   D11        3.14159  -0.00000   0.00000  -0.00000   0.00000   3.14159
   D12        0.00000   0.00000   0.00000   0.00000   0.00000   0.00000
   D13        0.00000   0.00000   0.00000   0.00000   0.00000   0.00000
   D14        3.14159   0.00000   0.00000   0.00000   0.00000   3.14159
   D15        3.14159  -0.00000   0.00000  -0.00000   0.00000   3.14159
   D16        0.00000   0.00000   0.00000   0.00000  -0.00000   0.00000
   D17        0.00000   0.00000   0.00000   0.00000   0.00000   0.00000
   D18        3.14159   0.00000   0.00000   0.00000   0.00000   3.14159
   D19        3.14159  -0.00000   0.00000  -0.00000   0.00000   3.14159
   D20        0.00000  -0.00000   0.00000  -0.00000   0.00000   0.00000
         Item               Value     Threshold  Converged?
 Maximum Force            0.013465     0.000450     NO 
 RMS     Force            0.003571     0.000300     NO 
 Maximum Displacement     0.034473     0.001800     NO 
 RMS     Displacement     0.009229     0.001200     NO 
 Predicted change in Energy=-5.379763D-04
 GradGradGradGradGradGradGradGradGradGradGradGradGradGradGradGradGradGrad

                          Input orientation:                          
 ---------------------------------------------------------------------
 Center     Atomic      Atomic             Coordinates (Angstroms)
 Number     Number       Type             X           Y           Z
 ---------------------------------------------------------------------
      1          6           0       -3.168093    0.230820   -0.000000
      2          6           0       -1.967548    0.922875   -0.000000
      3          6           0       -0.723519    0.287655   -0.000000
      4          6           0       -0.698788   -1.110896    0.000000
      5          6           0       -1.891497   -1.850495    0.000000
      6          6           0       -3.109218   -1.153547    0.000000
      7         17           0       -4.581400   -2.040748    0.000000
      8         17           0        0.824230   -1.894647    0.000000
      9         17           0       -1.828796   -3.560063    0.000000
     10         17           0       -1.979564    2.643207   -0.000000
     11          1           0        0.211424    0.848139   -0.000000
 ---------------------------------------------------------------------
                    Distance matrix (angstroms):
                    1          2          3          4          5
     1  C    0.000000
     2  C    1.385731   0.000000
     3  C    2.445235   1.396822   0.000000
     4  C    2.810279   2.397076   1.398770   0.000000
     5  C    2.441633   2.774413   2.436362   1.403410   0.000000
     6  C    1.385619   2.369587   2.787225   2.410807   1.403061
     7  Cl   2.675342   3.951618   4.506075   3.992405   2.696623
     8  Cl   4.522859   3.966416   2.675439   1.712848   2.716085
     9  Cl   4.020511   4.485085   4.003320   2.697283   1.710717
    10  Cl   2.689278   1.720374   2.669508   3.966570   4.494565
    11  H    3.435436   2.180252   1.090073   2.160163   3.421243
                    6          7          8          9         10
     6  C    0.000000
     7  Cl   1.718850   0.000000
     8  Cl   4.002654   5.407604   0.000000
     9  Cl   2.725949   3.144066   3.132435   0.000000
    10  Cl   3.961245   5.358077   5.334172   6.205102   0.000000
    11  H    3.877294   5.596144   2.810411   4.857442   2.832437
                   11
    11  H    0.000000
 Stoichiometry    C6HCl4(1-)
 Framework group  CS[SG(C6HCl4)]
 Deg. of freedom    19
 Full point group                 CS      NOp   2
 Largest Abelian subgroup         CS      NOp   2
 Largest concise Abelian subgroup C1      NOp   1
                         Standard orientation:                         
 ---------------------------------------------------------------------
 Center     Atomic      Atomic             Coordinates (Angstroms)
 Number     Number       Type             X           Y           Z
 ---------------------------------------------------------------------
      1          6           0       -1.294912   -1.149740    0.000000
      2          6           0       -0.100519   -1.852362    0.000000
      3          6           0        1.149066   -1.228144    0.000000
      4          6           0        1.186136    0.170135   -0.000000
      5          6           0       -0.000000    0.920229   -0.000000
      6          6           0       -1.223823    0.234054   -0.000000
      7         17           0       -2.688120    1.134209   -0.000000
      8         17           0        2.716010    0.940417   -0.000000
      9         17           0        0.077783    2.629178   -0.000000
     10         17           0       -0.127715   -3.572521    0.000000
     11          1           0        2.079027   -1.796855    0.000000
 ---------------------------------------------------------------------
 Rotational constants (GHZ):           0.8614900           0.5921073           0.3509187
 Standard basis: VSTO-6G (5D, 7F)
 There are    31 symmetry adapted cartesian basis functions of A'  symmetry.
 There are    10 symmetry adapted cartesian basis functions of A"  symmetry.
 There are    31 symmetry adapted basis functions of A'  symmetry.
 There are    10 symmetry adapted basis functions of A"  symmetry.
[...]
 Calling FoFJK, ICntrl=      2127 FMM=F ISym2X=1 I1Cent= 0 IOpClX= 0 NMat=1 NMatS=1 NMatT=0.
 ***** Axes restored to original set *****
 -------------------------------------------------------------------
 Center     Atomic                   Forces (Hartrees/Bohr)
 Number     Number              X              Y              Z
 -------------------------------------------------------------------
      1        6           0.000053711    0.000099292   -0.000000000
      2        6           0.000047661   -0.000136361   -0.000000000
      3        6           0.000020879    0.000109003   -0.000000000
      4        6          -0.000019772    0.000049855   -0.000000000
      5        6           0.000123839   -0.000045954   -0.000000000
      6        6          -0.000198204   -0.000051703    0.000000000
      7       17           0.000000208    0.000004760    0.000000000
      8       17           0.000012237    0.000008603    0.000000000
      9       17          -0.000017502   -0.000034177    0.000000000
     10       17           0.000009835    0.000006555    0.000000000
     11        1          -0.000032892   -0.000009875    0.000000000
 -------------------------------------------------------------------
 Cartesian Forces:  Max     0.000198204 RMS     0.000058062

 GradGradGradGradGradGradGradGradGradGradGradGradGradGradGradGradGradGrad
 Berny optimization.
 Using GEDIIS/GDIIS optimizer.
 FormGI is forming the generalized inverse of G from B-inverse, IUseBI=4.
 Internal  Forces:  Max     0.000137289 RMS     0.000037267
 Search for a local minimum.
 Step number   8 out of a maximum of   57
 All quantities printed in internal units (Hartrees-Bohrs-Radians)
 Mixed Optimization -- En-DIIS/RFO-DIIS
 Swapping is turned off.
 Update second derivatives using D2CorX and points    4    3    5    6    7
                                                      8
 DE= -4.71D-06 DEPred=-4.67D-06 R= 1.01D+00
 TightC=F SS=  1.41D+00  RLast= 5.13D-03 DXNew= 7.1352D-01 1.5376D-02
 Trust test= 1.01D+00 RLast= 5.13D-03 DXMaxT set to 4.24D-01
 ITU=  1  1  1  1 -1  0  1  0
     Eigenvalues ---    0.02011   0.02011   0.02011   0.02011   0.02011
     Eigenvalues ---    0.02011   0.02011   0.02011   0.15970   0.19663
     Eigenvalues ---    0.24579   0.24953   0.24997   0.25024   0.25114
     Eigenvalues ---    0.25232   0.27242   0.28982   0.29164   0.29631
     Eigenvalues ---    0.34596   0.41673   0.43900   0.44534   0.44664
     Eigenvalues ---    0.45266   0.71016
 En-DIIS/RFO-DIIS/Sim-DIIS IScMMF=       -3 using points:     8    7    6
 RFO step:  Lambda=-1.96747676D-07.
 DidBck=F Rises=F RFO-DIIS coefs:    1.00629   -0.01648    0.01018
 Iteration  1 RMS(Cart)=  0.00015164 RMS(Int)=  0.00000001
 Iteration  2 RMS(Cart)=  0.00000001 RMS(Int)=  0.00000000
 ClnCor:  largest displacement from symmetrization is 1.35D-12 for atom    11.
 Variable       Old X    -DE/DX   Delta X   Delta X   Delta X     New X
                                 (Linear)    (Quad)   (Total)
    R1        2.61883  -0.00002   0.00001  -0.00006  -0.00005   2.61877
    R2        2.61869   0.00007   0.00000   0.00014   0.00014   2.61884
    R3        2.64067  -0.00010   0.00001  -0.00021  -0.00020   2.64047
    R4        3.25466   0.00001  -0.00003   0.00009   0.00006   3.25472
    R5        2.64402  -0.00000   0.00001   0.00001   0.00002   2.64405
    R6        2.07630  -0.00003  -0.00023   0.00007  -0.00016   2.07613
    R7        2.65256   0.00006  -0.00001   0.00014   0.00013   2.65269
    R8        3.23952   0.00001  -0.00004   0.00007   0.00003   3.23955
    R9        2.65333   0.00014  -0.00002   0.00034   0.00032   2.65365
   R10        3.23334   0.00003  -0.00002   0.00011   0.00009   3.23342
   R11        3.24522  -0.00000   0.00001  -0.00007  -0.00006   3.24516
    A1        2.05112   0.00002   0.00000   0.00008   0.00008   2.05120
    A2        2.14593   0.00007   0.00001   0.00025   0.00027   2.14620
    A3        2.08653  -0.00002  -0.00000  -0.00007  -0.00007   2.08646
    A4        2.05072  -0.00005  -0.00001  -0.00018  -0.00020   2.05053
    A5        2.06214  -0.00003  -0.00004  -0.00020  -0.00023   2.06191
    A6        2.12815   0.00001   0.00002   0.00004   0.00006   2.12821
    A7        2.09290   0.00002   0.00001   0.00016   0.00017   2.09307
    A8        2.10675   0.00003   0.00003   0.00014   0.00016   2.10691
    A9        2.06465  -0.00004  -0.00001  -0.00015  -0.00016   2.06449
   A10        2.11179   0.00000  -0.00002   0.00002  -0.00000   2.11179
   A11        2.06699  -0.00001   0.00000   0.00001   0.00001   2.06700
   A12        2.09019   0.00004  -0.00001   0.00013   0.00012   2.09031
   A13        2.12600  -0.00002   0.00001  -0.00014  -0.00013   2.12587
   A14        2.13344  -0.00008  -0.00001  -0.00028  -0.00028   2.13316
   A15        2.07070   0.00004   0.00000   0.00012   0.00012   2.07082
   A16        2.07905   0.00005   0.00000   0.00016   0.00016   2.07921
    D1        0.00000  -0.00000   0.00000  -0.00000  -0.00000   0.00000
    D2        3.14159   0.00000   0.00000   0.00000   0.00000   3.14159
    D3       -0.00000  -0.00000   0.00000  -0.00000   0.00000   0.00000
    D4        3.14159  -0.00000   0.00000  -0.00000   0.00000   3.14159
    D5       -0.00000   0.00000   0.00000   0.00000   0.00000   0.00000
    D6        3.14159   0.00000   0.00000   0.00000   0.00000   3.14159
    D7        3.14159  -0.00000   0.00000  -0.00000   0.00000   3.14159
    D8        0.00000  -0.00000   0.00000  -0.00000  -0.00000   0.00000
    D9        0.00000  -0.00000   0.00000  -0.00000  -0.00000   0.00000
   D10        3.14159   0.00000   0.00000   0.00000   0.00000   3.14159
   D11        3.14159  -0.00000   0.00000  -0.00000   0.00000   3.14159
   D12       -0.00000  -0.00000   0.00000  -0.00000   0.00000   0.00000
   D13       -0.00000  -0.00000   0.00000  -0.00000   0.00000   0.00000
   D14        3.14159   0.00000   0.00000   0.00000   0.00000   3.14159
   D15        3.14159  -0.00000   0.00000  -0.00000   0.00000   3.14159
   D16       -0.00000  -0.00000   0.00000  -0.00000   0.00000   0.00000
   D17        0.00000   0.00000   0.00000   0.00000   0.00000   0.00000
   D18        3.14159   0.00000   0.00000   0.00000   0.00000   3.14159
   D19        3.14159   0.00000   0.00000   0.00000   0.00000   3.14159
   D20        0.00000  -0.00000   0.00000  -0.00000   0.00000   0.00000
         Item               Value     Threshold  Converged?
 Maximum Force            0.000137     0.000450     YES
 RMS     Force            0.000037     0.000300     YES
 Maximum Displacement     0.000449     0.001800     YES
 RMS     Displacement     0.000152     0.001200     YES
 Predicted change in Energy=-9.828798D-08
 Optimization completed.
    -- Stationary point found.
                           ----------------------------
                           !   Optimized Parameters   !
                           ! (Angstroms and Degrees)  !
 --------------------------                            --------------------------
 ! Name  Definition              Value          Derivative Info.                !
 --------------------------------------------------------------------------------
 ! R1    R(1,2)                  1.3858         -DE/DX =    0.0                 !
 ! R2    R(1,6)                  1.3858         -DE/DX =    0.0001              !
 ! R3    R(2,3)                  1.3974         -DE/DX =   -0.0001              !
 ! R4    R(2,10)                 1.7223         -DE/DX =    0.0                 !
 ! R5    R(3,4)                  1.3992         -DE/DX =    0.0                 !
 ! R6    R(3,11)                 1.0987         -DE/DX =    0.0                 !
 ! R7    R(4,5)                  1.4037         -DE/DX =    0.0001              !
 ! R8    R(4,8)                  1.7143         -DE/DX =    0.0                 !
 ! R9    R(5,6)                  1.4041         -DE/DX =    0.0001              !
 ! R10   R(5,9)                  1.711          -DE/DX =    0.0                 !
 ! R11   R(6,7)                  1.7173         -DE/DX =    0.0                 !
 ! A1    A(2,1,6)              117.5205         -DE/DX =    0.0                 !
 ! A2    A(1,2,3)              122.9528         -DE/DX =    0.0001              !
 ! A3    A(1,2,10)             119.5494         -DE/DX =    0.0                 !
 ! A4    A(3,2,10)             117.4978         -DE/DX =   -0.0001              !
 ! A5    A(2,3,4)              118.1521         -DE/DX =    0.0                 !
 ! A6    A(2,3,11)             121.9337         -DE/DX =    0.0                 !
 ! A7    A(4,3,11)             119.9142         -DE/DX =    0.0                 !
 ! A8    A(3,4,5)              120.7078         -DE/DX =    0.0                 !
 ! A9    A(3,4,8)              118.2957         -DE/DX =    0.0                 !
 ! A10   A(5,4,8)              120.9965         -DE/DX =    0.0                 !
 ! A11   A(4,5,6)              118.4298         -DE/DX =    0.0                 !
 ! A12   A(4,5,9)              119.7592         -DE/DX =    0.0                 !
 ! A13   A(6,5,9)              121.811          -DE/DX =    0.0                 !
 ! A14   A(1,6,5)              122.2372         -DE/DX =   -0.0001              !
 ! A15   A(1,6,7)              118.6421         -DE/DX =    0.0                 !
 ! A16   A(5,6,7)              119.1207         -DE/DX =    0.0                 !
 ! D1    D(6,1,2,3)              0.0            -DE/DX =    0.0                 !
 ! D2    D(6,1,2,10)           180.0            -DE/DX =    0.0                 !
 ! D3    D(2,1,6,5)              0.0            -DE/DX =    0.0                 !
 ! D4    D(2,1,6,7)            180.0            -DE/DX =    0.0                 !
 ! D5    D(1,2,3,4)              0.0            -DE/DX =    0.0                 !
 ! D6    D(1,2,3,11)           180.0            -DE/DX =    0.0                 !
 ! D7    D(10,2,3,4)           180.0            -DE/DX =    0.0                 !
 ! D8    D(10,2,3,11)            0.0            -DE/DX =    0.0                 !
 ! D9    D(2,3,4,5)              0.0            -DE/DX =    0.0                 !
 ! D10   D(2,3,4,8)            180.0            -DE/DX =    0.0                 !
 ! D11   D(11,3,4,5)           180.0            -DE/DX =    0.0                 !
 ! D12   D(11,3,4,8)             0.0            -DE/DX =    0.0                 !
 ! D13   D(3,4,5,6)              0.0            -DE/DX =    0.0                 !
 ! D14   D(3,4,5,9)            180.0            -DE/DX =    0.0                 !
 ! D15   D(8,4,5,6)            180.0            -DE/DX =    0.0                 !
 ! D16   D(8,4,5,9)              0.0            -DE/DX =    0.0                 !
 ! D17   D(4,5,6,1)              0.0            -DE/DX =    0.0                 !
 ! D18   D(4,5,6,7)            180.0            -DE/DX =    0.0                 !
 ! D19   D(9,5,6,1)            180.0            -DE/DX =    0.0                 !
 ! D20   D(9,5,6,7)              0.0            -DE/DX =    0.0                 !
 --------------------------------------------------------------------------------
 GradGradGradGradGradGradGradGradGradGradGradGradGradGradGradGradGradGrad

                          Input orientation:                          
 ---------------------------------------------------------------------
 Center     Atomic      Atomic             Coordinates (Angstroms)
 Number     Number       Type             X           Y           Z
 ---------------------------------------------------------------------
      1          6           0       -3.169339    0.230621   -0.000000
      2          6           0       -1.968814    0.922894   -0.000000
      3          6           0       -0.724597    0.286807   -0.000000
      4          6           0       -0.698363   -1.112103    0.000000
      5          6           0       -1.891565   -1.851405    0.000000
      6          6           0       -3.110124   -1.153867    0.000000
      7         17           0       -4.580723   -2.040680    0.000000
      8         17           0        0.826054   -1.896266    0.000000
      9         17           0       -1.831167   -3.561347    0.000000
     10         17           0       -1.981443    2.645141   -0.000000
     11          1           0        0.217310    0.852506   -0.000000
 ---------------------------------------------------------------------
                    Distance matrix (angstroms):
                    1          2          3          4          5
     1  C    0.000000
     2  C    1.385823   0.000000
     3  C    2.445388   1.397383   0.000000
     4  C    2.812229   2.399012   1.399156   0.000000
     5  C    2.442855   2.775374   2.435932   1.403673   0.000000
     6  C    1.385753   2.369709   2.786804   2.412122   1.404082
     7  Cl   2.674099   3.950296   4.504098   3.991863   2.695811
     8  Cl   4.526236   3.969754   2.677747   1.714281   2.717989
     9  Cl   4.021159   4.486352   4.004096   2.698525   1.711008
    10  Cl   2.690912   1.722293   2.672339   3.970286   4.497444
    11  H    3.443273   2.187256   1.098728   2.167520   3.429065
                    6          7          8          9         10
     6  C    0.000000
     7  Cl   1.717294   0.000000
     8  Cl   4.005578   5.408705   0.000000
     9  Cl   2.726113   3.142051   3.135812   0.000000
    10  Cl   3.963127   5.358467   5.339140   6.208306   0.000000
    11  H    3.885530   5.602824   2.815371   4.866040   2.836909
                   11
    11  H    0.000000
 Stoichiometry    C6HCl4(1-)
 Framework group  CS[SG(C6HCl4)]
 Deg. of freedom    19
 Full point group                 CS      NOp   2
 Largest Abelian subgroup         CS      NOp   2
 Largest concise Abelian subgroup C1      NOp   1
                         Standard orientation:                         
 ---------------------------------------------------------------------
 Center     Atomic      Atomic             Coordinates (Angstroms)
 Number     Number       Type             X           Y           Z
 ---------------------------------------------------------------------
      1          6           0       -1.295195   -1.150400    0.000000
      2          6           0       -0.100518   -1.852719    0.000000
      3          6           0        1.148990   -1.227092    0.000000
      4          6           0        1.186958    0.171549   -0.000000
      5          6           0        0.000000    0.920834   -0.000000
      6          6           0       -1.224368    0.233541   -0.000000
      7         17           0       -2.687476    1.132659   -0.000000
      8         17           0        2.717899    0.942897   -0.000000
      9         17           0        0.074739    2.630208   -0.000000
     10         17           0       -0.127594   -3.574800    0.000000
     11          1           0        2.086118   -1.800672    0.000000
 ---------------------------------------------------------------------
 Rotational constants (GHZ):           0.8610656           0.5915252           0.3506438

 **********************************************************************

            Population analysis using the SCF Density.

 **********************************************************************

 Orbital symmetries:
       Occupied  (A') (A') (A') (A') (A') (A') (A') (A') (A') (A')
                 (A') (A') (A") (A') (A') (A") (A") (A') (A") (A')
                 (A') (A') (A') (A") (A") (A") (A')
       Virtual   (A") (A") (A') (A') (A') (A') (A") (A') (A') (A')
                 (A') (A') (A') (A')
 The electronic state is 1-A'.
 Alpha  occ. eigenvalues --   -1.30285  -1.24571  -1.23960  -1.22220  -1.19463
 Alpha  occ. eigenvalues --   -0.98529  -0.95801  -0.70970  -0.69186  -0.52841
 Alpha  occ. eigenvalues --   -0.46812  -0.46539  -0.41191  -0.40922  -0.38798
 Alpha  occ. eigenvalues --   -0.34814  -0.34535  -0.34281  -0.32188  -0.30781
 Alpha  occ. eigenvalues --   -0.30509  -0.28981  -0.27153  -0.27131  -0.19376
 Alpha  occ. eigenvalues --   -0.17686  -0.13362
 Alpha virt. eigenvalues --    0.15446   0.17056   0.17448   0.18753   0.21369
 Alpha virt. eigenvalues --    0.21850   0.26858   0.28549   0.31056   0.31455
 Alpha virt. eigenvalues --    0.32425   0.33562   0.36921   0.38664
          Condensed to atoms (all electrons):
               1          2          3          4          5          6
     1  C    4.339424   0.000000   0.000000   0.000000   0.000000   0.000000
     2  C    0.000000   4.051149   0.000000   0.000000   0.000000   0.000000
     3  C    0.000000   0.000000   4.141805   0.000000   0.000000   0.000000
     4  C    0.000000   0.000000   0.000000   4.120663   0.000000   0.000000
     5  C    0.000000   0.000000   0.000000   0.000000   4.066492   0.000000
     6  C    0.000000   0.000000   0.000000   0.000000   0.000000   4.045148
     7  Cl   0.000000   0.000000   0.000000   0.000000   0.000000   0.000000
     8  Cl   0.000000   0.000000   0.000000   0.000000   0.000000   0.000000
     9  Cl   0.000000   0.000000   0.000000   0.000000   0.000000   0.000000
    10  Cl   0.000000   0.000000   0.000000   0.000000   0.000000   0.000000
    11  H    0.000000   0.000000   0.000000   0.000000   0.000000   0.000000
               7          8          9         10         11
     1  C    0.000000   0.000000   0.000000   0.000000   0.000000
     2  C    0.000000   0.000000   0.000000   0.000000   0.000000
     3  C    0.000000   0.000000   0.000000   0.000000   0.000000
     4  C    0.000000   0.000000   0.000000   0.000000   0.000000
     5  C    0.000000   0.000000   0.000000   0.000000   0.000000
     6  C    0.000000   0.000000   0.000000   0.000000   0.000000
     7  Cl   7.089847   0.000000   0.000000   0.000000   0.000000
     8  Cl   0.000000   7.083258   0.000000   0.000000   0.000000
     9  Cl   0.000000   0.000000   7.069819   0.000000   0.000000
    10  Cl   0.000000   0.000000   0.000000   7.112508   0.000000
    11  H    0.000000   0.000000   0.000000   0.000000   0.879888
 Mulliken charges:
               1
     1  C   -0.339424
     2  C   -0.051149
     3  C   -0.141805
     4  C   -0.120663
     5  C   -0.066492
     6  C   -0.045148
     7  Cl  -0.089847
     8  Cl  -0.083258
     9  Cl  -0.069819
    10  Cl  -0.112508
    11  H    0.120112
 Sum of Mulliken charges =  -1.00000
 Mulliken charges with hydrogens summed into heavy atoms:
               1
     1  C   -0.339424
     2  C   -0.051149
     3  C   -0.021693
     4  C   -0.120663
     5  C   -0.066492
     6  C   -0.045148
     7  Cl  -0.089847
     8  Cl  -0.083258
     9  Cl  -0.069819
    10  Cl  -0.112508
 Charge=             -1.0000 electrons
 Dipole moment (field-independent basis, Debye):
    X=              4.0025    Y=              2.8159    Z=              0.0000  Tot=              4.8938
 N-N= 2.958662954403D+02 E-N=-4.247691968061D+02  KE=-1.358872191173D+02
 Symmetry A'   KE=-1.042300757404D+02
 Symmetry A"   KE=-3.165714337692D+01
 1\1\GINC-SH03-01N03\FOpt\RAM1\ZDO\C6H1Cl4(1-)\JLAPIER\08-Dec-2025\0\\#
  opt am1 SCF(maxcyc=10000)\\Anion Intermediate (removed 2) 1_345\\-1,1
 \C,-3.1693392765,0.2306205116,0.\C,-1.9688135397,0.9228936807,0.\C,-0.
 7245972744,0.286807043,0.\C,-0.6983632277,-1.1121032561,0.\C,-1.891564
 5635,-1.8514052977,0.\C,-3.1101238134,-1.1538665792,0.\Cl,-4.580722539
 8,-2.0406797925,0.\Cl,0.8260540418,-1.8962660857,0.\Cl,-1.8311666406,-
 3.5613465197,0.\Cl,-1.9814427453,2.6451405878,0.\H,0.2173095791,0.8525
 057078,0.\\Version=ES64L-G16RevB.01\State=1-A'\HF=0.0092517\RMSD=9.436
 e-09\RMSF=5.806e-05\Dipole=1.5653544,-1.1210365,0.\PG=CS [SG(C6H1Cl4)]
 \\@


 A BIRD IN THE HAND IS SAFER THAN ONE OVERHEAD.

                       -- NEWTON'S SEVENTH LAW
 Job cpu time:       0 days  0 hours  0 minutes  2.9 seconds.
 Elapsed time:       0 days  0 hours  0 minutes 18.6 seconds.
 File lengths (MBytes):  RWF=     10 Int=      0 D2E=      0 Chk=      2 Scr=      1
 Normal termination of Gaussian 16 at Mon Dec  8 17:08:45 2025.
