 Entering Gaussian System, Link 0=g16
 Initial command:
 /share/software/user/restricted/gaussian/g16.B01/l1.exe "/home/users/jlapier/Chloroaromatics/Gau-14001.inp" -scrdir="/home/users/jlapier/Chloroaromatics/"
 Entering Link 1 = /share/software/user/restricted/gaussian/g16.B01/l1.exe PID=     14002.
  
 Copyright (c) 1988-2017, Gaussian, Inc.  All Rights Reserved.
  
 This is part of the Gaussian(R) 16 program.  It is based on
 the Gaussian(R) 09 system (copyright 2009, Gaussian, Inc.),
 the Gaussian(R) 03 system (copyright 2003, Gaussian, Inc.),
 the Gaussian(R) 98 system (copyright 1998, Gaussian, Inc.),
 the Gaussian(R) 94 system (copyright 1995, Gaussian, Inc.),
 the Gaussian 92(TM) system (copyright 1992, Gaussian, Inc.),
 the Gaussian 90(TM) system (copyright 1990, Gaussian, Inc.),
 the Gaussian 88(TM) system (copyright 1988, Gaussian, Inc.),
 the Gaussian 86(TM) system (copyright 1986, Carnegie Mellon
 University), and the Gaussian 82(TM) system (copyright 1983,
 Carnegie Mellon University). Gaussian is a federally registered
 trademark of Gaussian, Inc.
  
 This software contains proprietary and confidential information,
 including trade secrets, belonging to Gaussian, Inc.
  
 This software is provided under written license and may be
 used, copied, transmitted, or stored only in accord with that
 written license.
  
 The following legend is applicable only to US Government
 contracts under FAR:
  
                    RESTRICTED RIGHTS LEGEND
  
 Use, reproduction and disclosure by the US Government is
 subject to restrictions as set forth in subparagraphs (a)
 and (c) of the Commercial Computer Software - Restricted
 Rights clause in FAR 52.227-19.
  
 Gaussian, Inc.
 340 Quinnipiac St., Bldg. 40, Wallingford CT 06492
  
  
 ---------------------------------------------------------------
 Warning -- This program may not be used in any manner that
 competes with the business of Gaussian, Inc. or will provide
 assistance to any competitor of Gaussian, Inc.  The licensee
 of this program is prohibited from giving any competitor of
 Gaussian, Inc. access to this program.  By using this program,
 the user acknowledges that Gaussian, Inc. is engaged in the
 business of creating and licensing software in the field of
 computational chemistry and represents and warrants to the
 licensee that it is not a competitor of Gaussian, Inc. and that
 it will not use this program in any manner prohibited above.
 ---------------------------------------------------------------
  

 Cite this work as:
 Gaussian 16, Revision B.01,
 M. J. Frisch, G. W. Trucks, H. B. Schlegel, G. E. Scuseria, 
 M. A. Robb, J. R. Cheeseman, G. Scalmani, V. Barone, 
 G. A. Petersson, H. Nakatsuji, X. Li, M. Caricato, A. V. Marenich, 
 J. Bloino, B. G. Janesko, R. Gomperts, B. Mennucci, H. P. Hratchian, 
 J. V. Ortiz, A. F. Izmaylov, J. L. Sonnenberg, D. Williams-Young, 
 F. Ding, F. Lipparini, F. Egidi, J. Goings, B. Peng, A. Petrone, 
 T. Henderson, D. Ranasinghe, V. G. Zakrzewski, J. Gao, N. Rega, 
 G. Zheng, W. Liang, M. Hada, M. Ehara, K. Toyota, R. Fukuda, 
 J. Hasegawa, M. Ishida, T. Nakajima, Y. Honda, O. Kitao, H. Nakai, 
 T. Vreven, K. Throssell, J. A. Montgomery, Jr., J. E. Peralta, 
 F. Ogliaro, M. J. Bearpark, J. J. Heyd, E. N. Brothers, K. N. Kudin, 
 V. N. Staroverov, T. A. Keith, R. Kobayashi, J. Normand, 
 K. Raghavachari, A. P. Rendell, J. C. Burant, S. S. Iyengar, 
 J. Tomasi, M. Cossi, J. M. Millam, M. Klene, C. Adamo, R. Cammi, 
 J. W. Ochterski, R. L. Martin, K. Morokuma, O. Farkas, 
 J. B. Foresman, and D. J. Fox, Gaussian, Inc., Wallingford CT, 2016.
 
 ******************************************
 Gaussian 16:  ES64L-G16RevB.01 20-Dec-2017
                 9-Dec-2025 
 ******************************************
 %mem=2GB
 %nprocshare=1
 Will use up to    1 processors via shared memory.
 %chk=geometry_chks/1_34ClBzNeutralRadical.chk
 -----------------
 # opt am1 SCF=XQC
 -----------------
 1/18=20,19=15,26=1,38=1/1,3;
 2/9=110,12=2,17=6,18=5,40=1/2;
 3/5=2,25=1,41=700000,71=1/1,2,3;
 4/35=1/1;
 5/5=2,8=3,13=1,35=1,38=5/2,8;
 6/7=2,8=2,9=2,10=2,28=1/1;
 7//1,2,3,16;
 1/18=20,19=15,26=1/3(2);
 2/9=110/2;
 99//99;
 2/9=110/2;
 3/5=2,25=1,41=700000,71=1,135=20/1,2,3;
 4/5=5,16=3,35=1/1;
 5/5=2,8=3,13=1,35=1,38=5/2,8;
 7//1,2,3,16;
 1/18=20,19=15,26=1/3(-5);
 2/9=110/2;
 6/7=2,8=2,9=2,10=2,19=2,28=1/1;
 99/9=1/99;
 --------------------------------
 Neutral Radical (removed 2) 1_34
 --------------------------------
 Symbolic Z-matrix:
 Charge =  0 Multiplicity = 2
 C                    -3.20928   0.19943   0. 
 C                    -2.0115    0.93555   0. 
 C                    -0.77511   0.2663    0. 
 C                    -0.7365   -1.13907   0. 
 C                    -1.93429  -1.87519   0. 
 C                    -3.17067  -1.20594   0. 
 Cl                   -4.67483  -2.13035   0. 
 Cl                    0.81614  -1.97951   0. 
 Cl                   -1.8858   -3.64003   0. 
 H                    -2.05998   2.7004    0. 
 H                     0.72905   1.19071   0. 
 
 Add virtual bond connecting atoms H11        and C3         Dist= 3.34D+00.
 Add virtual bond connecting atoms H10        and C2         Dist= 3.34D+00.

 GradGradGradGradGradGradGradGradGradGradGradGradGradGradGradGradGradGrad
 Berny optimization.
 Initialization pass.
                           ----------------------------
                           !    Initial Parameters    !
                           ! (Angstroms and Degrees)  !
 --------------------------                            --------------------------
 ! Name  Definition              Value          Derivative Info.                !
 --------------------------------------------------------------------------------
 ! R1    R(1,2)                  1.4059         estimate D2E/DX2                !
 ! R2    R(1,6)                  1.4059         estimate D2E/DX2                !
 ! R3    R(2,3)                  1.4059         estimate D2E/DX2                !
 ! R4    R(2,10)                 1.7655         estimate D2E/DX2                !
 ! R5    R(3,4)                  1.4059         estimate D2E/DX2                !
 ! R6    R(3,11)                 1.7655         estimate D2E/DX2                !
 ! R7    R(4,5)                  1.4059         estimate D2E/DX2                !
 ! R8    R(4,8)                  1.7655         estimate D2E/DX2                !
 ! R9    R(5,6)                  1.4059         estimate D2E/DX2                !
 ! R10   R(5,9)                  1.7655         estimate D2E/DX2                !
 ! R11   R(6,7)                  1.7655         estimate D2E/DX2                !
 ! A1    A(2,1,6)              119.9999         estimate D2E/DX2                !
 ! A2    A(1,2,3)              120.0            estimate D2E/DX2                !
 ! A3    A(1,2,10)             120.0001         estimate D2E/DX2                !
 ! A4    A(3,2,10)             119.9999         estimate D2E/DX2                !
 ! A5    A(2,3,4)              120.0001         estimate D2E/DX2                !
 ! A6    A(2,3,11)             120.0            estimate D2E/DX2                !
 ! A7    A(4,3,11)             119.9999         estimate D2E/DX2                !
 ! A8    A(3,4,5)              119.9997         estimate D2E/DX2                !
 ! A9    A(3,4,8)              120.0003         estimate D2E/DX2                !
 ! A10   A(5,4,8)              120.0            estimate D2E/DX2                !
 ! A11   A(4,5,6)              120.0            estimate D2E/DX2                !
 ! A12   A(4,5,9)              119.9996         estimate D2E/DX2                !
 ! A13   A(6,5,9)              120.0004         estimate D2E/DX2                !
 ! A14   A(1,6,5)              120.0003         estimate D2E/DX2                !
 ! A15   A(1,6,7)              119.9999         estimate D2E/DX2                !
 ! A16   A(5,6,7)              119.9998         estimate D2E/DX2                !
 ! D1    D(6,1,2,3)              0.0            estimate D2E/DX2                !
 ! D2    D(6,1,2,10)           180.0            estimate D2E/DX2                !
 ! D3    D(2,1,6,5)              0.0            estimate D2E/DX2                !
 ! D4    D(2,1,6,7)            180.0            estimate D2E/DX2                !
 ! D5    D(1,2,3,4)              0.0            estimate D2E/DX2                !
 ! D6    D(1,2,3,11)           180.0            estimate D2E/DX2                !
 ! D7    D(10,2,3,4)           180.0            estimate D2E/DX2                !
 ! D8    D(10,2,3,11)            0.0            estimate D2E/DX2                !
 ! D9    D(2,3,4,5)              0.0            estimate D2E/DX2                !
 ! D10   D(2,3,4,8)            180.0            estimate D2E/DX2                !
 ! D11   D(11,3,4,5)           180.0            estimate D2E/DX2                !
 ! D12   D(11,3,4,8)             0.0            estimate D2E/DX2                !
 ! D13   D(3,4,5,6)              0.0            estimate D2E/DX2                !
 ! D14   D(3,4,5,9)            180.0            estimate D2E/DX2                !
 ! D15   D(8,4,5,6)            180.0            estimate D2E/DX2                !
 ! D16   D(8,4,5,9)              0.0            estimate D2E/DX2                !
 ! D17   D(4,5,6,1)              0.0            estimate D2E/DX2                !
 ! D18   D(4,5,6,7)            180.0            estimate D2E/DX2                !
 ! D19   D(9,5,6,1)            180.0            estimate D2E/DX2                !
 ! D20   D(9,5,6,7)              0.0            estimate D2E/DX2                !
 --------------------------------------------------------------------------------
 Trust Radius=3.00D-01 FncErr=1.00D-07 GrdErr=1.00D-07 EigMax=2.50D+02 EigMin=1.00D-04
 Number of steps in this run=     57 maximum allowed number of steps=    100.
 GradGradGradGradGradGradGradGradGradGradGradGradGradGradGradGradGradGrad

                          Input orientation:                          
 ---------------------------------------------------------------------
 Center     Atomic      Atomic             Coordinates (Angstroms)
 Number     Number       Type             X           Y           Z
 ---------------------------------------------------------------------
      1          6           0       -3.209280    0.199430    0.000000
      2          6           0       -2.011500    0.935550    0.000000
      3          6           0       -0.775110    0.266300    0.000000
      4          6           0       -0.736500   -1.139070    0.000000
      5          6           0       -1.934290   -1.875190    0.000000
      6          6           0       -3.170670   -1.205940    0.000000
      7         17           0       -4.674830   -2.130350    0.000000
      8         17           0        0.816140   -1.979510    0.000000
      9         17           0       -1.885800   -3.640030    0.000000
     10          1           0       -2.059980    2.700400    0.000000
     11          1           0        0.729050    1.190710    0.000000
 ---------------------------------------------------------------------
                    Distance matrix (angstroms):
                    1          2          3          4          5
     1  C    0.000000
     2  C    1.405898   0.000000
     3  C    2.435088   1.405900   0.000000
     4  C    2.811801   2.435092   1.405900   0.000000
     5  C    2.435087   2.811800   2.435093   1.405907   0.000000
     6  C    1.405900   2.435088   2.811796   2.435088   1.405892
     7  Cl   2.752401   4.061166   4.577308   4.061167   2.752393
     8  Cl   4.577312   4.061173   2.752406   1.765511   2.752408
     9  Cl   4.061164   4.577306   4.061163   2.752397   1.765506
    10  H    2.752406   1.765516   2.752405   4.061173   4.577316
    11  H    4.061167   2.752403   1.765512   2.752401   4.061173
                    6          7          8          9         10
     6  C    0.000000
     7  Cl   1.765512   0.000000
     8  Cl   4.061165   5.493041   0.000000
     9  Cl   2.752396   3.171407   3.171404   0.000000
    10  H    4.061173   5.493049   5.493052   6.342822   0.000000
    11  H    4.577308   6.342819   3.171416   5.493040   3.171412
                   11
    11  H    0.000000
 Stoichiometry    C6H2Cl3(2)
 Framework group  CS[SG(C6H2Cl3)]
 Deg. of freedom    19
 Full point group                 CS      NOp   2
 Largest Abelian subgroup         CS      NOp   2
 Largest concise Abelian subgroup C1      NOp   1
                         Standard orientation:                         
 ---------------------------------------------------------------------
 Center     Atomic      Atomic             Coordinates (Angstroms)
 Number     Number       Type             X           Y           Z
 ---------------------------------------------------------------------
      1          6           0       -1.861050    1.248404   -0.000000
      2          6           0       -2.564000    0.030862   -0.000000
      3          6           0       -1.861050   -1.186684    0.000000
      4          6           0       -0.455149   -1.186686    0.000000
      5          6           0        0.247801    0.030866   -0.000000
      6          6           0       -0.455149    1.248402   -0.000000
      7         17           0        0.427606    2.777380   -0.000000
      8         17           0        0.427611   -2.715662    0.000000
      9         17           0        2.013307    0.030859    0.000000
     10          1           0       -4.329515    0.030859   -0.000000
     11          1           0       -2.743805   -2.715662    0.000000
 ---------------------------------------------------------------------
 Rotational constants (GHZ):           1.4523932           0.8332518           0.5294826
 Standard basis: VSTO-6G (5D, 7F)
 There are    29 symmetry adapted cartesian basis functions of A'  symmetry.
 There are     9 symmetry adapted cartesian basis functions of A"  symmetry.
 There are    29 symmetry adapted basis functions of A'  symmetry.
 There are     9 symmetry adapted basis functions of A"  symmetry.
    38 basis functions,   228 primitive gaussians,    38 cartesian basis functions
    24 alpha electrons       23 beta electrons
       nuclear repulsion energy       242.1157807043 Hartrees.
 Integral buffers will be    131072 words long.
 Regular integral format.
 Two-electron integral symmetry is turned off.
 Do NDO integrals.
 One-electron integrals computed using PRISM.
 NBasis=    38 RedAO= T EigKep=  1.00D+00  NBF=    29     9
 NBsUse=    38 1.00D-06 EigRej= -1.00D+00 NBFU=    29     9
 Simple Huckel Guess.
 Initial guess orbital symmetries:
 Alpha Orbitals:
       Occupied  (A') (A') (A') (A') (A') (A') (A') (A') (A') (A")
                 (A') (A') (A') (A') (A") (A") (A') (A") (A') (A')
                 (A') (A") (A") (A')
       Virtual   (A') (A") (A") (A') (A") (A') (A') (A') (A') (A')
                 (A') (A') (A') (A')
 Beta  Orbitals:
       Occupied  (A') (A') (A') (A') (A') (A') (A') (A') (A') (A")
                 (A') (A') (A') (A') (A") (A") (A') (A") (A') (A')
                 (A') (A") (A")
       Virtual   (A') (A') (A") (A") (A') (A") (A') (A') (A') (A')
                 (A') (A') (A') (A') (A')
 The electronic state of the initial guess is 2-A'.
 Initial guess <Sx>= 0.0000 <Sy>= 0.0000 <Sz>= 0.5000 <S**2>= 0.7500 S= 0.5000
 Keep J ints in memory in canonical form, NReq=863588.
 Overlap will be assumed to be unity.
 Requested convergence on RMS density matrix=1.00D-08 within  32 cycles.
 Requested convergence on MAX density matrix=1.00D-06.
 Requested convergence on             energy=1.00D-06.
 No special actions if energy rises.
 Fock symm off for IB=2 I1=    1 I=   30 J=   29 Cut=1.00D-07 Err=4.85D-03
 Fock matrix is not symmetric: symmetry in diagonalization turned off.
 Rare condition: small coef for last iteration:  0.000D+00
 Rare condition: small coef for last iteration:  0.000D+00
 Rare condition: small coef for last iteration:  0.000D+00
 Rare condition: small coef for last iteration:  0.000D+00
 Rare condition: small coef for last iteration:  0.000D+00
 Rare condition: small coef for last iteration:  0.000D+00
 Rare condition: small coef for last iteration:  0.000D+00
 Rare condition: small coef for last iteration:  0.000D+00
 Rare condition: small coef for last iteration:  0.000D+00
 Rare condition: small coef for last iteration:  0.000D+00
 Rare condition: small coef for last iteration:  0.000D+00
 Rare condition: small coef for last iteration:  0.000D+00
 Rare condition: small coef for last iteration:  0.000D+00
 Rare condition: small coef for last iteration:  0.000D+00
 Rare condition: small coef for last iteration:  0.000D+00
 Rare condition: small coef for last iteration:  0.000D+00
 >>>>>>>>>> Convergence criterion not met.
 SCF Done:  E(UAM1) =  0.354574519673     A.U. after   33 cycles
            NFock= 32  Conv=0.18D-02     -V/T= 1.0032
 <Sx>= 0.0000 <Sy>= 0.0000 <Sz>= 0.5000 <S**2>= 1.2192 S= 0.7121
 <L.S>=  0.00000000000    
 Annihilation of the first spin contaminant:
 S**2 before annihilation     1.2192,   after     0.9697
 Keep J ints in memory in canonical form, NReq=863988.
 LinEq1:  Iter=  0 NonCon=     1 RMS=1.10D-04 Max=1.29D-03 NDo=     1
 AX will form     1 AO Fock derivatives at one time.
 LinEq1:  Iter=  1 NonCon=     1 RMS=1.94D-05 Max=1.26D-04 NDo=     1
 LinEq1:  Iter=  2 NonCon=     1 RMS=5.73D-06 Max=6.73D-05 NDo=     1
 LinEq1:  Iter=  3 NonCon=     1 RMS=1.53D-06 Max=1.33D-05 NDo=     1
 LinEq1:  Iter=  4 NonCon=     1 RMS=4.01D-07 Max=4.67D-06 NDo=     1
 LinEq1:  Iter=  5 NonCon=     1 RMS=1.23D-07 Max=1.19D-06 NDo=     1
 LinEq1:  Iter=  6 NonCon=     1 RMS=2.52D-08 Max=2.24D-07 NDo=     1
 LinEq1:  Iter=  7 NonCon=     1 RMS=4.87D-09 Max=3.95D-08 NDo=     1
 LinEq1:  Iter=  8 NonCon=     0 RMS=1.33D-09 Max=9.19D-09 NDo=     1
 Linear equations converged to 2.610D-09 2.610D-08 after     8 iterations.
 Gradient too large for Newton-Raphson -- use scaled steepest descent instead.
 Gradient too large for Newton-Raphson -- use scaled steepest descent instead.
     Minimum is close to point  3 DX=  1.47D-02 DF= -2.15D-08 DXR=  7.28D-03 DFR=  5.31D-05 which will be used.
 LinEq1:  Iter=  0 NonCon=     1 RMS=6.87D-04 Max=6.49D-03 NDo=     1
 LinEq1:  Iter=  1 NonCon=     1 RMS=3.32D-04 Max=2.63D-03 NDo=     1
 LinEq1:  Iter=  2 NonCon=     1 RMS=3.30D-05 Max=2.73D-04 NDo=     1
 LinEq1:  Iter=  3 NonCon=     1 RMS=9.30D-06 Max=1.30D-04 NDo=     1
 LinEq1:  Iter=  4 NonCon=     1 RMS=2.40D-06 Max=2.68D-05 NDo=     1
 LinEq1:  Iter=  5 NonCon=     1 RMS=4.30D-07 Max=4.04D-06 NDo=     1
 LinEq1:  Iter=  6 NonCon=     1 RMS=1.03D-07 Max=1.02D-06 NDo=     1
 LinEq1:  Iter=  7 NonCon=     1 RMS=2.77D-08 Max=2.08D-07 NDo=     1
 LinEq1:  Iter=  8 NonCon=     1 RMS=8.06D-09 Max=6.52D-08 NDo=     1
 LinEq1:  Iter=  9 NonCon=     0 RMS=1.66D-09 Max=1.54D-08 NDo=     1
 Linear equations converged to 2.610D-09 2.610D-08 after     9 iterations.
 Incorrect curvature in search direction -- initial direction reversed.
 Gradient too large for Newton-Raphson -- use scaled steepest descent instead.
 LinEq1:  Iter=  0 NonCon=     1 RMS=6.05D-04 Max=5.47D-03 NDo=     1
 LinEq1:  Iter=  1 NonCon=     1 RMS=2.90D-04 Max=2.04D-03 NDo=     1
 LinEq1:  Iter=  2 NonCon=     1 RMS=2.27D-05 Max=2.19D-04 NDo=     1
 LinEq1:  Iter=  3 NonCon=     1 RMS=9.09D-06 Max=6.75D-05 NDo=     1
 LinEq1:  Iter=  4 NonCon=     1 RMS=1.33D-06 Max=1.12D-05 NDo=     1
 LinEq1:  Iter=  5 NonCon=     1 RMS=4.78D-07 Max=5.35D-06 NDo=     1
 LinEq1:  Iter=  6 NonCon=     1 RMS=9.72D-08 Max=1.03D-06 NDo=     1
 LinEq1:  Iter=  7 NonCon=     1 RMS=1.92D-08 Max=1.60D-07 NDo=     1
 LinEq1:  Iter=  8 NonCon=     1 RMS=4.13D-09 Max=3.33D-08 NDo=     1
 LinEq1:  Iter=  9 NonCon=     0 RMS=8.43D-10 Max=7.91D-09 NDo=     1
 Linear equations converged to 2.610D-09 2.610D-08 after     9 iterations.
 Incorrect curvature in search direction -- initial direction reversed.
     Minimum is close to point  3 DX= -1.83D-03 DF= -6.29D-07 DXR=  3.02D-02 DFR=  9.11D-04 which will be used.
 LinEq1:  Iter=  0 NonCon=     1 RMS=6.43D-04 Max=5.54D-03 NDo=     1
 LinEq1:  Iter=  1 NonCon=     1 RMS=3.08D-04 Max=2.36D-03 NDo=     1
 LinEq1:  Iter=  2 NonCon=     1 RMS=2.44D-05 Max=2.21D-04 NDo=     1
 LinEq1:  Iter=  3 NonCon=     1 RMS=9.53D-06 Max=6.40D-05 NDo=     1
 LinEq1:  Iter=  4 NonCon=     1 RMS=1.52D-06 Max=1.29D-05 NDo=     1
 LinEq1:  Iter=  5 NonCon=     1 RMS=5.13D-07 Max=5.06D-06 NDo=     1
 LinEq1:  Iter=  6 NonCon=     1 RMS=1.28D-07 Max=1.19D-06 NDo=     1
 LinEq1:  Iter=  7 NonCon=     1 RMS=1.94D-08 Max=1.52D-07 NDo=     1
 LinEq1:  Iter=  8 NonCon=     1 RMS=4.18D-09 Max=3.89D-08 NDo=     1
 LinEq1:  Iter=  9 NonCon=     0 RMS=8.39D-10 Max=6.01D-09 NDo=     1
 Linear equations converged to 2.610D-09 2.610D-08 after     9 iterations.
 Incorrect curvature in search direction -- initial direction reversed.
 LinEq1:  Iter=  0 NonCon=     1 RMS=6.61D-04 Max=5.62D-03 NDo=     1
 LinEq1:  Iter=  1 NonCon=     1 RMS=3.16D-04 Max=2.76D-03 NDo=     1
 LinEq1:  Iter=  2 NonCon=     1 RMS=2.36D-05 Max=2.15D-04 NDo=     1
 LinEq1:  Iter=  3 NonCon=     1 RMS=9.07D-06 Max=6.14D-05 NDo=     1
 LinEq1:  Iter=  4 NonCon=     1 RMS=1.56D-06 Max=1.15D-05 NDo=     1
 LinEq1:  Iter=  5 NonCon=     1 RMS=4.86D-07 Max=4.30D-06 NDo=     1
 LinEq1:  Iter=  6 NonCon=     1 RMS=1.37D-07 Max=1.13D-06 NDo=     1
 LinEq1:  Iter=  7 NonCon=     1 RMS=1.87D-08 Max=1.48D-07 NDo=     1
 LinEq1:  Iter=  8 NonCon=     1 RMS=3.77D-09 Max=3.65D-08 NDo=     1
 LinEq1:  Iter=  9 NonCon=     0 RMS=7.46D-10 Max=4.67D-09 NDo=     1
 Linear equations converged to 2.610D-09 2.610D-08 after     9 iterations.
 LinEq1:  Iter=  0 NonCon=     1 RMS=5.65D-04 Max=4.17D-03 NDo=     1
 LinEq1:  Iter=  1 NonCon=     1 RMS=2.67D-04 Max=3.09D-03 NDo=     1
 LinEq1:  Iter=  2 NonCon=     1 RMS=2.06D-05 Max=1.68D-04 NDo=     1
 LinEq1:  Iter=  3 NonCon=     1 RMS=5.73D-06 Max=5.89D-05 NDo=     1
 LinEq1:  Iter=  4 NonCon=     1 RMS=1.47D-06 Max=1.18D-05 NDo=     1
 LinEq1:  Iter=  5 NonCon=     1 RMS=2.42D-07 Max=1.51D-06 NDo=     1
 LinEq1:  Iter=  6 NonCon=     1 RMS=7.54D-08 Max=6.20D-07 NDo=     1
 LinEq1:  Iter=  7 NonCon=     1 RMS=1.47D-08 Max=9.22D-08 NDo=     1
 LinEq1:  Iter=  8 NonCon=     0 RMS=2.41D-09 Max=1.75D-08 NDo=     1
 Linear equations converged to 2.610D-09 2.610D-08 after     8 iterations.
     Accept linear search using points  1 and  2.
 LinEq1:  Iter=  0 NonCon=     1 RMS=1.24D-04 Max=7.90D-04 NDo=     1
 LinEq1:  Iter=  1 NonCon=     1 RMS=2.07D-05 Max=2.10D-04 NDo=     1
 LinEq1:  Iter=  2 NonCon=     1 RMS=5.11D-06 Max=4.34D-05 NDo=     1
 LinEq1:  Iter=  3 NonCon=     1 RMS=9.03D-07 Max=5.20D-06 NDo=     1
 LinEq1:  Iter=  4 NonCon=     1 RMS=1.89D-07 Max=1.39D-06 NDo=     1
 LinEq1:  Iter=  5 NonCon=     1 RMS=4.03D-08 Max=2.99D-07 NDo=     1
 LinEq1:  Iter=  6 NonCon=     1 RMS=1.07D-08 Max=8.22D-08 NDo=     1
 LinEq1:  Iter=  7 NonCon=     0 RMS=2.15D-09 Max=1.40D-08 NDo=     1
 Linear equations converged to 2.610D-09 2.610D-08 after     7 iterations.
     Accept linear search using points  1 and  2.
     Minimum is close to point  2 DX= -2.39D-04 DF= -4.34D-13 DXR=  2.39D-04 DFR=  5.70D-08 which will be used.
 LinEq1:  Iter=  0 NonCon=     1 RMS=4.94D-07 Max=4.57D-06 NDo=     1
 LinEq1:  Iter=  1 NonCon=     1 RMS=1.40D-07 Max=1.09D-06 NDo=     1
 LinEq1:  Iter=  2 NonCon=     1 RMS=3.83D-08 Max=2.33D-07 NDo=     1
 LinEq1:  Iter=  3 NonCon=     1 RMS=8.84D-09 Max=6.94D-08 NDo=     1
 LinEq1:  Iter=  4 NonCon=     1 RMS=2.00D-09 Max=1.28D-08 NDo=     1
 LinEq1:  Iter=  5 NonCon=     1 RMS=4.29D-10 Max=3.31D-09 NDo=     1
 LinEq1:  Iter=  6 NonCon=     1 RMS=1.04D-10 Max=6.70D-10 NDo=     1
 LinEq1:  Iter=  7 NonCon=     0 RMS=1.81D-11 Max=1.33D-10 NDo=     1
 Linear equations converged to 8.290D-11 8.290D-10 after     7 iterations.
 SCF Done:  E(UAM1) =  0.343321180495     a.u. after   12 cycles
            Convg  =    0.1720D-06                   100 Fock formations.
              S**2 =  1.8807                  -V/T =  1.0031
 <Sx>= 0.0000 <Sy>= 0.0000 <Sz>= 0.5000 <S**2>= 1.8807 S= 0.9597
 <L.S>=  0.00000000000    
 Annihilation of the first spin contaminant:
 S**2 before annihilation     1.8807,   after     2.5655

 **********************************************************************

            Population analysis using the SCF Density.

 **********************************************************************

 Orbital symmetries:
 Alpha Orbitals:
       Occupied  (A') (A') (A') (A') (A') (A') (A') (A') (A') (A')
                 (A') (A") (A') (A') (A") (A") (A') (A') (A") (A')
                 (A') (A') (A") (A")
       Virtual   (A") (A') (A") (A') (A') (A') (A') (A") (A') (A')
                 (A') (A') (A') (A')
 Beta  Orbitals:
       Occupied  (A') (A') (A') (A') (A') (A') (A') (A') (A') (A')
                 (A') (A") (A') (A") (A') (A") (A') (A") (A') (A')
                 (A') (A") (A")
       Virtual   (A') (A") (A') (A') (A") (A') (A') (A') (A") (A')
                 (A') (A') (A') (A') (A')
 The electronic state is 2-A'.
 Alpha  occ. eigenvalues --   -1.44825  -1.38409  -1.37640  -1.36209  -1.13506
 Alpha  occ. eigenvalues --   -1.12835  -0.85385  -0.84317  -0.65690  -0.62630
 Alpha  occ. eigenvalues --   -0.58596  -0.56128  -0.55146  -0.48864  -0.48531
 Alpha  occ. eigenvalues --   -0.47266  -0.45951  -0.45768  -0.44744  -0.43734
 Alpha  occ. eigenvalues --   -0.41603  -0.40489  -0.38509  -0.37481
 Alpha virt. eigenvalues --   -0.00879  -0.00758   0.00387   0.00880   0.01751
 Alpha virt. eigenvalues --    0.03706   0.04367   0.07549   0.12890   0.12943
 Alpha virt. eigenvalues --    0.14803   0.15268   0.16419   0.18061
  Beta  occ. eigenvalues --   -1.44374  -1.38460  -1.37529  -1.35880  -1.12686
  Beta  occ. eigenvalues --   -1.11890  -0.84673  -0.82245  -0.65941  -0.62110
  Beta  occ. eigenvalues --   -0.57381  -0.56029  -0.54685  -0.49566  -0.47136
  Beta  occ. eigenvalues --   -0.46552  -0.45546  -0.44774  -0.44524  -0.43651
  Beta  occ. eigenvalues --   -0.41119  -0.37843  -0.37041
  Beta virt. eigenvalues --   -0.03308  -0.00444   0.00205   0.00687   0.01694
  Beta virt. eigenvalues --    0.02125   0.03898   0.04246   0.08395   0.13287
  Beta virt. eigenvalues --    0.13355   0.15366   0.16436   0.17038   0.19049
          Condensed to atoms (all electrons):
               1          2          3          4          5          6
     1  C    4.005243   0.000000   0.000000   0.000000   0.000000   0.000000
     2  C    0.000000   4.131470   0.000000   0.000000   0.000000   0.000000
     3  C    0.000000   0.000000   4.118699   0.000000   0.000000   0.000000
     4  C    0.000000   0.000000   0.000000   4.037859   0.000000   0.000000
     5  C    0.000000   0.000000   0.000000   0.000000   4.039981   0.000000
     6  C    0.000000   0.000000   0.000000   0.000000   0.000000   4.040609
     7  Cl   0.000000   0.000000   0.000000   0.000000   0.000000   0.000000
     8  Cl   0.000000   0.000000   0.000000   0.000000   0.000000   0.000000
     9  Cl   0.000000   0.000000   0.000000   0.000000   0.000000   0.000000
    10  H    0.000000   0.000000   0.000000   0.000000   0.000000   0.000000
    11  H    0.000000   0.000000   0.000000   0.000000   0.000000   0.000000
               7          8          9         10         11
     1  C    0.000000   0.000000   0.000000   0.000000   0.000000
     2  C    0.000000   0.000000   0.000000   0.000000   0.000000
     3  C    0.000000   0.000000   0.000000   0.000000   0.000000
     4  C    0.000000   0.000000   0.000000   0.000000   0.000000
     5  C    0.000000   0.000000   0.000000   0.000000   0.000000
     6  C    0.000000   0.000000   0.000000   0.000000   0.000000
     7  Cl   6.993867   0.000000   0.000000   0.000000   0.000000
     8  Cl   0.000000   7.005331   0.000000   0.000000   0.000000
     9  Cl   0.000000   0.000000   6.985170   0.000000   0.000000
    10  H    0.000000   0.000000   0.000000   0.830065   0.000000
    11  H    0.000000   0.000000   0.000000   0.000000   0.811705
          Atomic-Atomic Spin Densities.
               1          2          3          4          5          6
     1  C    1.495668   0.000000   0.000000   0.000000   0.000000   0.000000
     2  C    0.000000  -0.994805   0.000000   0.000000   0.000000   0.000000
     3  C    0.000000   0.000000   0.966851   0.000000   0.000000   0.000000
     4  C    0.000000   0.000000   0.000000  -0.551261   0.000000   0.000000
     5  C    0.000000   0.000000   0.000000   0.000000   0.561118   0.000000
     6  C    0.000000   0.000000   0.000000   0.000000   0.000000  -0.557034
     7  Cl   0.000000   0.000000   0.000000   0.000000   0.000000   0.000000
     8  Cl   0.000000   0.000000   0.000000   0.000000   0.000000   0.000000
     9  Cl   0.000000   0.000000   0.000000   0.000000   0.000000   0.000000
    10  H    0.000000   0.000000   0.000000   0.000000   0.000000   0.000000
    11  H    0.000000   0.000000   0.000000   0.000000   0.000000   0.000000
               7          8          9         10         11
     1  C    0.000000   0.000000   0.000000   0.000000   0.000000
     2  C    0.000000   0.000000   0.000000   0.000000   0.000000
     3  C    0.000000   0.000000   0.000000   0.000000   0.000000
     4  C    0.000000   0.000000   0.000000   0.000000   0.000000
     5  C    0.000000   0.000000   0.000000   0.000000   0.000000
     6  C    0.000000   0.000000   0.000000   0.000000   0.000000
     7  Cl   0.007379   0.000000   0.000000   0.000000   0.000000
     8  Cl   0.000000   0.008596   0.000000   0.000000   0.000000
     9  Cl   0.000000   0.000000   0.006632   0.000000   0.000000
    10  H    0.000000   0.000000   0.000000   0.472290   0.000000
    11  H    0.000000   0.000000   0.000000   0.000000  -0.415435
 Mulliken charges and spin densities:
               1          2
     1  C   -0.005243   1.495668
     2  C   -0.131470  -0.994805
     3  C   -0.118699   0.966851
     4  C   -0.037859  -0.551261
     5  C   -0.039981   0.561118
     6  C   -0.040609  -0.557034
     7  Cl   0.006133   0.007379
     8  Cl  -0.005331   0.008596
     9  Cl   0.014830   0.006632
    10  H    0.169935   0.472290
    11  H    0.188295  -0.415435
 Sum of Mulliken charges =  -0.00000   1.00000
 Mulliken charges and spin densities with hydrogens summed into heavy atoms:
               1          2
     1  C   -0.005243   1.495668
     2  C    0.038465  -0.522515
     3  C    0.069596   0.551416
     4  C   -0.037859  -0.551261
     5  C   -0.039981   0.561118
     6  C   -0.040609  -0.557034
     7  Cl   0.006133   0.007379
     8  Cl  -0.005331   0.008596
     9  Cl   0.014830   0.006632
 Charge=              0.0000 electrons
 Dipole moment (field-independent basis, Debye):
    X=             -2.7247    Y=             -1.4919    Z=              0.0000  Tot=              3.1064
 N-N= 2.421157807043D+02 E-N=-3.376631526366D+02  KE=-1.117228213286D+02
 Symmetry A'   KE=-8.574453910975D+01
 Symmetry A"   KE=-2.597828221886D+01
 Symmetry A'   SP= 1.000000000000D+00
 Symmetry A"   SP= 6.661338147751D-16
 Calling FoFJK, ICntrl=      2127 FMM=F ISym2X=1 I1Cent= 0 IOpClX= 1 NMat=1 NMatS=1 NMatT=0.
 ***** Axes restored to original set *****
 -------------------------------------------------------------------
 Center     Atomic                   Forces (Hartrees/Bohr)
 Number     Number              X              Y              Z
 -------------------------------------------------------------------
      1        6           0.066790528   -0.008824364    0.000000000
      2        6          -0.011569649    0.057072468   -0.000000000
      3        6           0.041565952    0.049877024   -0.000000000
      4        6           0.037238029    0.001637462   -0.000000000
      5        6           0.001458761   -0.034933975   -0.000000000
      6        6          -0.049543681    0.000539059   -0.000000000
      7       17           0.033145324    0.022910790   -0.000000000
      8       17          -0.033817769    0.021219747   -0.000000000
      9       17          -0.001528446    0.040102370   -0.000000000
     10        1           0.002082263   -0.096252368    0.000000000
     11        1          -0.085821314   -0.053348212    0.000000000
 -------------------------------------------------------------------
 Cartesian Forces:  Max     0.096252368 RMS     0.035470986

 GradGradGradGradGradGradGradGradGradGradGradGradGradGradGradGradGradGrad
 Berny optimization.
 FormGI is forming the generalized inverse of G from B-inverse, IUseBI=4.
 Internal  Forces:  Max     0.101049809 RMS     0.025953043
 Search for a local minimum.
 Step number   1 out of a maximum of   57
 All quantities printed in internal units (Hartrees-Bohrs-Radians)
 Mixed Optimization -- RFO/linear search
 Second derivative matrix not updated -- first step.
 ITU=  0
     Eigenvalues ---    0.02011   0.02011   0.02011   0.02011   0.02011
     Eigenvalues ---    0.02011   0.02011   0.02011   0.06524   0.06524
     Eigenvalues ---    0.16000   0.16000   0.22422   0.24427   0.25000
     Eigenvalues ---    0.25000   0.25000   0.25000   0.29033   0.29033
     Eigenvalues ---    0.29034   0.40957   0.41540   0.44656   0.44657
     Eigenvalues ---    0.44657   0.44657
 RFO step:  Lambda=-1.26734334D-01 EMin= 2.01065791D-02
 Linear search not attempted -- first point.
 Maximum step size (   0.300) exceeded in Quadratic search.
    -- Step size scaled by   0.393
 Iteration  1 RMS(Cart)=  0.04677213 RMS(Int)=  0.00101781
 Iteration  2 RMS(Cart)=  0.00098362 RMS(Int)=  0.00002088
 Iteration  3 RMS(Cart)=  0.00000003 RMS(Int)=  0.00002088
 ClnCor:  largest displacement from symmetrization is 3.37D-11 for atom     8.
 Variable       Old X    -DE/DX   Delta X   Delta X   Delta X     New X
                                 (Linear)    (Quad)   (Total)
    R1        2.65676  -0.05379   0.00000  -0.03794  -0.03791   2.61885
    R2        2.65677  -0.03017   0.00000  -0.02080  -0.02077   2.63600
    R3        2.65677  -0.04458   0.00000  -0.03152  -0.03152   2.62525
    R4        3.33634  -0.09627   0.00000  -0.19716  -0.19716   3.13918
    R5        2.65677  -0.02164   0.00000  -0.01474  -0.01476   2.64200
    R6        3.33633  -0.10105   0.00000  -0.20694  -0.20694   3.12939
    R7        2.65678   0.00055   0.00000   0.00143   0.00140   2.65818
    R8        3.33633  -0.03984   0.00000  -0.03756  -0.03756   3.29878
    R9        2.65675  -0.00308   0.00000  -0.00116  -0.00117   2.65558
   R10        3.33632  -0.04013   0.00000  -0.03783  -0.03783   3.29850
   R11        3.33633  -0.04023   0.00000  -0.03793  -0.03793   3.29841
    A1        2.09439   0.02270   0.00000   0.02118   0.02126   2.11565
    A2        2.09439  -0.00058   0.00000  -0.00390  -0.00387   2.09052
    A3        2.09440  -0.00065   0.00000   0.00067   0.00065   2.09505
    A4        2.09439   0.00123   0.00000   0.00324   0.00322   2.09761
    A5        2.09440   0.00530   0.00000   0.00473   0.00470   2.09910
    A6        2.09440  -0.00179   0.00000  -0.00118  -0.00117   2.09322
    A7        2.09439  -0.00351   0.00000  -0.00354  -0.00353   2.09086
    A8        2.09439  -0.00415   0.00000  -0.00240  -0.00246   2.09193
    A9        2.09440  -0.00220   0.00000  -0.00326  -0.00323   2.09117
   A10        2.09440   0.00635   0.00000   0.00566   0.00569   2.10009
   A11        2.09439  -0.00823   0.00000  -0.00535  -0.00539   2.08901
   A12        2.09439   0.00483   0.00000   0.00342   0.00344   2.09782
   A13        2.09440   0.00340   0.00000   0.00193   0.00195   2.09635
   A14        2.09440  -0.01504   0.00000  -0.01426  -0.01424   2.08016
   A15        2.09439   0.00391   0.00000   0.00336   0.00335   2.09774
   A16        2.09439   0.01113   0.00000   0.01090   0.01089   2.10528
    D1       -0.00000   0.00000   0.00000   0.00000   0.00000   0.00000
    D2        3.14159   0.00000   0.00000   0.00000   0.00000   3.14159
    D3        0.00000  -0.00000   0.00000  -0.00000   0.00000   0.00000
    D4        3.14159  -0.00000   0.00000  -0.00000   0.00000   3.14159
    D5       -0.00000  -0.00000   0.00000  -0.00000   0.00000   0.00000
    D6        3.14159   0.00000   0.00000   0.00000   0.00000   3.14159
    D7        3.14159   0.00000   0.00000   0.00000   0.00000   3.14159
    D8       -0.00000   0.00000   0.00000   0.00000   0.00000   0.00000
    D9        0.00000  -0.00000   0.00000  -0.00000   0.00000   0.00000
   D10        3.14159   0.00000   0.00000   0.00000   0.00000   3.14159
   D11        3.14159  -0.00000   0.00000  -0.00000   0.00000   3.14159
   D12        0.00000  -0.00000   0.00000  -0.00000  -0.00000   0.00000
   D13       -0.00000   0.00000   0.00000   0.00000   0.00000   0.00000
   D14        3.14159   0.00000   0.00000   0.00000   0.00000   3.14159
   D15        3.14159  -0.00000   0.00000  -0.00000   0.00000   3.14159
   D16       -0.00000  -0.00000   0.00000  -0.00000   0.00000   0.00000
   D17       -0.00000   0.00000   0.00000   0.00000   0.00000   0.00000
   D18        3.14159  -0.00000   0.00000  -0.00000   0.00000   3.14159
   D19        3.14159   0.00000   0.00000   0.00000   0.00000   3.14159
   D20        0.00000  -0.00000   0.00000  -0.00000   0.00000   0.00000
         Item               Value     Threshold  Converged?
 Maximum Force            0.101050     0.000450     NO 
 RMS     Force            0.025953     0.000300     NO 
 Maximum Displacement     0.201917     0.001800     NO 
 RMS     Displacement     0.047427     0.001200     NO 
 Predicted change in Energy=-4.573413D-02
 GradGradGradGradGradGradGradGradGradGradGradGradGradGradGradGradGradGrad

                          Input orientation:                          
 ---------------------------------------------------------------------
 Center     Atomic      Atomic             Coordinates (Angstroms)
 Number     Number       Type             X           Y           Z
 ---------------------------------------------------------------------
      1          6           0       -3.175439    0.202631   -0.000000
      2          6           0       -1.997787    0.933164    0.000000
      3          6           0       -0.775867    0.272216    0.000000
      4          6           0       -0.730491   -1.125135    0.000000
      5          6           0       -1.927041   -1.864680   -0.000000
      6          6           0       -3.160966   -1.192204   -0.000000
      7         17           0       -4.660442   -2.085589   -0.000000
      8         17           0        0.811456   -1.943456    0.000000
      9         17           0       -1.880672   -3.609553   -0.000000
     10          1           0       -2.049242    2.593550    0.000000
     11          1           0        0.633721    1.141357    0.000000
 ---------------------------------------------------------------------
                    Distance matrix (angstroms):
                    1          2          3          4          5
     1  C    0.000000
     2  C    1.385837   0.000000
     3  C    2.400581   1.389222   0.000000
     4  C    2.782218   2.417154   1.398088   0.000000
     5  C    2.415010   2.798739   2.427247   1.406649   0.000000
     6  C    1.394910   2.422844   2.798789   2.431400   1.405274
     7  Cl   2.727854   4.025246   4.544135   4.045613   2.742313
     8  Cl   4.527806   4.020795   2.725583   1.745637   2.739630
     9  Cl   4.026062   4.544227   4.035929   2.737745   1.745489
    10  H    2.642879   1.661183   2.647655   3.945596   4.459905
    11  H    3.923125   2.639730   1.656003   2.645384   3.948893
                    6          7          8          9         10
     6  C    0.000000
     7  Cl   1.745442   0.000000
     8  Cl   4.042835   5.473744   0.000000
     9  Cl   2.735458   3.170109   3.165980   0.000000
    10  H    3.945613   5.358424   5.363583   6.205393   0.000000
    11  H    4.454790   6.200108   3.089929   5.375250   3.050763
                   11
    11  H    0.000000
 Stoichiometry    C6H2Cl3(2)
 Framework group  CS[SG(C6H2Cl3)]
 Deg. of freedom    19
 Full point group                 CS      NOp   2
 Largest Abelian subgroup         CS      NOp   2
 Largest concise Abelian subgroup C1      NOp   1
                         Standard orientation:                         
 ---------------------------------------------------------------------
 Center     Atomic      Atomic             Coordinates (Angstroms)
 Number     Number       Type             X           Y           Z
 ---------------------------------------------------------------------
      1          6           0       -1.428201   -1.685815    0.000000
      2          6           0       -0.320567   -2.518696   -0.000000
      3          6           0        0.955544   -1.969624   -0.000000
      4          6           0        1.125651   -0.581923   -0.000000
      5          6           0       -0.000000    0.261623    0.000000
      6          6           0       -1.289098   -0.297858    0.000000
      7         17           0       -2.702710    0.725992    0.000000
      8         17           0        2.734576    0.095284   -0.000000
      9         17           0        0.202162    1.995365    0.000000
     10          1           0       -0.520242   -4.167835   -0.000000
     11          1           0        2.281795   -2.961291   -0.000000
 ---------------------------------------------------------------------
 Rotational constants (GHZ):           1.4816923           0.8407399           0.5363850
 Standard basis: VSTO-6G (5D, 7F)
 There are    29 symmetry adapted cartesian basis functions of A'  symmetry.
 There are     9 symmetry adapted cartesian basis functions of A"  symmetry.
 There are    29 symmetry adapted basis functions of A'  symmetry.
 There are     9 symmetry adapted basis functions of A"  symmetry.
    38 basis functions,   228 primitive gaussians,    38 cartesian basis functions
    24 alpha electrons       23 beta electrons
       nuclear repulsion energy       243.4222904860 Hartrees.
 Integral buffers will be    131072 words long.
 Regular integral format.
 Two-electron integral symmetry is turned off.
 Do NDO integrals.
 One-electron integrals computed using PRISM.
 NBasis=    38 RedAO= T EigKep=  1.00D+00  NBF=    29     9
 NBsUse=    38 1.00D-06 EigRej= -1.00D+00 NBFU=    29     9
 Initial guess from the checkpoint file:  "geometry_chks/1_34ClBzNeutralRadical.chk"
 B after Tr=     0.000000   -0.000000    0.000000
         Rot=    0.746792    0.000000    0.000000   -0.665058 Ang= -83.37 deg.
 Initial guess orbital symmetries:
 Alpha Orbitals:
       Occupied  (A') (A') (A') (A') (A') (A') (A') (A') (A') (A')
                 (A') (A") (A') (A') (A") (A") (A') (A') (A") (A')
                 (A') (A') (A") (A")
       Virtual   (A") (A') (A") (A') (A') (A') (A') (A") (A') (A')
                 (A') (A') (A') (A')
 Beta  Orbitals:
       Occupied  (A') (A') (A') (A') (A') (A') (A') (A') (A') (A')
                 (A') (A") (A') (A") (A') (A") (A') (A") (A') (A')
                 (A') (A") (A")
       Virtual   (A') (A") (A') (A') (A") (A') (A') (A') (A") (A')
                 (A') (A') (A') (A') (A')
 Initial guess <Sx>= 0.0000 <Sy>= 0.0000 <Sz>= 0.5000 <S**2>= 1.8807 S= 0.9597
 Keep J ints in memory in canonical form, NReq=863588.
 Overlap will be assumed to be unity.
 Requested convergence on RMS density matrix=1.00D-08 within  32 cycles.
 Requested convergence on MAX density matrix=1.00D-06.
 Requested convergence on             energy=1.00D-06.
 No special actions if energy rises.
 Fock symm off for IB=2 I1=    1 I=   30 J=   14 Cut=1.00D-07 Err=3.27D-03
 Fock matrix is not symmetric: symmetry in diagonalization turned off.
 SCF Done:  E(UAM1) =  0.290412756318     A.U. after   20 cycles
            NFock= 19  Conv=0.66D-08     -V/T= 1.0026
 <Sx>= 0.0000 <Sy>= 0.0000 <Sz>= 0.5000 <S**2>= 1.3926 S= 0.7816
 <L.S>=  0.00000000000    
 Annihilation of the first spin contaminant:
 S**2 before annihilation     1.3926,   after     1.1852
 QCSCF skips out because SCF is already converged.
 Calling FoFJK, ICntrl=      2127 FMM=F ISym2X=1 I1Cent= 0 IOpClX= 1 NMat=1 NMatS=1 NMatT=0.
 ***** Axes restored to original set *****
 -------------------------------------------------------------------
 Center     Atomic                   Forces (Hartrees/Bohr)
 Number     Number              X              Y              Z
 -------------------------------------------------------------------
      1        6           0.044358476   -0.008759847    0.000000000
      2        6          -0.012362150    0.102326954   -0.000000000
      3        6           0.078534079    0.061411044   -0.000000000
      4        6           0.029946337   -0.003542943   -0.000000000
      5        6           0.002537375   -0.030592651   -0.000000000
      6        6          -0.043405099   -0.003824816    0.000000000
      7       17           0.025818555    0.017079116    0.000000000
      8       17          -0.025555694    0.015593212    0.000000000
      9       17          -0.001171728    0.030655192    0.000000000
     10        1           0.002930295   -0.116779773    0.000000000
     11        1          -0.101630444   -0.063565488    0.000000000
 -------------------------------------------------------------------
 Cartesian Forces:  Max     0.116779773 RMS     0.041621797

 GradGradGradGradGradGradGradGradGradGradGradGradGradGradGradGradGradGrad
 Berny optimization.
 Using GEDIIS/GDIIS optimizer.
 FormGI is forming the generalized inverse of G from B-inverse, IUseBI=4.
 Internal  Forces:  Max     0.119869639 RMS     0.026621744
 Search for a local minimum.
 Step number   2 out of a maximum of   57
 All quantities printed in internal units (Hartrees-Bohrs-Radians)
 Mixed Optimization -- RFO/linear search
 Update second derivatives using D2CorX and points    1    2
 DE= -5.29D-02 DEPred=-4.57D-02 R= 1.16D+00
 TightC=F SS=  1.41D+00  RLast= 3.00D-01 DXNew= 5.0454D-01 9.0000D-01
 Trust test= 1.16D+00 RLast= 3.00D-01 DXMaxT set to 5.05D-01
 ITU=  1  0
 Use linear search instead of GDIIS.
     Eigenvalues ---   -0.31064   0.02011   0.02011   0.02011   0.02011
     Eigenvalues ---    0.02011   0.02011   0.02011   0.02011   0.04459
     Eigenvalues ---    0.06658   0.15998   0.16000   0.22404   0.24341
     Eigenvalues ---    0.24994   0.25000   0.25000   0.25117   0.29032
     Eigenvalues ---    0.29034   0.32819   0.41241   0.42303   0.44647
     Eigenvalues ---    0.44656   0.44657
 RFO step:  Lambda=-3.36065236D-01 EMin=-3.10635891D-01
 Skip linear search -- no minimum in search direction.
 Maximum step size (   0.505) exceeded in Quadratic search.
    -- Step size scaled by   0.464
 Iteration  1 RMS(Cart)=  0.03582271 RMS(Int)=  0.02800504
 Iteration  2 RMS(Cart)=  0.02608107 RMS(Int)=  0.00011934
 Iteration  3 RMS(Cart)=  0.00002548 RMS(Int)=  0.00011859
 Iteration  4 RMS(Cart)=  0.00000000 RMS(Int)=  0.00011859
 ClnCor:  largest displacement from symmetrization is 8.59D-09 for atom    10.
 Variable       Old X    -DE/DX   Delta X   Delta X   Delta X     New X
                                 (Linear)    (Quad)   (Total)
    R1        2.61885  -0.03029   0.00000   0.09393   0.09408   2.71293
    R2        2.63600  -0.01667   0.00000   0.05345   0.05343   2.68942
    R3        2.62525  -0.02199   0.00000   0.09647   0.09665   2.72190
    R4        3.13918  -0.11681   0.00000  -0.34102  -0.34102   2.79816
    R5        2.64200  -0.00877   0.00000   0.05751   0.05754   2.69954
    R6        3.12939  -0.11987   0.00000  -0.32965  -0.32965   2.79974
    R7        2.65818   0.00397   0.00000   0.01906   0.01891   2.67709
    R8        3.29878  -0.02988   0.00000   0.03157   0.03157   3.33035
    R9        2.65558   0.00199   0.00000   0.02520   0.02502   2.68060
   R10        3.29850  -0.03068   0.00000   0.02773   0.02773   3.32623
   R11        3.29841  -0.03092   0.00000   0.02663   0.02663   3.32504
    A1        2.11565   0.01979   0.00000   0.00319   0.00336   2.11902
    A2        2.09052  -0.00436   0.00000  -0.02626  -0.02592   2.06460
    A3        2.09505   0.00110   0.00000   0.01079   0.01062   2.10567
    A4        2.09761   0.00326   0.00000   0.01547   0.01531   2.11292
    A5        2.09910   0.00325   0.00000  -0.00737  -0.00717   2.09193
    A6        2.09322  -0.00043   0.00000   0.00764   0.00754   2.10076
    A7        2.09086  -0.00283   0.00000  -0.00026  -0.00037   2.09050
    A8        2.09193  -0.00143   0.00000   0.01533   0.01519   2.10712
    A9        2.09117  -0.00224   0.00000  -0.00220  -0.00213   2.08903
   A10        2.10009   0.00368   0.00000  -0.01313  -0.01306   2.08703
   A11        2.08901  -0.00536   0.00000   0.00955   0.00920   2.09821
   A12        2.09782   0.00327   0.00000  -0.00496  -0.00479   2.09304
   A13        2.09635   0.00209   0.00000  -0.00459  -0.00441   2.09194
   A14        2.08016  -0.01189   0.00000   0.00556   0.00534   2.08550
   A15        2.09774   0.00354   0.00000   0.00255   0.00266   2.10040
   A16        2.10528   0.00835   0.00000  -0.00811  -0.00799   2.09729
    D1       -0.00000  -0.00000   0.00000  -0.00000   0.00000   0.00000
    D2        3.14159   0.00000   0.00000   0.00000   0.00000   3.14159
    D3        0.00000  -0.00000   0.00000   0.00000   0.00000   0.00000
    D4        3.14159  -0.00000   0.00000  -0.00000   0.00000   3.14159
    D5       -0.00000   0.00000   0.00000   0.00000   0.00000   0.00000
    D6        3.14159   0.00000   0.00000   0.00000   0.00000   3.14159
    D7        3.14159  -0.00000   0.00000  -0.00000   0.00000   3.14159
    D8        0.00000   0.00000   0.00000   0.00000   0.00000   0.00000
    D9        0.00000  -0.00000   0.00000  -0.00000   0.00000   0.00000
   D10        3.14159   0.00000   0.00000   0.00000   0.00000   3.14159
   D11        3.14159  -0.00000   0.00000  -0.00000   0.00000   3.14159
   D12        0.00000  -0.00000   0.00000  -0.00000  -0.00000   0.00000
   D13        0.00000  -0.00000   0.00000  -0.00000   0.00000   0.00000
   D14        3.14159   0.00000   0.00000   0.00000   0.00000   3.14159
   D15        3.14159  -0.00000   0.00000  -0.00000   0.00000   3.14159
   D16       -0.00000  -0.00000   0.00000  -0.00000   0.00000   0.00000
   D17       -0.00000   0.00000   0.00000   0.00000   0.00000   0.00000
   D18        3.14159   0.00000   0.00000   0.00000   0.00000   3.14159
   D19        3.14159  -0.00000   0.00000  -0.00000   0.00000   3.14159
   D20        0.00000  -0.00000   0.00000  -0.00000   0.00000   0.00000
         Item               Value     Threshold  Converged?
 Maximum Force            0.119870     0.000450     NO 
 RMS     Force            0.026622     0.000300     NO 
 Maximum Displacement     0.183553     0.001800     NO 
 RMS     Displacement     0.053600     0.001200     NO 
 Predicted change in Energy=-1.029943D-01
 GradGradGradGradGradGradGradGradGradGradGradGradGradGradGradGradGradGrad

                          Input orientation:                          
 ---------------------------------------------------------------------
 Center     Atomic      Atomic             Coordinates (Angstroms)
 Number     Number       Type             X           Y           Z
 ---------------------------------------------------------------------
      1          6           0       -3.198423    0.241884   -0.000000
      2          6           0       -1.989784    1.016612    0.000000
      3          6           0       -0.730591    0.317258    0.000000
      4          6           0       -0.710373   -1.111134    0.000000
      5          6           0       -1.917748   -1.852181   -0.000000
      6          6           0       -3.167406   -1.180960   -0.000000
      7         17           0       -4.666161   -2.102751   -0.000000
      8         17           0        0.832766   -1.962358    0.000000
      9         17           0       -1.868047   -3.611643   -0.000000
     10          1           0       -2.041813    2.496418    0.000000
     11          1           0        0.544811    1.071155    0.000000
 ---------------------------------------------------------------------
                    Distance matrix (angstroms):
                    1          2          3          4          5
     1  C    0.000000
     2  C    1.435622   0.000000
     3  C    2.468983   1.440369   0.000000
     4  C    2.832147   2.482780   1.428535   0.000000
     5  C    2.454636   2.869697   2.473016   1.416653   0.000000
     6  C    1.423182   2.493213   2.860546   2.458025   1.418514
     7  Cl   2.766147   4.110160   4.620081   4.078181   2.759811
     8  Cl   4.594472   4.103785   2.764188   1.762344   2.752720
     9  Cl   4.076711   4.629855   4.090241   2.755495   1.760164
    10  H    2.533904   1.480721   2.543234   3.845409   4.350368
    11  H    3.833992   2.535182   1.481557   2.517514   3.822315
                    6          7          8          9         10
     6  C    0.000000
     7  Cl   1.759536   0.000000
     8  Cl   4.075777   5.500719   0.000000
     9  Cl   2.756185   3.179025   3.164574   0.000000
    10  H    3.845785   5.295239   5.305081   6.110532   0.000000
    11  H    4.341955   6.101468   3.047150   5.267873   2.953303
                   11
    11  H    0.000000
 Stoichiometry    C6H2Cl3(2)
 Framework group  CS[SG(C6H2Cl3)]
 Deg. of freedom    19
 Full point group                 CS      NOp   2
 Largest Abelian subgroup         CS      NOp   2
 Largest concise Abelian subgroup C1      NOp   1
                         Standard orientation:                         
 ---------------------------------------------------------------------
 Center     Atomic      Atomic             Coordinates (Angstroms)
 Number     Number       Type             X           Y           Z
 ---------------------------------------------------------------------
      1          6           0       -1.458658   -1.720492    0.000000
      2          6           0       -0.322294   -2.597810    0.000000
      3          6           0        0.993163   -2.011094   -0.000000
      4          6           0        1.138047   -0.589925   -0.000000
      5          6           0       -0.000000    0.253731    0.000000
      6          6           0       -1.303501   -0.305793    0.000000
      7         17           0       -2.716030    0.743363    0.000000
      8         17           0        2.749627    0.123284   -0.000000
      9         17           0        0.203166    2.002130   -0.000000
     10          1           0       -0.503356   -4.067419    0.000000
     11          1           0        2.197854   -2.873493   -0.000000
 ---------------------------------------------------------------------
 Rotational constants (GHZ):           1.4417343           0.8305109           0.5269572
 Standard basis: VSTO-6G (5D, 7F)
 There are    29 symmetry adapted cartesian basis functions of A'  symmetry.
 There are     9 symmetry adapted cartesian basis functions of A"  symmetry.
 There are    29 symmetry adapted basis functions of A'  symmetry.
 There are     9 symmetry adapted basis functions of A"  symmetry.
    38 basis functions,   228 primitive gaussians,    38 cartesian basis functions
    24 alpha electrons       23 beta electrons
       nuclear repulsion energy       242.0564783605 Hartrees.
 Integral buffers will be    131072 words long.
 Regular integral format.
 Two-electron integral symmetry is turned off.
 Do NDO integrals.
 One-electron integrals computed using PRISM.
 NBasis=    38 RedAO= T EigKep=  1.00D+00  NBF=    29     9
 NBsUse=    38 1.00D-06 EigRej= -1.00D+00 NBFU=    29     9
 Initial guess from the checkpoint file:  "geometry_chks/1_34ClBzNeutralRadical.chk"
 B after Tr=    -0.000000    0.000000    0.000000
         Rot=    1.000000    0.000000   -0.000000   -0.000986 Ang=  -0.11 deg.
 Initial guess orbital symmetries:
 Alpha Orbitals:
       Occupied  (A') (A') (A') (A') (A') (A') (A') (A') (A') (A')
                 (A') (A") (A') (A') (A") (A") (A') (A') (A") (A')
                 (A') (A') (A") (A")
       Virtual   (A") (A") (A') (A') (A') (A') (A') (A") (A') (A')
                 (A') (A') (A') (A')
 Beta  Orbitals:
       Occupied  (A') (A') (A') (A') (A') (A') (A') (A') (A') (A')
                 (A') (A") (A') (A") (A') (A") (A') (A") (A') (A')
                 (A') (A") (A")
       Virtual   (A') (A") (A') (A") (A') (A') (A') (A') (A") (A')
                 (A') (A') (A') (A') (A')
 Initial guess <Sx>= 0.0000 <Sy>= 0.0000 <Sz>= 0.5000 <S**2>= 1.3926 S= 0.7816
 Keep J ints in memory in canonical form, NReq=863588.
 Overlap will be assumed to be unity.
 Requested convergence on RMS density matrix=1.00D-08 within  32 cycles.
 Requested convergence on MAX density matrix=1.00D-06.
 Requested convergence on             energy=1.00D-06.
 No special actions if energy rises.
 Fock symm off for IB=2 I1=    1 I=   30 J=    5 Cut=1.00D-07 Err=4.61D-03
 Fock matrix is not symmetric: symmetry in diagonalization turned off.
 SCF Done:  E(UAM1) =  0.226044702602     A.U. after   19 cycles
            NFock= 18  Conv=0.53D-08     -V/T= 1.0020
 <Sx>= 0.0000 <Sy>= 0.0000 <Sz>= 0.5000 <S**2>= 1.4743 S= 0.8131
 <L.S>=  0.00000000000    
 Annihilation of the first spin contaminant:
 S**2 before annihilation     1.4743,   after     1.2519
 QCSCF skips out because SCF is already converged.
 Calling FoFJK, ICntrl=      2127 FMM=F ISym2X=1 I1Cent= 0 IOpClX= 1 NMat=1 NMatS=1 NMatT=0.
 ***** Axes restored to original set *****
 -------------------------------------------------------------------
 Center     Atomic                   Forces (Hartrees/Bohr)
 Number     Number              X              Y              Z
 -------------------------------------------------------------------
      1        6           0.083918093   -0.018163138   -0.000000000
      2        6          -0.010797758    0.053849228   -0.000000000
      3        6           0.038914027    0.047182544   -0.000000000
      4        6           0.018035184    0.015835218   -0.000000000
      5        6           0.000163719   -0.017649486   -0.000000000
      6        6          -0.030028828    0.015816069    0.000000000
      7       17           0.033066428    0.023093732    0.000000000
      8       17          -0.033104459    0.021655915    0.000000000
      9       17          -0.001689917    0.038623661    0.000000000
     10        1           0.003972676   -0.119692454    0.000000000
     11        1          -0.102449166   -0.060551289    0.000000000
 -------------------------------------------------------------------
 Cartesian Forces:  Max     0.119692454 RMS     0.038674631

 GradGradGradGradGradGradGradGradGradGradGradGradGradGradGradGradGradGrad
 Berny optimization.
 Using GEDIIS/GDIIS optimizer.
 FormGI is forming the generalized inverse of G from B-inverse, IUseBI=4.
 Internal  Forces:  Max     0.119758132 RMS     0.032775130
 Search for a local minimum.
 Step number   3 out of a maximum of   57
 All quantities printed in internal units (Hartrees-Bohrs-Radians)
 Mixed Optimization -- RFO/linear search
 Update second derivatives using D2CorX and points    2    3
 DE= -6.44D-02 DEPred=-1.03D-01 R= 6.25D-01
 TightC=F SS=  1.41D+00  RLast= 5.05D-01 DXNew= 8.4853D-01 1.5136D+00
 Trust test= 6.25D-01 RLast= 5.05D-01 DXMaxT set to 8.49D-01
 ITU=  1  1  0
 Use linear search instead of GDIIS.
     Eigenvalues ---    0.00658   0.02011   0.02011   0.02011   0.02011
     Eigenvalues ---    0.02011   0.02011   0.02011   0.02011   0.06472
     Eigenvalues ---    0.15986   0.16000   0.21198   0.22799   0.24447
     Eigenvalues ---    0.25000   0.25000   0.25025   0.25623   0.29032
     Eigenvalues ---    0.29038   0.38526   0.41363   0.44638   0.44648
     Eigenvalues ---    0.44656   0.78101
 RFO step:  Lambda=-1.77774393D-01 EMin= 6.57792629D-03
 Quartic linear search produced a step of  1.54277.
 Iteration  1 RMS(Cart)=  0.05861979 RMS(Int)=  0.14195000
 Iteration  2 RMS(Cart)=  0.03873176 RMS(Int)=  0.10069350
 Iteration  3 RMS(Cart)=  0.03839159 RMS(Int)=  0.05944272
 Iteration  4 RMS(Cart)=  0.03839548 RMS(Int)=  0.01821857
 Iteration  5 RMS(Cart)=  0.01695407 RMS(Int)=  0.00031778
 Iteration  6 RMS(Cart)=  0.00000498 RMS(Int)=  0.00031775
 Iteration  7 RMS(Cart)=  0.00000000 RMS(Int)=  0.00031775
 ClnCor:  largest displacement from symmetrization is 1.28D-08 for atom     7.
 Variable       Old X    -DE/DX   Delta X   Delta X   Delta X     New X
                                 (Linear)    (Quad)   (Total)
    R1        2.71293  -0.07626   0.14514  -0.20829  -0.06265   2.65029
    R2        2.68942  -0.05308   0.08242  -0.11929  -0.03653   2.65289
    R3        2.72190  -0.06901   0.14911  -0.18080  -0.03152   2.69039
    R4        2.79816  -0.11976  -0.52612  -0.35502  -0.88115   1.91701
    R5        2.69954  -0.04458   0.08877  -0.09323  -0.00477   2.69477
    R6        2.79974  -0.11901  -0.50858  -0.38556  -0.89414   1.90560
    R7        2.67709  -0.01823   0.02917  -0.00718   0.02149   2.69858
    R8        3.33035  -0.03945   0.04871  -0.16983  -0.12112   3.20923
    R9        2.68060  -0.02289   0.03860  -0.02086   0.01756   2.69817
   R10        3.32623  -0.03866   0.04278  -0.16893  -0.12614   3.20008
   R11        3.32504  -0.04026   0.04109  -0.16984  -0.12875   3.19629
    A1        2.11902   0.02210   0.00519   0.08570   0.09199   2.21100
    A2        2.06460   0.00043  -0.03999  -0.00361  -0.04295   2.02165
    A3        2.10567  -0.00054   0.01638  -0.00121   0.01484   2.12051
    A4        2.11292   0.00012   0.02361   0.00482   0.02811   2.14103
    A5        2.09193   0.00489  -0.01106   0.02092   0.00968   2.10161
    A6        2.10076  -0.00245   0.01163  -0.00888   0.00284   2.10360
    A7        2.09050  -0.00244  -0.00057  -0.01205  -0.01252   2.07797
    A8        2.10712  -0.00306   0.02344  -0.01609   0.00646   2.11358
    A9        2.08903  -0.00342  -0.00329  -0.01284  -0.01568   2.07335
   A10        2.08703   0.00648  -0.02015   0.02893   0.00922   2.09625
   A11        2.09821  -0.01075   0.01419  -0.02768  -0.01425   2.08396
   A12        2.09304   0.00637  -0.00739   0.01714   0.01013   2.10317
   A13        2.09194   0.00438  -0.00681   0.01054   0.00412   2.09606
   A14        2.08550  -0.01361   0.00823  -0.05924  -0.05093   2.03457
   A15        2.10040   0.00290   0.00410   0.01188   0.01594   2.11634
   A16        2.09729   0.01071  -0.01233   0.04736   0.03499   2.13228
    D1        0.00000   0.00000   0.00000   0.00000   0.00000   0.00000
    D2        3.14159   0.00000   0.00000   0.00000   0.00000   3.14159
    D3       -0.00000  -0.00000   0.00000  -0.00000   0.00000   0.00000
    D4        3.14159  -0.00000   0.00000  -0.00000   0.00000   3.14159
    D5       -0.00000   0.00000   0.00000  -0.00000   0.00000   0.00000
    D6        3.14159   0.00000   0.00000  -0.00000   0.00000   3.14159
    D7        3.14159  -0.00000   0.00000   0.00000   0.00000   3.14159
    D8       -0.00000   0.00000   0.00000  -0.00000   0.00000   0.00000
    D9       -0.00000  -0.00000   0.00000  -0.00000   0.00000   0.00000
   D10        3.14159   0.00000   0.00000  -0.00000   0.00000   3.14159
   D11        3.14159  -0.00000   0.00000  -0.00000   0.00000   3.14159
   D12        0.00000  -0.00000   0.00000   0.00000  -0.00000   0.00000
   D13        0.00000   0.00000   0.00000   0.00000  -0.00000   0.00000
   D14        3.14159   0.00000   0.00000   0.00000   0.00000   3.14159
   D15        3.14159  -0.00000   0.00000   0.00000   0.00000   3.14159
   D16       -0.00000   0.00000   0.00000   0.00000   0.00000   0.00000
   D17        0.00000   0.00000   0.00000  -0.00000   0.00000   0.00000
   D18        3.14159   0.00000   0.00000  -0.00000   0.00000   3.14159
   D19        3.14159  -0.00000   0.00000   0.00000   0.00000   3.14159
   D20       -0.00000  -0.00000   0.00000  -0.00000   0.00000   0.00000
         Item               Value     Threshold  Converged?
 Maximum Force            0.119758     0.000450     NO 
 RMS     Force            0.032775     0.000300     NO 
 Maximum Displacement     0.786516     0.001800     NO 
 RMS     Displacement     0.180466     0.001200     NO 
 Predicted change in Energy=-2.251467D-01
 GradGradGradGradGradGradGradGradGradGradGradGradGradGradGradGradGradGrad

                          Input orientation:                          
 ---------------------------------------------------------------------
 Center     Atomic      Atomic             Coordinates (Angstroms)
 Number     Number       Type             X           Y           Z
 ---------------------------------------------------------------------
      1          6           0       -3.094288    0.269115   -0.000000
      2          6           0       -1.941143    1.067351    0.000000
      3          6           0       -0.701735    0.366804    0.000000
      4          6           0       -0.678416   -1.059014    0.000000
      5          6           0       -1.888968   -1.816523    0.000000
      6          6           0       -3.143020   -1.133889   -0.000000
      7         17           0       -4.618499   -1.960817   -0.000000
      8         17           0        0.823032   -1.852557    0.000000
      9         17           0       -1.843639   -3.509328   -0.000000
     10          1           0       -1.997694    2.080212    0.000000
     11          1           0        0.171599    0.870946    0.000000
 ---------------------------------------------------------------------
                    Distance matrix (angstroms):
                    1          2          3          4          5
     1  C    0.000000
     2  C    1.402471   0.000000
     3  C    2.394547   1.423691   0.000000
     4  C    2.756876   2.473036   1.426009   0.000000
     5  C    2.408875   2.884345   2.485244   1.428025   0.000000
     6  C    1.403850   2.507980   2.865651   2.465741   1.427808
     7  Cl   2.701076   4.042033   4.556189   4.041968   2.733343
     8  Cl   4.454984   4.020761   2.692671   1.698250   2.712239
     9  Cl   3.980044   4.577717   4.040835   2.713261   1.693412
    10  H    2.117213   1.014439   2.148319   3.405177   3.898251
    11  H    3.320876   2.121851   1.008400   2.108855   3.386506
                    6          7          8          9         10
     6  C    0.000000
     7  Cl   1.691404   0.000000
     8  Cl   4.030639   5.442608   0.000000
     9  Cl   2.707600   3.177694   3.139430   0.000000
    10  H    3.412069   4.816485   4.839748   5.591662   0.000000
    11  H    3.873766   5.564523   2.800327   4.821616   2.483578
                   11
    11  H    0.000000
 Stoichiometry    C6H2Cl3(2)
 Framework group  CS[SG(C6H2Cl3)]
 Deg. of freedom    19
 Full point group                 CS      NOp   2
 Largest Abelian subgroup         CS      NOp   2
 Largest concise Abelian subgroup C1      NOp   1
                         Standard orientation:                         
 ---------------------------------------------------------------------
 Center     Atomic      Atomic             Coordinates (Angstroms)
 Number     Number       Type             X           Y           Z
 ---------------------------------------------------------------------
      1          6           0       -1.340519   -1.705282    0.000000
      2          6           0       -0.242648   -2.577981    0.000000
      3          6           0        1.040348   -1.960875   -0.000000
      4          6           0        1.157844   -0.539715   -0.000000
      5          6           0        0.000000    0.296140    0.000000
      6          6           0       -1.296424   -0.302125    0.000000
      7         17           0       -2.714028    0.620505    0.000000
      8         17           0        2.708452    0.152867   -0.000000
      9         17           0        0.157103    1.982249   -0.000000
     10          1           0       -0.366013   -3.584890    0.000000
     11          1           0        1.878455   -2.521631   -0.000000
 ---------------------------------------------------------------------
 Rotational constants (GHZ):           1.5144047           0.8515315           0.5450541
 Standard basis: VSTO-6G (5D, 7F)
 There are    29 symmetry adapted cartesian basis functions of A'  symmetry.
 There are     9 symmetry adapted cartesian basis functions of A"  symmetry.
 There are    29 symmetry adapted basis functions of A'  symmetry.
 There are     9 symmetry adapted basis functions of A"  symmetry.
    38 basis functions,   228 primitive gaussians,    38 cartesian basis functions
    24 alpha electrons       23 beta electrons
       nuclear repulsion energy       246.1436103178 Hartrees.
 Integral buffers will be    131072 words long.
 Regular integral format.
 Two-electron integral symmetry is turned off.
 Do NDO integrals.
 One-electron integrals computed using PRISM.
 NBasis=    38 RedAO= T EigKep=  1.00D+00  NBF=    29     9
 NBsUse=    38 1.00D-06 EigRej= -1.00D+00 NBFU=    29     9
 Initial guess from the checkpoint file:  "geometry_chks/1_34ClBzNeutralRadical.chk"
 B after Tr=     0.000000   -0.000000   -0.000000
         Rot=    0.999916    0.000000   -0.000000   -0.012988 Ang=  -1.49 deg.
 Initial guess orbital symmetries:
 Alpha Orbitals:
       Occupied  (A') (A') (A') (A') (A') (A') (A') (A') (A') (A')
                 (A') (A") (A') (A') (A") (A") (A') (A') (A") (A')
                 (A') (A') (A") (A")
       Virtual   (A") (A") (A') (A') (A') (A') (A') (A") (A') (A')
                 (A') (A') (A') (A')
 Beta  Orbitals:
       Occupied  (A') (A') (A') (A') (A') (A') (A') (A') (A') (A')
                 (A') (A") (A') (A') (A") (A') (A") (A') (A") (A')
                 (A') (A") (A")
       Virtual   (A') (A") (A') (A") (A') (A') (A') (A') (A") (A')
                 (A') (A') (A') (A') (A')
 Initial guess <Sx>= 0.0000 <Sy>= 0.0000 <Sz>= 0.5000 <S**2>= 1.4743 S= 0.8131
 Keep J ints in memory in canonical form, NReq=863588.
 Overlap will be assumed to be unity.
 Requested convergence on RMS density matrix=1.00D-08 within  32 cycles.
 Requested convergence on MAX density matrix=1.00D-06.
 Requested convergence on             energy=1.00D-06.
 No special actions if energy rises.
 Fock symm off for IB=2 I1=    1 I=   30 J=   23 Cut=1.00D-07 Err=1.31D-03
 Fock matrix is not symmetric: symmetry in diagonalization turned off.
 SCF Done:  E(UAM1) =  0.104079554983     A.U. after   17 cycles
            NFock= 16  Conv=0.29D-08     -V/T= 1.0009
 <Sx>= 0.0000 <Sy>= 0.0000 <Sz>= 0.5000 <S**2>= 1.4273 S= 0.7951
 <L.S>=  0.00000000000    
 Annihilation of the first spin contaminant:
 S**2 before annihilation     1.4273,   after     1.1747
 QCSCF skips out because SCF is already converged.
 Calling FoFJK, ICntrl=      2127 FMM=F ISym2X=1 I1Cent= 0 IOpClX= 1 NMat=1 NMatS=1 NMatT=0.
 ***** Axes restored to original set *****
 -------------------------------------------------------------------
 Center     Atomic                   Forces (Hartrees/Bohr)
 Number     Number              X              Y              Z
 -------------------------------------------------------------------
      1        6           0.036605767   -0.019888874    0.000000000
      2        6          -0.012768899   -0.090126720   -0.000000000
      3        6          -0.075403544   -0.047371340   -0.000000000
      4        6          -0.016419268    0.007261526   -0.000000000
      5        6           0.002326501    0.010519198   -0.000000000
      6        6           0.002866390    0.019675227   -0.000000000
      7       17           0.006990653    0.004560194    0.000000000
      8       17          -0.005301572    0.003564179    0.000000000
      9       17          -0.000517966    0.006117051    0.000000000
     10        1          -0.002264618    0.066606383    0.000000000
     11        1           0.063886557    0.039083177    0.000000000
 -------------------------------------------------------------------
 Cartesian Forces:  Max     0.090126720 RMS     0.029635955

 GradGradGradGradGradGradGradGradGradGradGradGradGradGradGradGradGradGrad
 Berny optimization.
 Using GEDIIS/GDIIS optimizer.
 FormGI is forming the generalized inverse of G from B-inverse, IUseBI=4.
 Internal  Forces:  Max     0.074868841 RMS     0.017266118
 Search for a local minimum.
 Step number   4 out of a maximum of   57
 All quantities printed in internal units (Hartrees-Bohrs-Radians)
 Mixed Optimization -- RFO/linear search
 Update second derivatives using D2CorX and points    3    4
 DE= -1.22D-01 DEPred=-2.25D-01 R= 5.42D-01
 TightC=F SS=  1.41D+00  RLast= 1.28D+00 DXNew= 1.4270D+00 3.8494D+00
 Trust test= 5.42D-01 RLast= 1.28D+00 DXMaxT set to 1.43D+00
 ITU=  1  1  1  0
 Use linear search instead of GDIIS.
     Eigenvalues ---    0.02011   0.02011   0.02011   0.02011   0.02011
     Eigenvalues ---    0.02011   0.02011   0.02011   0.06451   0.13140
     Eigenvalues ---    0.16000   0.16051   0.21046   0.22639   0.24828
     Eigenvalues ---    0.25000   0.25001   0.25028   0.25682   0.29035
     Eigenvalues ---    0.29037   0.36906   0.41371   0.44615   0.44655
     Eigenvalues ---    0.44686   0.53727
 RFO step:  Lambda=-2.84098270D-02 EMin= 2.01065743D-02
 Quartic linear search produced a step of -0.16771.
 Iteration  1 RMS(Cart)=  0.05922519 RMS(Int)=  0.00723559
 Iteration  2 RMS(Cart)=  0.00665093 RMS(Int)=  0.00036026
 Iteration  3 RMS(Cart)=  0.00001761 RMS(Int)=  0.00035998
 Iteration  4 RMS(Cart)=  0.00000000 RMS(Int)=  0.00035998
 ClnCor:  largest displacement from symmetrization is 5.15D-09 for atom     5.
 Variable       Old X    -DE/DX   Delta X   Delta X   Delta X     New X
                                 (Linear)    (Quad)   (Total)
    R1        2.65029  -0.03343   0.01051  -0.17932  -0.16824   2.48205
    R2        2.65289  -0.03325   0.00613  -0.11172  -0.10512   2.54777
    R3        2.69039  -0.01903   0.00529  -0.13131  -0.12589   2.56450
    R4        1.91701   0.06663   0.14777   0.07174   0.21951   2.13652
    R5        2.69477  -0.01831   0.00080  -0.06691  -0.06652   2.62824
    R6        1.90560   0.07487   0.14995   0.09514   0.24509   2.15069
    R7        2.69858  -0.01835  -0.00360  -0.00987  -0.01404   2.68453
    R8        3.20923  -0.00635   0.02031  -0.13143  -0.11111   3.09811
    R9        2.69817  -0.01775  -0.00295  -0.01809  -0.02116   2.67700
   R10        3.20008  -0.00613   0.02115  -0.13304  -0.11188   3.08820
   R11        3.19629  -0.00833   0.02159  -0.13574  -0.11415   3.08214
    A1        2.21100   0.01224  -0.01543   0.09744   0.08328   2.29428
    A2        2.02165  -0.00264   0.00720  -0.01434  -0.00649   2.01516
    A3        2.12051   0.00271  -0.00249   0.00782   0.00501   2.12552
    A4        2.14103  -0.00007  -0.00471   0.00652   0.00148   2.14251
    A5        2.10161  -0.00414  -0.00162   0.00488   0.00292   2.10453
    A6        2.10360   0.00025  -0.00048  -0.00411  -0.00443   2.09918
    A7        2.07797   0.00389   0.00210  -0.00076   0.00150   2.07948
    A8        2.11358   0.00187  -0.00108  -0.00601  -0.00814   2.10545
    A9        2.07335  -0.00201   0.00263  -0.01167  -0.00851   2.06484
   A10        2.09625   0.00015  -0.00155   0.01767   0.01665   2.11290
   A11        2.08396  -0.00340   0.00239  -0.02386  -0.02224   2.06172
   A12        2.10317   0.00227  -0.00170   0.01501   0.01370   2.11686
   A13        2.09606   0.00113  -0.00069   0.00885   0.00855   2.10460
   A14        2.03457  -0.00392   0.00854  -0.05812  -0.04933   1.98524
   A15        2.11634   0.00107  -0.00267   0.01594   0.01315   2.12949
   A16        2.13228   0.00286  -0.00587   0.04217   0.03618   2.16846
    D1       -0.00000  -0.00000   0.00000  -0.00000   0.00000   0.00000
    D2        3.14159   0.00000   0.00000   0.00000   0.00000   3.14159
    D3       -0.00000   0.00000   0.00000   0.00000   0.00000   0.00000
    D4        3.14159  -0.00000   0.00000  -0.00000   0.00000   3.14159
    D5        0.00000   0.00000   0.00000   0.00000   0.00000   0.00000
    D6        3.14159   0.00000   0.00000   0.00000   0.00000   3.14159
    D7        3.14159  -0.00000   0.00000  -0.00000   0.00000   3.14159
    D8       -0.00000   0.00000   0.00000   0.00000   0.00000   0.00000
    D9       -0.00000  -0.00000   0.00000  -0.00000   0.00000   0.00000
   D10        3.14159   0.00000   0.00000   0.00000   0.00000   3.14159
   D11        3.14159  -0.00000   0.00000  -0.00000   0.00000   3.14159
   D12       -0.00000  -0.00000   0.00000  -0.00000   0.00000   0.00000
   D13       -0.00000   0.00000   0.00000  -0.00000   0.00000   0.00000
   D14        3.14159   0.00000   0.00000   0.00000   0.00000   3.14159
   D15        3.14159  -0.00000   0.00000  -0.00000   0.00000   3.14159
   D16       -0.00000   0.00000   0.00000  -0.00000   0.00000   0.00000
   D17        0.00000  -0.00000   0.00000   0.00000   0.00000   0.00000
   D18        3.14159   0.00000   0.00000   0.00000   0.00000   3.14159
   D19        3.14159  -0.00000   0.00000  -0.00000   0.00000   3.14159
   D20       -0.00000   0.00000   0.00000   0.00000   0.00000   0.00000
         Item               Value     Threshold  Converged?
 Maximum Force            0.074869     0.000450     NO 
 RMS     Force            0.017266     0.000300     NO 
 Maximum Displacement     0.183178     0.001800     NO 
 RMS     Displacement     0.061530     0.001200     NO 
 Predicted change in Energy=-3.338314D-02
 GradGradGradGradGradGradGradGradGradGradGradGradGradGradGradGradGradGrad

                          Input orientation:                          
 ---------------------------------------------------------------------
 Center     Atomic      Atomic             Coordinates (Angstroms)
 Number     Number       Type             X           Y           Z
 ---------------------------------------------------------------------
      1          6           0       -3.006401    0.196924    0.000000
      2          6           0       -1.944871    0.970417    0.000000
      3          6           0       -0.751808    0.323692    0.000000
      4          6           0       -0.700361   -1.066162    0.000000
      5          6           0       -1.895095   -1.834733    0.000000
      6          6           0       -3.132658   -1.145373    0.000000
      7         17           0       -4.590547   -1.876620    0.000000
      8         17           0        0.770820   -1.789645    0.000000
      9         17           0       -1.853290   -3.468404   -0.000000
     10          1           0       -2.029567    2.097840    0.000000
     11          1           0        0.221009    0.914363    0.000000
 ---------------------------------------------------------------------
                    Distance matrix (angstroms):
                    1          2          3          4          5
     1  C    0.000000
     2  C    1.313444   0.000000
     3  C    2.258153   1.357075   0.000000
     4  C    2.629297   2.386726   1.390806   0.000000
     5  C    2.315736   2.805591   2.442519   1.420595   0.000000
     6  C    1.348222   2.426397   2.797606   2.433586   1.416609
     7  Cl   2.609426   3.886543   4.424622   3.973712   2.695777
     8  Cl   4.267769   3.872069   2.604724   1.639451   2.666296
     9  Cl   3.842433   4.439765   3.948829   2.664584   1.634206
    10  H    2.137213   1.130600   2.186382   3.431865   3.934871
    11  H    3.306189   2.166605   1.138097   2.184354   3.469211
                    6          7          8          9         10
     6  C    0.000000
     7  Cl   1.631000   0.000000
     8  Cl   3.956290   5.362072   0.000000
     9  Cl   2.652028   3.166441   3.115154   0.000000
    10  H    3.425673   4.728101   4.791107   5.569034   0.000000
    11  H    3.935682   5.562432   2.759339   4.848851   2.542776
                   11
    11  H    0.000000
 Stoichiometry    C6H2Cl3(2)
 Framework group  CS[SG(C6H2Cl3)]
 Deg. of freedom    19
 Full point group                 CS      NOp   2
 Largest Abelian subgroup         CS      NOp   2
[...]
    R5        2.66126  -0.00002  -0.00001  -0.00011  -0.00012   2.66114
    R6        2.07849  -0.00003  -0.00039   0.00022  -0.00018   2.07832
    R7        2.67402  -0.00001   0.00001  -0.00010  -0.00009   2.67394
    R8        3.20141   0.00003   0.00009   0.00001   0.00010   3.20151
    R9        2.68449   0.00004   0.00007  -0.00002   0.00005   2.68454
   R10        3.18463  -0.00001   0.00000  -0.00007  -0.00007   3.18456
   R11        3.17386   0.00004  -0.00005   0.00014   0.00009   3.17395
    A1        2.25626   0.00000   0.00002   0.00007   0.00010   2.25636
    A2        2.00814  -0.00003   0.00002  -0.00010  -0.00008   2.00807
    A3        2.14216   0.00008   0.00011   0.00040   0.00050   2.14267
    A4        2.13288  -0.00005  -0.00013  -0.00030  -0.00043   2.13245
    A5        2.09200  -0.00002  -0.00004  -0.00008  -0.00012   2.09188
    A6        2.09557  -0.00001  -0.00003  -0.00009  -0.00012   2.09545
    A7        2.09562   0.00003   0.00007   0.00017   0.00024   2.09586
    A8        2.12612   0.00006   0.00003   0.00022   0.00025   2.12637
    A9        2.06171  -0.00001  -0.00003  -0.00004  -0.00007   2.06165
   A10        2.09535  -0.00005  -0.00001  -0.00018  -0.00018   2.09517
   A11        2.07399   0.00001  -0.00003  -0.00001  -0.00003   2.07395
   A12        2.11233   0.00000   0.00004   0.00001   0.00005   2.11239
   A13        2.09686  -0.00001  -0.00001  -0.00001  -0.00002   2.09685
   A14        2.00986  -0.00003  -0.00000  -0.00011  -0.00011   2.00975
   A15        2.12886   0.00004   0.00002   0.00016   0.00018   2.12904
   A16        2.14447  -0.00001  -0.00002  -0.00005  -0.00007   2.14440
    D1       -0.00000   0.00000   0.00000   0.00000   0.00000   0.00000
    D2        3.14159   0.00000  -0.00000   0.00000   0.00000   3.14159
    D3       -0.00000  -0.00000   0.00000  -0.00000   0.00000   0.00000
    D4        3.14159  -0.00000  -0.00000  -0.00000   0.00000   3.14159
    D5        0.00000   0.00000   0.00000   0.00000  -0.00000   0.00000
    D6        3.14159   0.00000  -0.00000   0.00000   0.00000   3.14159
    D7        3.14159  -0.00000  -0.00000  -0.00000   0.00000   3.14159
    D8       -0.00000   0.00000   0.00000   0.00000   0.00000   0.00000
    D9       -0.00000  -0.00000   0.00000  -0.00000   0.00000   0.00000
   D10        3.14159   0.00000  -0.00000   0.00000   0.00000   3.14159
   D11        3.14159  -0.00000  -0.00000  -0.00000   0.00000   3.14159
   D12        0.00000   0.00000   0.00000   0.00000   0.00000   0.00000
   D13        0.00000  -0.00000   0.00000  -0.00000   0.00000   0.00000
   D14        3.14159   0.00000  -0.00000   0.00000   0.00000   3.14159
   D15        3.14159  -0.00000  -0.00000  -0.00000   0.00000   3.14159
   D16        0.00000  -0.00000   0.00000  -0.00000  -0.00000   0.00000
   D17        0.00000   0.00000   0.00000   0.00000  -0.00000   0.00000
   D18        3.14159   0.00000  -0.00000   0.00000   0.00000   3.14159
   D19        3.14159  -0.00000  -0.00000  -0.00000   0.00000   3.14159
   D20       -0.00000  -0.00000   0.00000  -0.00000   0.00000   0.00000
         Item               Value     Threshold  Converged?
 Maximum Force            0.000114     0.000450     YES
 RMS     Force            0.000035     0.000300     YES
 Maximum Displacement     0.000852     0.001800     YES
 RMS     Displacement     0.000181     0.001200     YES
 Predicted change in Energy=-9.200440D-08
 Optimization completed.
    -- Stationary point found.
                           ----------------------------
                           !   Optimized Parameters   !
                           ! (Angstroms and Degrees)  !
 --------------------------                            --------------------------
 ! Name  Definition              Value          Derivative Info.                !
 --------------------------------------------------------------------------------
 ! R1    R(1,2)                  1.3689         -DE/DX =    0.0001              !
 ! R2    R(1,6)                  1.3753         -DE/DX =    0.0001              !
 ! R3    R(2,3)                  1.4065         -DE/DX =    0.0001              !
 ! R4    R(2,10)                 1.097          -DE/DX =    0.0                 !
 ! R5    R(3,4)                  1.4083         -DE/DX =    0.0                 !
 ! R6    R(3,11)                 1.0999         -DE/DX =    0.0                 !
 ! R7    R(4,5)                  1.415          -DE/DX =    0.0                 !
 ! R8    R(4,8)                  1.6941         -DE/DX =    0.0                 !
 ! R9    R(5,6)                  1.4206         -DE/DX =    0.0                 !
 ! R10   R(5,9)                  1.6852         -DE/DX =    0.0                 !
 ! R11   R(6,7)                  1.6795         -DE/DX =    0.0                 !
 ! A1    A(2,1,6)              129.2741         -DE/DX =    0.0                 !
 ! A2    A(1,2,3)              115.0581         -DE/DX =    0.0                 !
 ! A3    A(1,2,10)             122.7369         -DE/DX =    0.0001              !
 ! A4    A(3,2,10)             122.205          -DE/DX =    0.0                 !
 ! A5    A(2,3,4)              119.8627         -DE/DX =    0.0                 !
 ! A6    A(2,3,11)             120.0671         -DE/DX =    0.0                 !
 ! A7    A(4,3,11)             120.0702         -DE/DX =    0.0                 !
 ! A8    A(3,4,5)              121.8177         -DE/DX =    0.0001              !
 ! A9    A(3,4,8)              118.1275         -DE/DX =    0.0                 !
 ! A10   A(5,4,8)              120.0547         -DE/DX =    0.0                 !
 ! A11   A(4,5,6)              118.8308         -DE/DX =    0.0                 !
 ! A12   A(4,5,9)              121.0277         -DE/DX =    0.0                 !
 ! A13   A(6,5,9)              120.1415         -DE/DX =    0.0                 !
 ! A14   A(1,6,5)              115.1565         -DE/DX =    0.0                 !
 ! A15   A(1,6,7)              121.9745         -DE/DX =    0.0                 !
 ! A16   A(5,6,7)              122.869          -DE/DX =    0.0                 !
 ! D1    D(6,1,2,3)              0.0            -DE/DX =    0.0                 !
 ! D2    D(6,1,2,10)           180.0            -DE/DX =    0.0                 !
 ! D3    D(2,1,6,5)              0.0            -DE/DX =    0.0                 !
 ! D4    D(2,1,6,7)            180.0            -DE/DX =    0.0                 !
 ! D5    D(1,2,3,4)              0.0            -DE/DX =    0.0                 !
 ! D6    D(1,2,3,11)           180.0            -DE/DX =    0.0                 !
 ! D7    D(10,2,3,4)           180.0            -DE/DX =    0.0                 !
 ! D8    D(10,2,3,11)            0.0            -DE/DX =    0.0                 !
 ! D9    D(2,3,4,5)              0.0            -DE/DX =    0.0                 !
 ! D10   D(2,3,4,8)            180.0            -DE/DX =    0.0                 !
 ! D11   D(11,3,4,5)           180.0            -DE/DX =    0.0                 !
 ! D12   D(11,3,4,8)             0.0            -DE/DX =    0.0                 !
 ! D13   D(3,4,5,6)              0.0            -DE/DX =    0.0                 !
 ! D14   D(3,4,5,9)            180.0            -DE/DX =    0.0                 !
 ! D15   D(8,4,5,6)            180.0            -DE/DX =    0.0                 !
 ! D16   D(8,4,5,9)              0.0            -DE/DX =    0.0                 !
 ! D17   D(4,5,6,1)              0.0            -DE/DX =    0.0                 !
 ! D18   D(4,5,6,7)            180.0            -DE/DX =    0.0                 !
 ! D19   D(9,5,6,1)            180.0            -DE/DX =    0.0                 !
 ! D20   D(9,5,6,7)              0.0            -DE/DX =    0.0                 !
 --------------------------------------------------------------------------------
 GradGradGradGradGradGradGradGradGradGradGradGradGradGradGradGradGradGrad

                          Input orientation:                          
 ---------------------------------------------------------------------
 Center     Atomic      Atomic             Coordinates (Angstroms)
 Number     Number       Type             X           Y           Z
 ---------------------------------------------------------------------
      1          6           0       -3.058990    0.229428    0.000000
      2          6           0       -1.949268    1.030926    0.000000
      3          6           0       -0.720339    0.346824    0.000000
      4          6           0       -0.701670   -1.061331    0.000000
      5          6           0       -1.894070   -1.823237    0.000000
      6          6           0       -3.141402   -1.143398    0.000000
      7         17           0       -4.616860   -1.945810   -0.000000
      8         17           0        0.802823   -1.840120    0.000000
      9         17           0       -1.848497   -3.507853   -0.000000
     10          1           0       -2.008629    2.126366    0.000000
     11          1           0        0.224132    0.910506    0.000000
 ---------------------------------------------------------------------
                    Distance matrix (angstroms):
                    1          2          3          4          5
     1  C    0.000000
     2  C    1.368898   0.000000
     3  C    2.341596   1.406507   0.000000
     4  C    2.687567   2.435989   1.408279   0.000000
     5  C    2.360186   2.854697   2.467146   1.415033   0.000000
     6  C    1.375298   2.479691   2.842940   2.441112   1.420570
     7  Cl   2.675560   3.997125   4.520957   4.013853   2.725548
     8  Cl   4.381396   3.977047   2.665097   1.694111   2.696946
     9  Cl   3.928431   4.539898   4.016376   2.701978   1.685233
    10  H    2.168324   1.097047   2.196921   3.445222   3.951264
    11  H    3.353022   2.176733   1.099892   2.178360   3.458342
                    6          7          8          9         10
     6  C    0.000000
     7  Cl   1.679536   0.000000
     8  Cl   4.005288   5.420713   0.000000
     9  Cl   2.694857   3.178649   3.132225   0.000000
    10  H    3.460423   4.835854   4.861818   5.636494   0.000000
    11  H    3.942758   5.620831   2.810840   4.880337   2.542349
                   11
    11  H    0.000000
 Stoichiometry    C6H2Cl3(2)
 Framework group  CS[SG(C6H2Cl3)]
 Deg. of freedom    19
 Full point group                 CS      NOp   2
 Largest Abelian subgroup         CS      NOp   2
 Largest concise Abelian subgroup C1      NOp   1
                         Standard orientation:                         
 ---------------------------------------------------------------------
 Center     Atomic      Atomic             Coordinates (Angstroms)
 Number     Number       Type             X           Y           Z
 ---------------------------------------------------------------------
      1          6           0       -1.294811   -1.671714    0.000000
      2          6           0       -0.239060   -2.543077   -0.000000
      3          6           0        1.031410   -1.939613   -0.000000
      4          6           0        1.140808   -0.535590   -0.000000
      5          6           0        0.000000    0.301593    0.000000
      6          6           0       -1.288561   -0.296431    0.000000
      7         17           0       -2.709227    0.599420    0.000000
      8         17           0        2.692372    0.144601   -0.000000
      9         17           0        0.154066    1.979768    0.000000
     10          1           0       -0.368909   -3.632412   -0.000000
     11          1           0        1.937582   -2.563002   -0.000000
 ---------------------------------------------------------------------
 Rotational constants (GHZ):           1.5393973           0.8603289           0.5518913

 **********************************************************************

            Population analysis using the SCF Density.

 **********************************************************************

 Orbital symmetries:
 Alpha Orbitals:
       Occupied  (A') (A') (A') (A') (A') (A') (A') (A') (A') (A')
                 (A') (A') (A") (A') (A') (A") (A") (A') (A") (A')
                 (A') (A') (A") (A")
       Virtual   (A") (A") (A') (A') (A') (A") (A') (A') (A') (A')
                 (A') (A') (A') (A')
 Beta  Orbitals:
       Occupied  (A') (A') (A') (A') (A') (A') (A') (A') (A') (A')
                 (A') (A') (A") (A') (A") (A') (A") (A") (A') (A')
                 (A') (A") (A")
       Virtual   (A') (A") (A") (A') (A') (A') (A") (A') (A') (A')
                 (A') (A') (A') (A') (A')
 The electronic state is 2-A'.
 Alpha  occ. eigenvalues --   -1.48170  -1.40783  -1.39892  -1.38360  -1.17615
 Alpha  occ. eigenvalues --   -1.14786  -0.89806  -0.87209  -0.69762  -0.64248
 Alpha  occ. eigenvalues --   -0.63707  -0.58441  -0.57708  -0.55112  -0.50885
 Alpha  occ. eigenvalues --   -0.50066  -0.48597  -0.45941  -0.45504  -0.45257
 Alpha  occ. eigenvalues --   -0.44485  -0.40479  -0.38006  -0.37124
 Alpha virt. eigenvalues --   -0.01172  -0.00877   0.02503   0.03576   0.04900
 Alpha virt. eigenvalues --    0.06948   0.11622   0.12093   0.13225   0.13790
 Alpha virt. eigenvalues --    0.14554   0.16255   0.17164   0.17714
  Beta  occ. eigenvalues --   -1.47603  -1.40942  -1.39654  -1.38026  -1.17402
  Beta  occ. eigenvalues --   -1.13298  -0.89489  -0.85000  -0.69750  -0.63781
  Beta  occ. eigenvalues --   -0.62233  -0.58289  -0.57592  -0.53923  -0.51179
  Beta  occ. eigenvalues --   -0.50446  -0.47788  -0.45440  -0.45220  -0.45080
  Beta  occ. eigenvalues --   -0.44399  -0.37191  -0.36917
  Beta virt. eigenvalues --   -0.01301  -0.01211   0.00684   0.02052   0.03971
  Beta virt. eigenvalues --    0.04750   0.07905   0.11999   0.12441   0.13819
  Beta virt. eigenvalues --    0.14188   0.15590   0.16236   0.17879   0.19134
          Condensed to atoms (all electrons):
               1          2          3          4          5          6
     1  C    4.049513   0.000000   0.000000   0.000000   0.000000   0.000000
     2  C    0.000000   4.104783   0.000000   0.000000   0.000000   0.000000
     3  C    0.000000   0.000000   4.112043   0.000000   0.000000   0.000000
     4  C    0.000000   0.000000   0.000000   4.071368   0.000000   0.000000
     5  C    0.000000   0.000000   0.000000   0.000000   4.062467   0.000000
     6  C    0.000000   0.000000   0.000000   0.000000   0.000000   4.053800
     7  Cl   0.000000   0.000000   0.000000   0.000000   0.000000   0.000000
     8  Cl   0.000000   0.000000   0.000000   0.000000   0.000000   0.000000
     9  Cl   0.000000   0.000000   0.000000   0.000000   0.000000   0.000000
    10  H    0.000000   0.000000   0.000000   0.000000   0.000000   0.000000
    11  H    0.000000   0.000000   0.000000   0.000000   0.000000   0.000000
               7          8          9         10         11
     1  C    0.000000   0.000000   0.000000   0.000000   0.000000
     2  C    0.000000   0.000000   0.000000   0.000000   0.000000
     3  C    0.000000   0.000000   0.000000   0.000000   0.000000
     4  C    0.000000   0.000000   0.000000   0.000000   0.000000
     5  C    0.000000   0.000000   0.000000   0.000000   0.000000
     6  C    0.000000   0.000000   0.000000   0.000000   0.000000
     7  Cl   6.944477   0.000000   0.000000   0.000000   0.000000
     8  Cl   0.000000   6.977929   0.000000   0.000000   0.000000
     9  Cl   0.000000   0.000000   6.953692   0.000000   0.000000
    10  H    0.000000   0.000000   0.000000   0.830569   0.000000
    11  H    0.000000   0.000000   0.000000   0.000000   0.839359
          Atomic-Atomic Spin Densities.
               1          2          3          4          5          6
     1  C    1.407212   0.000000   0.000000   0.000000   0.000000   0.000000
     2  C    0.000000  -0.497509   0.000000   0.000000   0.000000   0.000000
     3  C    0.000000   0.000000   0.525199   0.000000   0.000000   0.000000
     4  C    0.000000   0.000000   0.000000  -0.476372   0.000000   0.000000
     5  C    0.000000   0.000000   0.000000   0.000000   0.515074   0.000000
     6  C    0.000000   0.000000   0.000000   0.000000   0.000000  -0.499096
     7  Cl   0.000000   0.000000   0.000000   0.000000   0.000000   0.000000
     8  Cl   0.000000   0.000000   0.000000   0.000000   0.000000   0.000000
     9  Cl   0.000000   0.000000   0.000000   0.000000   0.000000   0.000000
    10  H    0.000000   0.000000   0.000000   0.000000   0.000000   0.000000
    11  H    0.000000   0.000000   0.000000   0.000000   0.000000   0.000000
               7          8          9         10         11
     1  C    0.000000   0.000000   0.000000   0.000000   0.000000
     2  C    0.000000   0.000000   0.000000   0.000000   0.000000
     3  C    0.000000   0.000000   0.000000   0.000000   0.000000
     4  C    0.000000   0.000000   0.000000   0.000000   0.000000
     5  C    0.000000   0.000000   0.000000   0.000000   0.000000
     6  C    0.000000   0.000000   0.000000   0.000000   0.000000
     7  Cl  -0.001057   0.000000   0.000000   0.000000   0.000000
     8  Cl   0.000000  -0.002516   0.000000   0.000000   0.000000
     9  Cl   0.000000   0.000000   0.017143   0.000000   0.000000
    10  H    0.000000   0.000000   0.000000   0.033191   0.000000
    11  H    0.000000   0.000000   0.000000   0.000000  -0.021270
 Mulliken charges and spin densities:
               1          2
     1  C   -0.049513   1.407212
     2  C   -0.104783  -0.497509
     3  C   -0.112043   0.525199
     4  C   -0.071368  -0.476372
     5  C   -0.062467   0.515074
     6  C   -0.053800  -0.499096
     7  Cl   0.055523  -0.001057
     8  Cl   0.022071  -0.002516
     9  Cl   0.046308   0.017143
    10  H    0.169431   0.033191
    11  H    0.160641  -0.021270
 Sum of Mulliken charges =   0.00000   1.00000
 Mulliken charges and spin densities with hydrogens summed into heavy atoms:
               1          2
     1  C   -0.049513   1.407212
     2  C    0.064648  -0.464318
     3  C    0.048598   0.503929
     4  C   -0.071368  -0.476372
     5  C   -0.062467   0.515074
     6  C   -0.053800  -0.499096
     7  Cl   0.055523  -0.001057
     8  Cl   0.022071  -0.002516
     9  Cl   0.046308   0.017143
 Charge=             -0.0000 electrons
 Dipole moment (field-independent basis, Debye):
    X=              0.6695    Y=             -1.3509    Z=              0.0000  Tot=              1.5077
 N-N= 2.470133231692D+02 E-N=-3.464015048232D+02  KE=-1.121203756278D+02
 Symmetry A'   KE=-8.615951479432D+01
 Symmetry A"   KE=-2.596086083349D+01
 Symmetry A'   SP= 1.000000000000D+00
 Symmetry A"   SP= 3.441691376338D-15
 1\1\GINC-SH02-01N21\FOpt\UAM1\ZDO\C6H2Cl3(2)\JLAPIER\09-Dec-2025\0\\# 
 opt am1 SCF=XQC\\Neutral Radical (removed 2) 1_34\\0,2\C,-3.0589900647
 ,0.2294284946,0.\C,-1.9492676239,1.0309260155,0.\C,-0.7203387786,0.346
 8237836,0.\C,-0.701669974,-1.0613312102,0.\C,-1.8940697283,-1.82323714
 14,0.\C,-3.1414024343,-1.1433977959,0.\Cl,-4.616859839,-1.9458104908,0
 .\Cl,0.8028230219,-1.8401197008,0.\Cl,-1.8484974714,-3.5078533703,0.\H
 ,-2.0086293206,2.1263657661,0.\H,0.2241322129,0.9105056496,0.\\Version
 =ES64L-G16RevB.01\State=2-A'\HF=0.0894462\S2=1.304796\S2-1=0.\S2A=1.02
 264\RMSD=4.092e-09\RMSF=5.503e-05\Dipole=0.2970952,0.5134103,0.\PG=CS 
 [SG(C6H2Cl3)]\\@


 OUR LITTLE SYSTEMS HAVE THEIR DAY,    
   THEY HAVE THEIR DAY AND CEASE TO BE.
   THEY ARE BUT BROKEN LIGHTS OF THEE, 
 AND THOU, OH LORD, ART MORE THAN THEY.
          -------------------          
 LET KNOWLEDGE GROW FROM MORE TO MORE, 
   BUT MORE OF REVERENCE IN US DWELL.  
   THAT MIND AND SOUL, ACCORDING WELL, 
 MAY MAKE ONE MUSIC AS BEFORE.....     
          -------------------          
                    LORD TENNYSON      
 Job cpu time:       0 days  0 hours  0 minutes  8.5 seconds.
 Elapsed time:       0 days  0 hours  0 minutes 15.7 seconds.
 File lengths (MBytes):  RWF=     10 Int=      0 D2E=      0 Chk=      2 Scr=      1
 Normal termination of Gaussian 16 at Tue Dec  9 08:34:53 2025.
