 Entering Gaussian System, Link 0=g16
 Initial command:
 /share/software/user/restricted/gaussian/g16.B01/l1.exe "/home/users/jlapier/Chloroaromatics/Gau-9291.inp" -scrdir="/home/users/jlapier/Chloroaromatics/"
 Entering Link 1 = /share/software/user/restricted/gaussian/g16.B01/l1.exe PID=      9292.
  
 Copyright (c) 1988-2017, Gaussian, Inc.  All Rights Reserved.
  
 This is part of the Gaussian(R) 16 program.  It is based on
 the Gaussian(R) 09 system (copyright 2009, Gaussian, Inc.),
 the Gaussian(R) 03 system (copyright 2003, Gaussian, Inc.),
 the Gaussian(R) 98 system (copyright 1998, Gaussian, Inc.),
 the Gaussian(R) 94 system (copyright 1995, Gaussian, Inc.),
 the Gaussian 92(TM) system (copyright 1992, Gaussian, Inc.),
 the Gaussian 90(TM) system (copyright 1990, Gaussian, Inc.),
 the Gaussian 88(TM) system (copyright 1988, Gaussian, Inc.),
 the Gaussian 86(TM) system (copyright 1986, Carnegie Mellon
 University), and the Gaussian 82(TM) system (copyright 1983,
 Carnegie Mellon University). Gaussian is a federally registered
 trademark of Gaussian, Inc.
  
 This software contains proprietary and confidential information,
 including trade secrets, belonging to Gaussian, Inc.
  
 This software is provided under written license and may be
 used, copied, transmitted, or stored only in accord with that
 written license.
  
 The following legend is applicable only to US Government
 contracts under FAR:
  
                    RESTRICTED RIGHTS LEGEND
  
 Use, reproduction and disclosure by the US Government is
 subject to restrictions as set forth in subparagraphs (a)
 and (c) of the Commercial Computer Software - Restricted
 Rights clause in FAR 52.227-19.
  
 Gaussian, Inc.
 340 Quinnipiac St., Bldg. 40, Wallingford CT 06492
  
  
 ---------------------------------------------------------------
 Warning -- This program may not be used in any manner that
 competes with the business of Gaussian, Inc. or will provide
 assistance to any competitor of Gaussian, Inc.  The licensee
 of this program is prohibited from giving any competitor of
 Gaussian, Inc. access to this program.  By using this program,
 the user acknowledges that Gaussian, Inc. is engaged in the
 business of creating and licensing software in the field of
 computational chemistry and represents and warrants to the
 licensee that it is not a competitor of Gaussian, Inc. and that
 it will not use this program in any manner prohibited above.
 ---------------------------------------------------------------
  

 Cite this work as:
 Gaussian 16, Revision B.01,
 M. J. Frisch, G. W. Trucks, H. B. Schlegel, G. E. Scuseria, 
 M. A. Robb, J. R. Cheeseman, G. Scalmani, V. Barone, 
 G. A. Petersson, H. Nakatsuji, X. Li, M. Caricato, A. V. Marenich, 
 J. Bloino, B. G. Janesko, R. Gomperts, B. Mennucci, H. P. Hratchian, 
 J. V. Ortiz, A. F. Izmaylov, J. L. Sonnenberg, D. Williams-Young, 
 F. Ding, F. Lipparini, F. Egidi, J. Goings, B. Peng, A. Petrone, 
 T. Henderson, D. Ranasinghe, V. G. Zakrzewski, J. Gao, N. Rega, 
 G. Zheng, W. Liang, M. Hada, M. Ehara, K. Toyota, R. Fukuda, 
 J. Hasegawa, M. Ishida, T. Nakajima, Y. Honda, O. Kitao, H. Nakai, 
 T. Vreven, K. Throssell, J. A. Montgomery, Jr., J. E. Peralta, 
 F. Ogliaro, M. J. Bearpark, J. J. Heyd, E. N. Brothers, K. N. Kudin, 
 V. N. Staroverov, T. A. Keith, R. Kobayashi, J. Normand, 
 K. Raghavachari, A. P. Rendell, J. C. Burant, S. S. Iyengar, 
 J. Tomasi, M. Cossi, J. M. Millam, M. Klene, C. Adamo, R. Cammi, 
 J. W. Ochterski, R. L. Martin, K. Morokuma, O. Farkas, 
 J. B. Foresman, and D. J. Fox, Gaussian, Inc., Wallingford CT, 2016.
 
 ******************************************
 Gaussian 16:  ES64L-G16RevB.01 20-Dec-2017
                 8-Dec-2025 
 ******************************************
 %mem=2GB
 %nprocshare=1
 Will use up to    1 processors via shared memory.
 %chk=geometry_chks/1_3456ClBzNeutralRadical.chk
 ---------------------------
 # opt am1 SCF(maxcyc=10000)
 ---------------------------
 1/18=20,19=15,26=1,38=1/1,3;
 2/9=110,12=2,17=6,18=5,40=1/2;
 3/5=2,25=1,41=700000,71=1/1,2,3;
 4/35=1/1;
 5/5=2,7=10000,35=1,38=5/2;
 6/7=2,8=2,9=2,10=2,28=1/1;
 7//1,2,3,16;
 1/18=20,19=15,26=1/3(2);
 2/9=110/2;
 99//99;
 2/9=110/2;
 3/5=2,25=1,41=700000,71=1,135=20/1,2,3;
 4/5=5,16=3,35=1/1;
 5/5=2,7=10000,35=1,38=5/2;
 7//1,2,3,16;
 1/18=20,19=15,26=1/3(-5);
 2/9=110/2;
 6/7=2,8=2,9=2,10=2,19=2,28=1/1;
 99/9=1/99;
 ----------------------------------
 Neutral Radical (removed 2) 1_3456
 ----------------------------------
 Symbolic Z-matrix:
 Charge =  0 Multiplicity = 2
 C                    -3.20928   0.19943   0. 
 C                    -2.0115    0.93555   0. 
 C                    -0.77511   0.2663    0. 
 C                    -0.7365   -1.13907   0. 
 C                    -1.93429  -1.87519   0. 
 C                    -3.17067  -1.20594   0. 
 Cl                   -4.67483  -2.13035   0. 
 Cl                    0.81614  -1.97951   0. 
 Cl                   -1.8858   -3.64003   0. 
 Cl                   -2.05998   2.7004    0. 
 Cl                    0.72905   1.19071   0. 
 

 GradGradGradGradGradGradGradGradGradGradGradGradGradGradGradGradGradGrad
 Berny optimization.
 Initialization pass.
                           ----------------------------
                           !    Initial Parameters    !
                           ! (Angstroms and Degrees)  !
 --------------------------                            --------------------------
 ! Name  Definition              Value          Derivative Info.                !
 --------------------------------------------------------------------------------
 ! R1    R(1,2)                  1.4059         estimate D2E/DX2                !
 ! R2    R(1,6)                  1.4059         estimate D2E/DX2                !
 ! R3    R(2,3)                  1.4059         estimate D2E/DX2                !
 ! R4    R(2,10)                 1.7655         estimate D2E/DX2                !
 ! R5    R(3,4)                  1.4059         estimate D2E/DX2                !
 ! R6    R(3,11)                 1.7655         estimate D2E/DX2                !
 ! R7    R(4,5)                  1.4059         estimate D2E/DX2                !
 ! R8    R(4,8)                  1.7655         estimate D2E/DX2                !
 ! R9    R(5,6)                  1.4059         estimate D2E/DX2                !
 ! R10   R(5,9)                  1.7655         estimate D2E/DX2                !
 ! R11   R(6,7)                  1.7655         estimate D2E/DX2                !
 ! A1    A(2,1,6)              119.9999         estimate D2E/DX2                !
 ! A2    A(1,2,3)              120.0            estimate D2E/DX2                !
 ! A3    A(1,2,10)             120.0001         estimate D2E/DX2                !
 ! A4    A(3,2,10)             119.9999         estimate D2E/DX2                !
 ! A5    A(2,3,4)              120.0001         estimate D2E/DX2                !
 ! A6    A(2,3,11)             120.0            estimate D2E/DX2                !
 ! A7    A(4,3,11)             119.9999         estimate D2E/DX2                !
 ! A8    A(3,4,5)              119.9997         estimate D2E/DX2                !
 ! A9    A(3,4,8)              120.0003         estimate D2E/DX2                !
 ! A10   A(5,4,8)              120.0            estimate D2E/DX2                !
 ! A11   A(4,5,6)              120.0            estimate D2E/DX2                !
 ! A12   A(4,5,9)              119.9996         estimate D2E/DX2                !
 ! A13   A(6,5,9)              120.0004         estimate D2E/DX2                !
 ! A14   A(1,6,5)              120.0003         estimate D2E/DX2                !
 ! A15   A(1,6,7)              119.9999         estimate D2E/DX2                !
 ! A16   A(5,6,7)              119.9998         estimate D2E/DX2                !
 ! D1    D(6,1,2,3)              0.0            estimate D2E/DX2                !
 ! D2    D(6,1,2,10)           180.0            estimate D2E/DX2                !
 ! D3    D(2,1,6,5)              0.0            estimate D2E/DX2                !
 ! D4    D(2,1,6,7)            180.0            estimate D2E/DX2                !
 ! D5    D(1,2,3,4)              0.0            estimate D2E/DX2                !
 ! D6    D(1,2,3,11)           180.0            estimate D2E/DX2                !
 ! D7    D(10,2,3,4)           180.0            estimate D2E/DX2                !
 ! D8    D(10,2,3,11)            0.0            estimate D2E/DX2                !
 ! D9    D(2,3,4,5)              0.0            estimate D2E/DX2                !
 ! D10   D(2,3,4,8)            180.0            estimate D2E/DX2                !
 ! D11   D(11,3,4,5)           180.0            estimate D2E/DX2                !
 ! D12   D(11,3,4,8)             0.0            estimate D2E/DX2                !
 ! D13   D(3,4,5,6)              0.0            estimate D2E/DX2                !
 ! D14   D(3,4,5,9)            180.0            estimate D2E/DX2                !
 ! D15   D(8,4,5,6)            180.0            estimate D2E/DX2                !
 ! D16   D(8,4,5,9)              0.0            estimate D2E/DX2                !
 ! D17   D(4,5,6,1)              0.0            estimate D2E/DX2                !
 ! D18   D(4,5,6,7)            180.0            estimate D2E/DX2                !
 ! D19   D(9,5,6,1)            180.0            estimate D2E/DX2                !
 ! D20   D(9,5,6,7)              0.0            estimate D2E/DX2                !
 --------------------------------------------------------------------------------
 Trust Radius=3.00D-01 FncErr=1.00D-07 GrdErr=1.00D-07 EigMax=2.50D+02 EigMin=1.00D-04
 Number of steps in this run=     57 maximum allowed number of steps=    100.
 GradGradGradGradGradGradGradGradGradGradGradGradGradGradGradGradGradGrad

                          Input orientation:                          
 ---------------------------------------------------------------------
 Center     Atomic      Atomic             Coordinates (Angstroms)
 Number     Number       Type             X           Y           Z
 ---------------------------------------------------------------------
      1          6           0       -3.209280    0.199430    0.000000
      2          6           0       -2.011500    0.935550    0.000000
      3          6           0       -0.775110    0.266300    0.000000
      4          6           0       -0.736500   -1.139070    0.000000
      5          6           0       -1.934290   -1.875190    0.000000
      6          6           0       -3.170670   -1.205940    0.000000
      7         17           0       -4.674830   -2.130350    0.000000
      8         17           0        0.816140   -1.979510    0.000000
      9         17           0       -1.885800   -3.640030    0.000000
     10         17           0       -2.059980    2.700400    0.000000
     11         17           0        0.729050    1.190710    0.000000
 ---------------------------------------------------------------------
                    Distance matrix (angstroms):
                    1          2          3          4          5
     1  C    0.000000
     2  C    1.405898   0.000000
     3  C    2.435088   1.405900   0.000000
     4  C    2.811801   2.435092   1.405900   0.000000
     5  C    2.435087   2.811800   2.435093   1.405907   0.000000
     6  C    1.405900   2.435088   2.811796   2.435088   1.405892
     7  Cl   2.752401   4.061166   4.577308   4.061167   2.752393
     8  Cl   4.577312   4.061173   2.752406   1.765511   2.752408
     9  Cl   4.061164   4.577306   4.061163   2.752397   1.765506
    10  Cl   2.752406   1.765516   2.752405   4.061173   4.577316
    11  Cl   4.061167   2.752403   1.765512   2.752401   4.061173
                    6          7          8          9         10
     6  C    0.000000
     7  Cl   1.765512   0.000000
     8  Cl   4.061165   5.493041   0.000000
     9  Cl   2.752396   3.171407   3.171404   0.000000
    10  Cl   4.061173   5.493049   5.493052   6.342822   0.000000
    11  Cl   4.577308   6.342819   3.171416   5.493040   3.171412
                   11
    11  Cl   0.000000
 Stoichiometry    C6Cl5(2)
 Framework group  CS[SG(C6Cl5)]
 Deg. of freedom    19
 Full point group                 CS      NOp   2
 Largest Abelian subgroup         CS      NOp   2
 Largest concise Abelian subgroup C1      NOp   1
                         Standard orientation:                         
 ---------------------------------------------------------------------
 Center     Atomic      Atomic             Coordinates (Angstroms)
 Number     Number       Type             X           Y           Z
 ---------------------------------------------------------------------
      1          6           0        1.847515    0.120950    0.000000
      2          6           0        1.225606   -1.139915    0.000000
      3          6           0       -0.177292   -1.231757    0.000000
      4          6           0       -0.958280   -0.062734    0.000000
      5          6           0       -0.336362    1.198135    0.000000
      6          6           0        1.066526    1.289972    0.000000
      7         17           0        1.847515    2.873351    0.000000
      8         17           0       -2.720020   -0.178063    0.000000
      9         17           0       -1.317118    2.666171    0.000000
     10         17           0        2.206358   -2.607965    0.000000
     11         17           0       -0.958280   -2.815136    0.000000
 ---------------------------------------------------------------------
 Rotational constants (GHZ):           0.6973111           0.4487113           0.2730238
 Standard basis: VSTO-6G (5D, 7F)
 There are    33 symmetry adapted cartesian basis functions of A'  symmetry.
 There are    11 symmetry adapted cartesian basis functions of A"  symmetry.
 There are    33 symmetry adapted basis functions of A'  symmetry.
 There are    11 symmetry adapted basis functions of A"  symmetry.
    44 basis functions,   264 primitive gaussians,    44 cartesian basis functions
    30 alpha electrons       29 beta electrons
       nuclear repulsion energy       349.2653750185 Hartrees.
 Integral buffers will be    131072 words long.
 Regular integral format.
 Two-electron integral symmetry is turned off.
 Do NDO integrals.
 One-electron integrals computed using PRISM.
 NBasis=    44 RedAO= T EigKep=  1.00D+00  NBF=    33    11
 NBsUse=    44 1.00D-06 EigRej= -1.00D+00 NBFU=    33    11
 Simple Huckel Guess.
 Initial guess orbital symmetries:
 Alpha Orbitals:
       Occupied  (A') (A') (A') (A') (A') (A') (A') (A') (A') (A')
                 (A') (A") (A') (A') (A") (A') (A') (A") (A') (A")
                 (A") (A') (A') (A') (A") (A') (A') (A") (A") (A')
       Virtual   (A") (A") (A") (A') (A') (A') (A') (A') (A') (A')
                 (A') (A') (A') (A')
 Beta  Orbitals:
       Occupied  (A') (A') (A') (A') (A') (A') (A') (A') (A') (A')
                 (A') (A") (A') (A') (A") (A') (A') (A") (A') (A")
                 (A") (A') (A') (A') (A") (A') (A') (A") (A")
       Virtual   (A') (A") (A") (A") (A') (A') (A') (A') (A') (A')
                 (A') (A') (A') (A') (A')
 The electronic state of the initial guess is 2-A'.
 Initial guess <Sx>= 0.0000 <Sy>= 0.0000 <Sz>= 0.5000 <S**2>= 0.7500 S= 0.5000
 Keep J ints in memory in canonical form, NReq=865421.
 Overlap will be assumed to be unity.
 Requested convergence on RMS density matrix=1.00D-08 within**** cycles.
 Requested convergence on MAX density matrix=1.00D-06.
 Requested convergence on             energy=1.00D-06.
 No special actions if energy rises.
 Fock symm off for IB=2 I1=    1 I=   34 J=   28 Cut=1.00D-07 Err=4.16D-03
 Fock matrix is not symmetric: symmetry in diagonalization turned off.
 Rare condition: small coef for last iteration:  0.000D+00
 Rare condition: small coef for last iteration:  0.000D+00
 Rare condition: small coef for last iteration:  0.000D+00
 Rare condition: small coef for last iteration:  0.000D+00
 Rare condition: small coef for last iteration:  0.000D+00
 Rare condition: small coef for last iteration:  0.000D+00
 Rare condition: small coef for last iteration:  0.000D+00
 Rare condition: small coef for last iteration:  0.000D+00
 Rare condition: small coef for last iteration:  0.000D+00
 Rare condition: small coef for last iteration:  0.000D+00
 Rare condition: small coef for last iteration:  0.000D+00
 Rare condition: small coef for last iteration:  0.000D+00
 Rare condition: small coef for last iteration:  0.000D+00
 Rare condition: small coef for last iteration:  0.000D+00
 Rare condition: small coef for last iteration:  0.000D+00
 Rare condition: small coef for last iteration:  0.000D+00
 Rare condition: small coef for last iteration:  0.000D+00
 Rare condition: small coef for last iteration:  0.000D+00
 Rare condition: small coef for last iteration:  0.000D+00
 Rare condition: small coef for last iteration:  0.000D+00
 Rare condition: small coef for last iteration:  0.000D+00
 Rare condition: small coef for last iteration:  0.000D+00
 Rare condition: small coef for last iteration:  0.000D+00
 Rare condition: small coef for last iteration:  0.000D+00
 Rare condition: small coef for last iteration:  0.000D+00
 Rare condition: small coef for last iteration:  0.000D+00
 Rare condition: small coef for last iteration:  0.000D+00
 Rare condition: small coef for last iteration:  0.000D+00
 Rare condition: small coef for last iteration:  0.000D+00
 Rare condition: small coef for last iteration:  0.000D+00
 Rare condition: small coef for last iteration:  0.000D+00
 Rare condition: small coef for last iteration:  0.000D+00
 Rare condition: small coef for last iteration:  0.000D+00
 Rare condition: small coef for last iteration:  0.000D+00
 Rare condition: small coef for last iteration:  0.000D+00
 Rare condition: small coef for last iteration:  0.000D+00
 Rare condition: small coef for last iteration:  0.000D+00
 Rare condition: small coef for last iteration:  0.000D+00
 Rare condition: small coef for last iteration:  0.000D+00
 Rare condition: small coef for last iteration:  0.000D+00
 Rare condition: small coef for last iteration:  0.000D+00
 Rare condition: small coef for last iteration:  0.000D+00
 Rare condition: small coef for last iteration:  0.000D+00
 Rare condition: small coef for last iteration:  0.000D+00
 Rare condition: small coef for last iteration:  0.000D+00
 Rare condition: small coef for last iteration:  0.000D+00
 Rare condition: small coef for last iteration:  0.000D+00
 Rare condition: small coef for last iteration:  0.000D+00
 Rare condition: small coef for last iteration:  0.000D+00
 Rare condition: small coef for last iteration:  0.000D+00
 Rare condition: small coef for last iteration:  0.000D+00
 Rare condition: small coef for last iteration:  0.000D+00
 Rare condition: small coef for last iteration:  0.000D+00
 Rare condition: small coef for last iteration:  0.000D+00
 Rare condition: small coef for last iteration:  0.000D+00
 Rare condition: small coef for last iteration:  0.000D+00
 Rare condition: small coef for last iteration:  0.000D+00
 Rare condition: small coef for last iteration:  0.000D+00
 Rare condition: small coef for last iteration:  0.000D+00
 Rare condition: small coef for last iteration:  0.000D+00
 Rare condition: small coef for last iteration:  0.000D+00
 Rare condition: small coef for last iteration:  0.000D+00
 Rare condition: small coef for last iteration:  0.000D+00
 Rare condition: small coef for last iteration:  0.000D+00
 Rare condition: small coef for last iteration:  0.000D+00
 Rare condition: small coef for last iteration:  0.000D+00
 Rare condition: small coef for last iteration:  0.000D+00
 Rare condition: small coef for last iteration:  0.000D+00
 Rare condition: small coef for last iteration:  0.000D+00
 Rare condition: small coef for last iteration:  0.000D+00
 Rare condition: small coef for last iteration:  0.000D+00
 Rare condition: small coef for last iteration:  0.000D+00
 Rare condition: small coef for last iteration:  0.000D+00
 Rare condition: small coef for last iteration:  0.000D+00
 Rare condition: small coef for last iteration:  0.000D+00
 Rare condition: small coef for last iteration:  0.000D+00
 Rare condition: small coef for last iteration:  0.000D+00
 Rare condition: small coef for last iteration:  0.000D+00
 Rare condition: small coef for last iteration:  0.000D+00
 Rare condition: small coef for last iteration:  0.000D+00
 Rare condition: small coef for last iteration:  0.000D+00
 Rare condition: small coef for last iteration:  0.000D+00
 Rare condition: small coef for last iteration:  0.000D+00
 Rare condition: small coef for last iteration:  0.000D+00
 Rare condition: small coef for last iteration:  0.000D+00
 Rare condition: small coef for last iteration:  0.000D+00
 Rare condition: small coef for last iteration:  0.000D+00
 Rare condition: small coef for last iteration:  0.000D+00
 Rare condition: small coef for last iteration:  0.000D+00
 Rare condition: small coef for last iteration:  0.000D+00
 Rare condition: small coef for last iteration:  0.000D+00
 Rare condition: small coef for last iteration:  0.000D+00
 Rare condition: small coef for last iteration:  0.000D+00
 Rare condition: small coef for last iteration:  0.000D+00
 Rare condition: small coef for last iteration:  0.000D+00
 Rare condition: small coef for last iteration:  0.000D+00
 Rare condition: small coef for last iteration:  0.000D+00
 Rare condition: small coef for last iteration:  0.000D+00
 Rare condition: small coef for last iteration:  0.000D+00
 Rare condition: small coef for last iteration:  0.000D+00
 Rare condition: small coef for last iteration:  0.000D+00
 Rare condition: small coef for last iteration:  0.000D+00
 Rare condition: small coef for last iteration:  0.000D+00
 Rare condition: small coef for last iteration:  0.000D+00
 Rare condition: small coef for last iteration:  0.000D+00
 Rare condition: small coef for last iteration:  0.000D+00
 Rare condition: small coef for last iteration:  0.000D+00
 Rare condition: small coef for last iteration:  0.000D+00
 Rare condition: small coef for last iteration:  0.000D+00
 Rare condition: small coef for last iteration:  0.000D+00
 Rare condition: small coef for last iteration:  0.000D+00
 Rare condition: small coef for last iteration:  0.000D+00
 Rare condition: small coef for last iteration:  0.000D+00
 Rare condition: small coef for last iteration:  0.000D+00
 Rare condition: small coef for last iteration:  0.000D+00
 Rare condition: small coef for last iteration:  0.000D+00
 Rare condition: small coef for last iteration:  0.000D+00
 Rare condition: small coef for last iteration:  0.000D+00
 Rare condition: small coef for last iteration:  0.000D+00
 Rare condition: small coef for last iteration:  0.000D+00
 Rare condition: small coef for last iteration:  0.000D+00
 Rare condition: small coef for last iteration:  0.000D+00
 Rare condition: small coef for last iteration:  0.000D+00
 Rare condition: small coef for last iteration:  0.000D+00
 Rare condition: small coef for last iteration:  0.000D+00
 Rare condition: small coef for last iteration:  0.000D+00
 Rare condition: small coef for last iteration:  0.000D+00
 Rare condition: small coef for last iteration:  0.000D+00
 Rare condition: small coef for last iteration:  0.000D+00
 Rare condition: small coef for last iteration:  0.000D+00
 Rare condition: small coef for last iteration:  0.000D+00
 Rare condition: small coef for last iteration:  0.000D+00
 Rare condition: small coef for last iteration:  0.000D+00
 Rare condition: small coef for last iteration:  0.000D+00
 Rare condition: small coef for last iteration:  0.000D+00
 Rare condition: small coef for last iteration:  0.000D+00
 Rare condition: small coef for last iteration:  0.000D+00
 Rare condition: small coef for last iteration:  0.000D+00
 Rare condition: small coef for last iteration:  0.000D+00
 Rare condition: small coef for last iteration:  0.000D+00
 Rare condition: small coef for last iteration:  0.000D+00
 Rare condition: small coef for last iteration:  0.000D+00
 Rare condition: small coef for last iteration:  0.000D+00
 Rare condition: small coef for last iteration:  0.000D+00
 Rare condition: small coef for last iteration:  0.000D+00
 Rare condition: small coef for last iteration:  0.000D+00
 Rare condition: small coef for last iteration:  0.000D+00
 Rare condition: small coef for last iteration:  0.000D+00
 Rare condition: small coef for last iteration:  0.000D+00
 Rare condition: small coef for last iteration:  0.000D+00
 Rare condition: small coef for last iteration:  0.000D+00
 Rare condition: small coef for last iteration:  0.000D+00
 Rare condition: small coef for last iteration:  0.000D+00
 Rare condition: small coef for last iteration:  0.000D+00
 Rare condition: small coef for last iteration:  0.000D+00
 Rare condition: small coef for last iteration:  0.000D+00
 Rare condition: small coef for last iteration:  0.000D+00
 Rare condition: small coef for last iteration:  0.000D+00
 Rare condition: small coef for last iteration:  0.000D+00
 Rare condition: small coef for last iteration:  0.000D+00
 Rare condition: small coef for last iteration:  0.000D+00
 Rare condition: small coef for last iteration:  0.000D+00
 Rare condition: small coef for last iteration:  0.000D+00
 Rare condition: small coef for last iteration:  0.000D+00
 Rare condition: small coef for last iteration:  0.000D+00
 Rare condition: small coef for last iteration:  0.000D+00
 Rare condition: small coef for last iteration:  0.000D+00
 Rare condition: small coef for last iteration:  0.000D+00
 Rare condition: small coef for last iteration:  0.000D+00
 Rare condition: small coef for last iteration:  0.000D+00
 Rare condition: small coef for last iteration:  0.000D+00
 Rare condition: small coef for last iteration:  0.000D+00
 Rare condition: small coef for last iteration:  0.000D+00
 Rare condition: small coef for last iteration:  0.000D+00
 Rare condition: small coef for last iteration:  0.000D+00
 Rare condition: small coef for last iteration:  0.000D+00
 Rare condition: small coef for last iteration:  0.000D+00
 Rare condition: small coef for last iteration:  0.000D+00
 Rare condition: small coef for last iteration:  0.000D+00
 Rare condition: small coef for last iteration:  0.000D+00
 Rare condition: small coef for last iteration:  0.000D+00
 Rare condition: small coef for last iteration:  0.000D+00
 Rare condition: small coef for last iteration:  0.000D+00
 Rare condition: small coef for last iteration:  0.000D+00
 Rare condition: small coef for last iteration:  0.000D+00
 Rare condition: small coef for last iteration:  0.000D+00
 Rare condition: small coef for last iteration:  0.000D+00
 Rare condition: small coef for last iteration:  0.000D+00
 Rare condition: small coef for last iteration:  0.000D+00
 Rare condition: small coef for last iteration:  0.000D+00
 Rare condition: small coef for last iteration:  0.000D+00
 Rare condition: small coef for last iteration:  0.000D+00
 Rare condition: small coef for last iteration:  0.000D+00
 Rare condition: small coef for last iteration:  0.000D+00
 Rare condition: small coef for last iteration:  0.000D+00
 Rare condition: small coef for last iteration:  0.000D+00
 Rare condition: small coef for last iteration:  0.000D+00
 Rare condition: small coef for last iteration:  0.000D+00
 Rare condition: small coef for last iteration:  0.000D+00
 Rare condition: small coef for last iteration:  0.000D+00
 Rare condition: small coef for last iteration:  0.000D+00
 Rare condition: small coef for last iteration:  0.000D+00
 Rare condition: small coef for last iteration:  0.000D+00
 Rare condition: small coef for last iteration:  0.000D+00
 Rare condition: small coef for last iteration:  0.000D+00
 Rare condition: small coef for last iteration:  0.000D+00
 Rare condition: small coef for last iteration:  0.000D+00
 Rare condition: small coef for last iteration:  0.000D+00
 Rare condition: small coef for last iteration:  0.000D+00
 Rare condition: small coef for last iteration:  0.000D+00
 Rare condition: small coef for last iteration:  0.000D+00
 Rare condition: small coef for last iteration:  0.000D+00
 Rare condition: small coef for last iteration:  0.000D+00
 Rare condition: small coef for last iteration:  0.000D+00
 Rare condition: small coef for last iteration:  0.000D+00
 Rare condition: small coef for last iteration:  0.000D+00
 Rare condition: small coef for last iteration:  0.000D+00
 Rare condition: small coef for last iteration:  0.000D+00
 Rare condition: small coef for last iteration:  0.000D+00
 Rare condition: small coef for last iteration:  0.000D+00
 Rare condition: small coef for last iteration:  0.000D+00
 Rare condition: small coef for last iteration:  0.000D+00
 Rare condition: small coef for last iteration:  0.000D+00
 Rare condition: small coef for last iteration:  0.000D+00
 Rare condition: small coef for last iteration:  0.000D+00
 Rare condition: small coef for last iteration:  0.000D+00
 Rare condition: small coef for last iteration:  0.000D+00
 Rare condition: small coef for last iteration:  0.000D+00
 Rare condition: small coef for last iteration:  0.000D+00
 Rare condition: small coef for last iteration:  0.000D+00
 Rare condition: small coef for last iteration:  0.000D+00
 Rare condition: small coef for last iteration:  0.000D+00
 Rare condition: small coef for last iteration:  0.000D+00
 Rare condition: small coef for last iteration:  0.000D+00
 Rare condition: small coef for last iteration:  0.000D+00
 Rare condition: small coef for last iteration:  0.000D+00
 Rare condition: small coef for last iteration:  0.000D+00
 Rare condition: small coef for last iteration:  0.000D+00
 Rare condition: small coef for last iteration:  0.000D+00
 Rare condition: small coef for last iteration:  0.000D+00
 Rare condition: small coef for last iteration:  0.000D+00
 Rare condition: small coef for last iteration:  0.000D+00
 Rare condition: small coef for last iteration:  0.000D+00
 Rare condition: small coef for last iteration:  0.000D+00
 Rare condition: small coef for last iteration:  0.000D+00
 Rare condition: small coef for last iteration:  0.000D+00
 Rare condition: small coef for last iteration:  0.000D+00
 Rare condition: small coef for last iteration:  0.000D+00
 Rare condition: small coef for last iteration:  0.000D+00
 Rare condition: small coef for last iteration:  0.000D+00
 Rare condition: small coef for last iteration:  0.000D+00
 Rare condition: small coef for last iteration:  0.000D+00
 Rare condition: small coef for last iteration:  0.000D+00
 Rare condition: small coef for last iteration:  0.000D+00
 Rare condition: small coef for last iteration:  0.000D+00
 Rare condition: small coef for last iteration:  0.000D+00
 Rare condition: small coef for last iteration:  0.000D+00
 Rare condition: small coef for last iteration:  0.000D+00
 Rare condition: small coef for last iteration:  0.000D+00
 Rare condition: small coef for last iteration:  0.000D+00
 Rare condition: small coef for last iteration:  0.000D+00
 Rare condition: small coef for last iteration:  0.000D+00
 SCF Done:  E(UAM1) =  0.993052626851E-01 A.U. after  564 cycles
            NFock=563  Conv=0.64D-08     -V/T= 1.0006
 <Sx>= 0.0000 <Sy>= 0.0000 <Sz>= 0.5000 <S**2>= 1.3757 S= 0.7750
 <L.S>=  0.00000000000    
 Annihilation of the first spin contaminant:
 S**2 before annihilation     1.3757,   after     1.1028

 **********************************************************************

            Population analysis using the SCF Density.

 **********************************************************************

 Orbital symmetries:
 Alpha Orbitals:
       Occupied  (A') (A') (A') (A') (A') (A') (A') (A') (A') (A')
                 (A') (A') (A') (A') (A") (A') (A') (A") (A") (A')
                 (A") (A") (A') (A') (A') (A') (A") (A') (A") (A")
       Virtual   (A") (A") (A') (A') (A') (A') (A') (A") (A') (A')
                 (A') (A') (A') (A')
 Beta  Orbitals:
       Occupied  (A') (A') (A') (A') (A') (A') (A') (A') (A') (A')
                 (A') (A') (A') (A') (A") (A') (A') (A") (A") (A")
                 (A") (A') (A') (A') (A') (A') (A") (A") (A")
       Virtual   (A') (A") (A") (A') (A') (A') (A') (A') (A") (A')
                 (A') (A') (A') (A') (A')
 The electronic state is 2-A'.
 Alpha  occ. eigenvalues --   -1.48502  -1.40983  -1.40204  -1.39312  -1.38988
 Alpha  occ. eigenvalues --   -1.37221  -1.16915  -1.16543  -0.89875  -0.89501
 Alpha  occ. eigenvalues --   -0.70282  -0.67161  -0.64928  -0.60515  -0.59477
 Alpha  occ. eigenvalues --   -0.57377  -0.53303  -0.52482  -0.50659  -0.48962
 Alpha  occ. eigenvalues --   -0.48027  -0.47657  -0.46736  -0.46107  -0.45803
 Alpha  occ. eigenvalues --   -0.44593  -0.44371  -0.44208  -0.39770  -0.38431
 Alpha virt. eigenvalues --   -0.03408  -0.03178  -0.00985  -0.00047   0.00369
 Alpha virt. eigenvalues --    0.02344   0.02764   0.04242   0.10166   0.10310
 Alpha virt. eigenvalues --    0.11907   0.12133   0.13483   0.13849
  Beta  occ. eigenvalues --   -1.48010  -1.40903  -1.40207  -1.39260  -1.38923
  Beta  occ. eigenvalues --   -1.36903  -1.16693  -1.14923  -0.89703  -0.87230
  Beta  occ. eigenvalues --   -0.70151  -0.66668  -0.63686  -0.60373  -0.59320
  Beta  occ. eigenvalues --   -0.56574  -0.52952  -0.52493  -0.51332  -0.48057
  Beta  occ. eigenvalues --   -0.47569  -0.47442  -0.46687  -0.45904  -0.45729
  Beta  occ. eigenvalues --   -0.44561  -0.43901  -0.38604  -0.38593
  Beta virt. eigenvalues --   -0.04959  -0.03476  -0.01600  -0.01337   0.00355
  Beta virt. eigenvalues --    0.00573   0.02305   0.02846   0.05369   0.10590
  Beta virt. eigenvalues --    0.10656   0.12669   0.12771   0.13851   0.15660
          Condensed to atoms (all electrons):
               1          2          3          4          5          6
     1  C    3.965426   0.000000   0.000000   0.000000   0.000000   0.000000
     2  C    0.000000   4.043039   0.000000   0.000000   0.000000   0.000000
     3  C    0.000000   0.000000   4.031240   0.000000   0.000000   0.000000
     4  C    0.000000   0.000000   0.000000   4.038170   0.000000   0.000000
     5  C    0.000000   0.000000   0.000000   0.000000   4.031242   0.000000
     6  C    0.000000   0.000000   0.000000   0.000000   0.000000   4.043039
     7  Cl   0.000000   0.000000   0.000000   0.000000   0.000000   0.000000
     8  Cl   0.000000   0.000000   0.000000   0.000000   0.000000   0.000000
     9  Cl   0.000000   0.000000   0.000000   0.000000   0.000000   0.000000
    10  Cl   0.000000   0.000000   0.000000   0.000000   0.000000   0.000000
    11  Cl   0.000000   0.000000   0.000000   0.000000   0.000000   0.000000
               7          8          9         10         11
     1  C    0.000000   0.000000   0.000000   0.000000   0.000000
     2  C    0.000000   0.000000   0.000000   0.000000   0.000000
     3  C    0.000000   0.000000   0.000000   0.000000   0.000000
     4  C    0.000000   0.000000   0.000000   0.000000   0.000000
     5  C    0.000000   0.000000   0.000000   0.000000   0.000000
     6  C    0.000000   0.000000   0.000000   0.000000   0.000000
     7  Cl   6.972455   0.000000   0.000000   0.000000   0.000000
     8  Cl   0.000000   6.968162   0.000000   0.000000   0.000000
     9  Cl   0.000000   0.000000   6.967384   0.000000   0.000000
    10  Cl   0.000000   0.000000   0.000000   6.972456   0.000000
    11  Cl   0.000000   0.000000   0.000000   0.000000   6.967387
          Atomic-Atomic Spin Densities.
               1          2          3          4          5          6
     1  C    1.462281   0.000000   0.000000   0.000000   0.000000   0.000000
     2  C    0.000000  -0.516475   0.000000   0.000000   0.000000   0.000000
     3  C    0.000000   0.000000   0.515193   0.000000   0.000000   0.000000
     4  C    0.000000   0.000000   0.000000  -0.496312   0.000000   0.000000
     5  C    0.000000   0.000000   0.000000   0.000000   0.515191   0.000000
     6  C    0.000000   0.000000   0.000000   0.000000   0.000000  -0.516467
     7  Cl   0.000000   0.000000   0.000000   0.000000   0.000000   0.000000
     8  Cl   0.000000   0.000000   0.000000   0.000000   0.000000   0.000000
     9  Cl   0.000000   0.000000   0.000000   0.000000   0.000000   0.000000
    10  Cl   0.000000   0.000000   0.000000   0.000000   0.000000   0.000000
    11  Cl   0.000000   0.000000   0.000000   0.000000   0.000000   0.000000
               7          8          9         10         11
     1  C    0.000000   0.000000   0.000000   0.000000   0.000000
     2  C    0.000000   0.000000   0.000000   0.000000   0.000000
     3  C    0.000000   0.000000   0.000000   0.000000   0.000000
     4  C    0.000000   0.000000   0.000000   0.000000   0.000000
     5  C    0.000000   0.000000   0.000000   0.000000   0.000000
     6  C    0.000000   0.000000   0.000000   0.000000   0.000000
     7  Cl   0.009291   0.000000   0.000000   0.000000   0.000000
     8  Cl   0.000000   0.006754   0.000000   0.000000   0.000000
     9  Cl   0.000000   0.000000   0.005628   0.000000   0.000000
    10  Cl   0.000000   0.000000   0.000000   0.009291   0.000000
    11  Cl   0.000000   0.000000   0.000000   0.000000   0.005627
 Mulliken charges and spin densities:
               1          2
     1  C    0.034574   1.462281
     2  C   -0.043039  -0.516475
     3  C   -0.031240   0.515193
     4  C   -0.038170  -0.496312
     5  C   -0.031242   0.515191
     6  C   -0.043039  -0.516467
     7  Cl   0.027545   0.009291
     8  Cl   0.031838   0.006754
     9  Cl   0.032616   0.005628
    10  Cl   0.027544   0.009291
    11  Cl   0.032613   0.005627
 Sum of Mulliken charges =   0.00000   1.00000
 Mulliken charges and spin densities with hydrogens summed into heavy atoms:
               1          2
     1  C    0.034574   1.462281
     2  C   -0.043039  -0.516475
     3  C   -0.031240   0.515193
     4  C   -0.038170  -0.496312
     5  C   -0.031242   0.515191
     6  C   -0.043039  -0.516467
     7  Cl   0.027545   0.009291
     8  Cl   0.031838   0.006754
     9  Cl   0.032616   0.005628
    10  Cl   0.027544   0.009291
    11  Cl   0.032613   0.005627
 Charge=              0.0000 electrons
 Dipole moment (field-independent basis, Debye):
    X=             -0.1616    Y=             -0.0106    Z=             -0.0000  Tot=              0.1619
 N-N= 3.492653750185D+02 E-N=-4.977812186158D+02  KE=-1.553284981687D+02
 Symmetry A'   KE=-1.181614578881D+02
 Symmetry A"   KE=-3.716704028057D+01
 Symmetry A'   SP= 1.000000000000D+00
 Symmetry A"   SP=-1.465494392505D-14
 Calling FoFJK, ICntrl=      2127 FMM=F ISym2X=1 I1Cent= 0 IOpClX= 1 NMat=1 NMatS=1 NMatT=0.
 ***** Axes restored to original set *****
 -------------------------------------------------------------------
 Center     Atomic                   Forces (Hartrees/Bohr)
 Number     Number              X              Y              Z
 -------------------------------------------------------------------
      1        6           0.053720588   -0.029078010   -0.000000000
      2        6          -0.026846076    0.041927659    0.000000000
      3        6           0.030047122    0.017670647    0.000000000
      4        6           0.031621257   -0.017119335   -0.000000000
      5        6           0.001643942   -0.034818503    0.000000000
      6        6          -0.049788937   -0.000444770   -0.000000000
      7       17           0.034676921    0.024146533    0.000000000
      8       17          -0.036692559    0.019861827    0.000000000
      9       17          -0.001369182    0.041810696    0.000000000
     10       17          -0.001255760   -0.042239726   -0.000000000
     11       17          -0.035757315   -0.021717019   -0.000000000
 -------------------------------------------------------------------
 Cartesian Forces:  Max     0.053720588 RMS     0.025360833

 GradGradGradGradGradGradGradGradGradGradGradGradGradGradGradGradGradGrad
 Berny optimization.
 FormGI is forming the generalized inverse of G from B-inverse, IUseBI=4.
 Internal  Forces:  Max     0.042189316 RMS     0.016257707
 Search for a local minimum.
 Step number   1 out of a maximum of   57
 All quantities printed in internal units (Hartrees-Bohrs-Radians)
 Mixed Optimization -- RFO/linear search
 Second derivative matrix not updated -- first step.
 ITU=  0
     Eigenvalues ---    0.02011   0.02011   0.02011   0.02011   0.02011
     Eigenvalues ---    0.02011   0.02011   0.02011   0.25000   0.25000
     Eigenvalues ---    0.25000   0.25000   0.25000   0.25000   0.25000
     Eigenvalues ---    0.25000   0.29033   0.29033   0.29033   0.29033
     Eigenvalues ---    0.29034   0.41212   0.41599   0.44656   0.44657
     Eigenvalues ---    0.44657   0.44657
 RFO step:  Lambda=-3.63539902D-02 EMin= 2.01065791D-02
 Linear search not attempted -- first point.
 Maximum step size (   0.300) exceeded in Quadratic search.
    -- Step size scaled by   0.911
 Iteration  1 RMS(Cart)=  0.04878296 RMS(Int)=  0.00080775
 Iteration  2 RMS(Cart)=  0.00111033 RMS(Int)=  0.00022981
 Iteration  3 RMS(Cart)=  0.00000041 RMS(Int)=  0.00022981
 ClnCor:  largest displacement from symmetrization is 8.24D-11 for atom    11.
 Variable       Old X    -DE/DX   Delta X   Delta X   Delta X     New X
                                 (Linear)    (Quad)   (Total)
    R1        2.65676  -0.03266   0.00000  -0.06362  -0.06330   2.59347
    R2        2.65677  -0.03266   0.00000  -0.06362  -0.06330   2.59347
    R3        2.65677  -0.00598   0.00000  -0.01128  -0.01128   2.64549
    R4        3.33634  -0.04219   0.00000  -0.11766  -0.11766   3.21869
    R5        2.65677  -0.00131   0.00000  -0.00047  -0.00078   2.65598
    R6        3.33633  -0.04183   0.00000  -0.11667  -0.11667   3.21967
    R7        2.65678  -0.00131   0.00000  -0.00047  -0.00079   2.65599
    R8        3.33633  -0.04172   0.00000  -0.11635  -0.11635   3.21998
    R9        2.65675  -0.00597   0.00000  -0.01126  -0.01126   2.64549
   R10        3.33632  -0.04183   0.00000  -0.11666  -0.11666   3.21967
   R11        3.33633  -0.04219   0.00000  -0.11765  -0.11765   3.21869
    A1        2.09439   0.02978   0.00000   0.08520   0.08606   2.18045
    A2        2.09439  -0.01189   0.00000  -0.04076  -0.04048   2.05391
    A3        2.09440   0.00192   0.00000   0.00756   0.00742   2.10182
    A4        2.09439   0.00998   0.00000   0.03320   0.03306   2.12745
    A5        2.09440  -0.00343   0.00000  -0.00695  -0.00731   2.08708
    A6        2.09440   0.00135   0.00000   0.00231   0.00249   2.09688
    A7        2.09439   0.00208   0.00000   0.00464   0.00482   2.09922
    A8        2.09439   0.00088   0.00000   0.01022   0.00953   2.10392
    A9        2.09440  -0.00044   0.00000  -0.00511  -0.00477   2.08963
   A10        2.09440  -0.00044   0.00000  -0.00511  -0.00477   2.08963
   A11        2.09439  -0.00343   0.00000  -0.00695  -0.00731   2.08708
   A12        2.09439   0.00208   0.00000   0.00464   0.00483   2.09921
   A13        2.09440   0.00135   0.00000   0.00231   0.00249   2.09689
   A14        2.09440  -0.01190   0.00000  -0.04076  -0.04049   2.05391
   A15        2.09439   0.00192   0.00000   0.00756   0.00742   2.10182
   A16        2.09439   0.00998   0.00000   0.03320   0.03306   2.12745
    D1        0.00000   0.00000   0.00000   0.00000   0.00000   0.00000
    D2        3.14159  -0.00000   0.00000  -0.00000   0.00000   3.14159
    D3        0.00000   0.00000   0.00000   0.00000   0.00000   0.00000
    D4        3.14159  -0.00000   0.00000  -0.00000   0.00000   3.14159
    D5        0.00000  -0.00000   0.00000  -0.00000   0.00000   0.00000
    D6        3.14159  -0.00000   0.00000  -0.00000   0.00000   3.14159
    D7        3.14159   0.00000   0.00000   0.00000   0.00000   3.14159
    D8        0.00000   0.00000   0.00000   0.00000   0.00000   0.00000
    D9        0.00000   0.00000   0.00000   0.00000   0.00000   0.00000
   D10        3.14159   0.00000   0.00000   0.00000   0.00000   3.14159
   D11        3.14159   0.00000   0.00000   0.00000   0.00000   3.14159
   D12        0.00000   0.00000   0.00000   0.00000   0.00000   0.00000
   D13        0.00000   0.00000   0.00000   0.00000   0.00000   0.00000
   D14        3.14159   0.00000   0.00000   0.00000   0.00000   3.14159
   D15        3.14159   0.00000   0.00000   0.00000   0.00000   3.14159
   D16        0.00000   0.00000   0.00000   0.00000   0.00000   0.00000
   D17        0.00000  -0.00000   0.00000  -0.00000   0.00000   0.00000
   D18        3.14159   0.00000   0.00000   0.00000   0.00000   3.14159
   D19        3.14159  -0.00000   0.00000  -0.00000   0.00000   3.14159
   D20        0.00000   0.00000   0.00000   0.00000   0.00000   0.00000
         Item               Value     Threshold  Converged?
 Maximum Force            0.042189     0.000450     NO 
 RMS     Force            0.016258     0.000300     NO 
 Maximum Displacement     0.149457     0.001800     NO 
 RMS     Displacement     0.049179     0.001200     NO 
 Predicted change in Energy=-1.967608D-02
 GradGradGradGradGradGradGradGradGradGradGradGradGradGradGradGradGradGrad

                          Input orientation:                          
 ---------------------------------------------------------------------
 Center     Atomic      Atomic             Coordinates (Angstroms)
 Number     Number       Type             X           Y           Z
 ---------------------------------------------------------------------
      1          6           0       -3.137478    0.160565    0.000000
      2          6           0       -2.000226    0.928778    0.000000
      3          6           0       -0.767391    0.265506    0.000000
      4          6           0       -0.735489   -1.139617    0.000000
      5          6           0       -1.929401   -1.881220    0.000000
      6          6           0       -3.158839   -1.211674    0.000000
      7         17           0       -4.640788   -2.051261    0.000000
      8         17           0        0.763005   -1.950744    0.000000
      9         17           0       -1.882705   -3.584354    0.000000
     10         17           0       -2.107578    2.628646    0.000000
     11         17           0        0.684119    1.157676    0.000000
 ---------------------------------------------------------------------
                    Distance matrix (angstroms):
                    1          2          3          4          5
     1  C    0.000000
     2  C    1.372403   0.000000
     3  C    2.372409   1.399933   0.000000
     4  C    2.731305   2.424421   1.405486   0.000000
     5  C    2.372411   2.810890   2.441045   1.405489   0.000000
     6  C    1.372405   2.433910   2.810887   2.424421   1.399932
     7  Cl   2.674344   3.981607   4.513382   4.010294   2.716715
     8  Cl   4.435244   3.990876   2.693302   1.703939   2.693303
     9  Cl   3.949540   4.514661   4.008160   2.700526   1.703774
    10  Cl   2.674345   1.703255   2.716714   4.010292   4.513385
    11  Cl   3.949536   2.694087   1.703775   2.700526   4.008163
                    6          7          8          9         10
     6  C    0.000000
     7  Cl   1.703256   0.000000
     8  Cl   3.990875   5.404728   0.000000
     9  Cl   2.694090   3.155534   3.109415   0.000000
    10  Cl   3.981609   5.321531   5.404726   6.217068   0.000000
    11  Cl   4.514659   6.217067   3.109421   5.392164   3.155523
                   11
    11  Cl   0.000000
 Stoichiometry    C6Cl5(2)
 Framework group  CS[SG(C6Cl5)]
 Deg. of freedom    19
 Full point group                 CS      NOp   2
 Largest Abelian subgroup         CS      NOp   2
 Largest concise Abelian subgroup C1      NOp   1
                         Standard orientation:                         
 ---------------------------------------------------------------------
 Center     Atomic      Atomic             Coordinates (Angstroms)
 Number     Number       Type             X           Y           Z
 ---------------------------------------------------------------------
      1          6           0        0.000000    1.758605   -0.000000
      2          6           0        1.216954    1.124165   -0.000000
      3          6           0        1.220520   -0.275764    0.000000
      4          6           0       -0.000000   -0.972700    0.000000
      5          6           0       -1.220524   -0.275764   -0.000000
      6          6           0       -1.216955    1.124164   -0.000000
      7         17           0       -2.660764    2.027766   -0.000000
      8         17           0       -0.000001   -2.676639    0.000000
      9         17           0       -2.696082   -1.127571   -0.000000
     10         17           0        2.660766    2.027760   -0.000000
     11         17           0        2.696082   -1.127565    0.000000
 ---------------------------------------------------------------------
 Rotational constants (GHZ):           0.7141755           0.4702079           0.2835323
 Standard basis: VSTO-6G (5D, 7F)
 There are    33 symmetry adapted cartesian basis functions of A'  symmetry.
 There are    11 symmetry adapted cartesian basis functions of A"  symmetry.
 There are    33 symmetry adapted basis functions of A'  symmetry.
 There are    11 symmetry adapted basis functions of A"  symmetry.
    44 basis functions,   264 primitive gaussians,    44 cartesian basis functions
    30 alpha electrons       29 beta electrons
       nuclear repulsion energy       353.4828911570 Hartrees.
 Integral buffers will be    131072 words long.
 Regular integral format.
 Two-electron integral symmetry is turned off.
 Do NDO integrals.
 One-electron integrals computed using PRISM.
 NBasis=    44 RedAO= T EigKep=  1.00D+00  NBF=    33    11
 NBsUse=    44 1.00D-06 EigRej= -1.00D+00 NBFU=    33    11
 Initial guess from the checkpoint file:  "geometry_chks/1_3456ClBzNeutralRadical.chk"
 B after Tr=     0.000000    0.000000   -0.000000
         Rot=    0.729838    0.000000   -0.000000   -0.683621 Ang= -86.25 deg.
 Initial guess orbital symmetries:
 Alpha Orbitals:
       Occupied  (A') (A') (A') (A') (A') (A') (A') (A') (A') (A')
                 (A') (A') (A') (A') (A") (A') (A') (A") (A") (A')
                 (A") (A") (A') (A') (A') (A') (A") (A') (A") (A")
       Virtual   (A") (A") (A') (A') (A') (A') (A') (A") (A') (A')
                 (A') (A') (A') (A')
 Beta  Orbitals:
       Occupied  (A') (A') (A') (A') (A') (A') (A') (A') (A') (A')
                 (A') (A') (A') (A') (A") (A') (A') (A") (A") (A")
                 (A") (A') (A') (A') (A') (A') (A") (A") (A")
       Virtual   (A') (A") (A") (A') (A') (A') (A') (A') (A") (A')
                 (A') (A') (A') (A') (A')
 Initial guess <Sx>= 0.0000 <Sy>= 0.0000 <Sz>= 0.5000 <S**2>= 1.3757 S= 0.7750
 Keep J ints in memory in canonical form, NReq=865421.
 Overlap will be assumed to be unity.
 Requested convergence on RMS density matrix=1.00D-08 within**** cycles.
 Requested convergence on MAX density matrix=1.00D-06.
 Requested convergence on             energy=1.00D-06.
 No special actions if energy rises.
 Fock symm off for IB=2 I1=    1 I=   34 J=   20 Cut=1.00D-07 Err=3.50D-03
 Fock matrix is not symmetric: symmetry in diagonalization turned off.
 SCF Done:  E(UAM1) =  0.787720465399E-01 A.U. after   16 cycles
            NFock= 15  Conv=0.57D-08     -V/T= 1.0005
 <Sx>= 0.0000 <Sy>= 0.0000 <Sz>= 0.5000 <S**2>= 1.3294 S= 0.7568
 <L.S>=  0.00000000000    
 Annihilation of the first spin contaminant:
 S**2 before annihilation     1.3294,   after     1.0493
 Calling FoFJK, ICntrl=      2127 FMM=F ISym2X=1 I1Cent= 0 IOpClX= 1 NMat=1 NMatS=1 NMatT=0.
 ***** Axes restored to original set *****
 -------------------------------------------------------------------
 Center     Atomic                   Forces (Hartrees/Bohr)
 Number     Number              X              Y              Z
 -------------------------------------------------------------------
      1        6           0.010325075   -0.005590424    0.000000000
      2        6          -0.013063212    0.033774261    0.000000000
      3        6           0.022731217    0.005619568   -0.000000000
      4        6           0.015150476   -0.008203223    0.000000000
      5        6           0.007726649   -0.022102881    0.000000000
      6        6          -0.035421654   -0.007528877   -0.000000000
      7       17           0.008854450    0.005688272   -0.000000000
      8       17          -0.007345486    0.003976212   -0.000000000
      9       17          -0.000692880    0.009512584   -0.000000000
     10       17           0.000078532   -0.010523583   -0.000000000
     11       17          -0.008343166   -0.004621909   -0.000000000
 -------------------------------------------------------------------
 Cartesian Forces:  Max     0.035421654 RMS     0.011841322

 GradGradGradGradGradGradGradGradGradGradGradGradGradGradGradGradGradGrad
 Berny optimization.
 Using GEDIIS/GDIIS optimizer.
 FormGI is forming the generalized inverse of G from B-inverse, IUseBI=4.
 Internal  Forces:  Max     0.016605373 RMS     0.006243072
 Search for a local minimum.
 Step number   2 out of a maximum of   57
 All quantities printed in internal units (Hartrees-Bohrs-Radians)
 Mixed Optimization -- RFO/linear search
 Update second derivatives using D2CorX and points    1    2
 DE= -2.05D-02 DEPred=-1.97D-02 R= 1.04D+00
 TightC=F SS=  1.41D+00  RLast= 3.00D-01 DXNew= 5.0454D-01 8.9996D-01
 Trust test= 1.04D+00 RLast= 3.00D-01 DXMaxT set to 5.05D-01
 ITU=  1  0
 Use linear search instead of GDIIS.
     Eigenvalues ---    0.02011   0.02011   0.02011   0.02011   0.02011
     Eigenvalues ---    0.02011   0.02011   0.02011   0.19636   0.25000
     Eigenvalues ---    0.25000   0.25000   0.25000   0.25000   0.25000
     Eigenvalues ---    0.25015   0.27651   0.29033   0.29033   0.29034
     Eigenvalues ---    0.29073   0.40792   0.41294   0.44491   0.44656
     Eigenvalues ---    0.44657   0.59406
 RFO step:  Lambda=-5.22389792D-03 EMin= 2.01065786D-02
 Quartic linear search produced a step of  0.22303.
 Iteration  1 RMS(Cart)=  0.02149592 RMS(Int)=  0.00042098
 Iteration  2 RMS(Cart)=  0.00047550 RMS(Int)=  0.00016013
 Iteration  3 RMS(Cart)=  0.00000014 RMS(Int)=  0.00016013
 ClnCor:  largest displacement from symmetrization is 5.74D-10 for atom    10.
 Variable       Old X    -DE/DX   Delta X   Delta X   Delta X     New X
                                 (Linear)    (Quad)   (Total)
    R1        2.59347   0.00596  -0.01412   0.02358   0.00969   2.60316
    R2        2.59347   0.00596  -0.01412   0.02357   0.00969   2.60316
    R3        2.64549   0.01661  -0.00251   0.04626   0.04375   2.68924
    R4        3.21869  -0.01051  -0.02624  -0.02575  -0.05199   3.16670
    R5        2.65598   0.01281  -0.00017   0.03525   0.03485   2.69083
    R6        3.21967  -0.00953  -0.02602  -0.02185  -0.04787   3.17179
    R7        2.65599   0.01281  -0.00018   0.03524   0.03484   2.69083
    R8        3.21998  -0.00835  -0.02595  -0.01705  -0.04300   3.17698
    R9        2.64549   0.01661  -0.00251   0.04626   0.04375   2.68923
   R10        3.21967  -0.00953  -0.02602  -0.02185  -0.04787   3.17179
   R11        3.21869  -0.01051  -0.02624  -0.02575  -0.05199   3.16670
    A1        2.18045   0.01456   0.01919   0.05279   0.07257   2.25302
    A2        2.05391  -0.00774  -0.00903  -0.03144  -0.04027   2.01365
    A3        2.10182   0.00293   0.00166   0.01327   0.01482   2.11665
    A4        2.12745   0.00481   0.00737   0.01817   0.02544   2.15289
    A5        2.08708  -0.00084  -0.00163  -0.00158  -0.00347   2.08362
    A6        2.09688  -0.00027   0.00056  -0.00234  -0.00166   2.09523
    A7        2.09922   0.00111   0.00108   0.00392   0.00512   2.10434
    A8        2.10392   0.00260   0.00213   0.01324   0.01489   2.11882
    A9        2.08963  -0.00130  -0.00106  -0.00662  -0.00745   2.08218
   A10        2.08963  -0.00130  -0.00106  -0.00662  -0.00745   2.08218
   A11        2.08708  -0.00084  -0.00163  -0.00158  -0.00346   2.08362
   A12        2.09921   0.00111   0.00108   0.00392   0.00513   2.10434
   A13        2.09689  -0.00028   0.00055  -0.00235  -0.00166   2.09523
   A14        2.05391  -0.00774  -0.00903  -0.03144  -0.04027   2.01365
   A15        2.10182   0.00293   0.00166   0.01327   0.01483   2.11664
   A16        2.12745   0.00481   0.00737   0.01817   0.02544   2.15289
    D1        0.00000   0.00000   0.00000  -0.00000  -0.00000   0.00000
    D2        3.14159  -0.00000   0.00000   0.00000   0.00000   3.14159
    D3        0.00000   0.00000   0.00000   0.00000   0.00000   0.00000
    D4        3.14159   0.00000   0.00000   0.00000   0.00000   3.14159
    D5       -0.00000  -0.00000   0.00000   0.00000   0.00000   0.00000
    D6        3.14159  -0.00000   0.00000   0.00000   0.00000   3.14159
    D7        3.14159   0.00000   0.00000  -0.00000   0.00000   3.14159
    D8        0.00000   0.00000   0.00000  -0.00000  -0.00000   0.00000
    D9        0.00000   0.00000   0.00000   0.00000  -0.00000   0.00000
   D10        3.14159  -0.00000   0.00000  -0.00000   0.00000   3.14159
   D11        3.14159   0.00000   0.00000  -0.00000   0.00000   3.14159
   D12       -0.00000  -0.00000   0.00000  -0.00000   0.00000   0.00000
   D13        0.00000   0.00000   0.00000  -0.00000   0.00000   0.00000
   D14        3.14159  -0.00000   0.00000  -0.00000   0.00000   3.14159
   D15        3.14159   0.00000   0.00000   0.00000   0.00000   3.14159
   D16       -0.00000  -0.00000   0.00000  -0.00000   0.00000   0.00000
   D17       -0.00000  -0.00000   0.00000   0.00000   0.00000   0.00000
   D18        3.14159  -0.00000   0.00000  -0.00000   0.00000   3.14159
   D19        3.14159   0.00000   0.00000   0.00000   0.00000   3.14159
   D20        0.00000  -0.00000   0.00000  -0.00000   0.00000   0.00000
         Item               Value     Threshold  Converged?
 Maximum Force            0.016605     0.000450     NO 
 RMS     Force            0.006243     0.000300     NO 
 Maximum Displacement     0.056726     0.001800     NO 
 RMS     Displacement     0.021472     0.001200     NO 
 Predicted change in Energy=-3.710323D-03
 GradGradGradGradGradGradGradGradGradGradGradGradGradGradGradGradGradGrad

                          Input orientation:                          
 ---------------------------------------------------------------------
 Center     Atomic      Atomic             Coordinates (Angstroms)
 Number     Number       Type             X           Y           Z
 ---------------------------------------------------------------------
      1          6           0       -3.108891    0.145090   -0.000000
      2          6           0       -1.996114    0.957077   -0.000000
      3          6           0       -0.745586    0.277853   -0.000000
      4          6           0       -0.723868   -1.145908    0.000000
      5          6           0       -1.927815   -1.906224    0.000000
      6          6           0       -3.180284   -1.230590    0.000000
      7         17           0       -4.655683   -2.025143    0.000000
      8         17           0        0.754614   -1.946202    0.000000
      9         17           0       -1.877925   -3.583923    0.000000
     10         17           0       -2.137596    2.626837   -0.000000
     11         17           0        0.686378    1.153433   -0.000000
 ---------------------------------------------------------------------
                    Distance matrix (angstroms):
                    1          2          3          4          5
     1  C    0.000000
     2  C    1.377532   0.000000
     3  C    2.367031   1.423083   0.000000
     4  C    2.712012   2.457876   1.423927   0.000000
     5  C    2.367030   2.864115   2.483517   1.423927   0.000000
     6  C    1.377532   2.487598   2.864115   2.457875   1.423081
     7  Cl   2.665048   3.995866   4.537913   4.028924   2.730459
     8  Cl   4.393196   3.999441   2.682726   1.681184   2.682727
     9  Cl   3.926935   4.542538   4.024364   2.697363   1.678440
    10  Cl   2.665048   1.675744   2.730461   4.028924   4.537913
    11  Cl   3.926936   2.689670   1.678441   2.697362   4.024365
                    6          7          8          9         10
     6  C    0.000000
     7  Cl   1.675744   0.000000
     8  Cl   3.999440   5.410873   0.000000
     9  Cl   2.689668   3.185237   3.100386   0.000000
    10  Cl   3.995866   5.289772   5.410874   6.216186   0.000000
    11  Cl   4.542537   6.216186   3.100386   5.386854   3.185239
                   11
    11  Cl   0.000000
 Stoichiometry    C6Cl5(2)
 Framework group  CS[SG(C6Cl5)]
 Deg. of freedom    19
 Full point group                 CS      NOp   2
 Largest Abelian subgroup         CS      NOp   2
 Largest concise Abelian subgroup C1      NOp   1
                         Standard orientation:                         
 ---------------------------------------------------------------------
 Center     Atomic      Atomic             Coordinates (Angstroms)
 Number     Number       Type             X           Y           Z
 ---------------------------------------------------------------------
      1          6           0        1.721316    0.000001    0.000000
      2          6           0        1.129238   -1.243799    0.000000
      3          6           0       -0.293844   -1.241759    0.000000
      4          6           0       -0.990696   -0.000001    0.000000
      5          6           0       -0.293844    1.241759    0.000000
      6          6           0        1.129236    1.243799    0.000000
      7         17           0        2.048514    2.644886    0.000000
      8         17           0       -2.671880   -0.000000    0.000000
      9         17           0       -1.136353    2.693427    0.000000
     10         17           0        2.048516   -2.644886    0.000000
     11         17           0       -1.136353   -2.693427    0.000000
 ---------------------------------------------------------------------
 Rotational constants (GHZ):           0.7083640           0.4719876           0.2832538
 Standard basis: VSTO-6G (5D, 7F)
 There are    33 symmetry adapted cartesian basis functions of A'  symmetry.
 There are    11 symmetry adapted cartesian basis functions of A"  symmetry.
 There are    33 symmetry adapted basis functions of A'  symmetry.
 There are    11 symmetry adapted basis functions of A"  symmetry.
    44 basis functions,   264 primitive gaussians,    44 cartesian basis functions
    30 alpha electrons       29 beta electrons
       nuclear repulsion energy       353.3624636037 Hartrees.
 Integral buffers will be    131072 words long.
 Regular integral format.
 Two-electron integral symmetry is turned off.
 Do NDO integrals.
 One-electron integrals computed using PRISM.
 NBasis=    44 RedAO= T EigKep=  1.00D+00  NBF=    33    11
 NBsUse=    44 1.00D-06 EigRej= -1.00D+00 NBFU=    33    11
 Initial guess from the checkpoint file:  "geometry_chks/1_3456ClBzNeutralRadical.chk"
 B after Tr=    -0.000000   -0.000000    0.000000
         Rot=    0.707107   -0.000000    0.000000    0.707107 Ang=  90.00 deg.
 Initial guess orbital symmetries:
 Alpha Orbitals:
       Occupied  (A') (A') (A') (A') (A') (A') (A') (A') (A') (A')
                 (A') (A') (A') (A') (A") (A') (A') (A") (A") (A')
                 (A") (A") (A') (A') (A') (A') (A") (A') (A") (A")
       Virtual   (A") (A") (A') (A') (A') (A') (A') (A") (A') (A')
                 (A') (A') (A') (A')
 Beta  Orbitals:
       Occupied  (A') (A') (A') (A') (A') (A') (A') (A') (A') (A')
                 (A') (A') (A') (A') (A") (A') (A') (A") (A") (A")
                 (A") (A') (A') (A') (A') (A') (A") (A") (A")
       Virtual   (A') (A") (A") (A') (A') (A') (A') (A') (A") (A')
                 (A') (A') (A') (A') (A')
 Initial guess <Sx>= 0.0000 <Sy>= 0.0000 <Sz>= 0.5000 <S**2>= 1.3294 S= 0.7568
 Keep J ints in memory in canonical form, NReq=865421.
 Overlap will be assumed to be unity.
 Requested convergence on RMS density matrix=1.00D-08 within**** cycles.
 Requested convergence on MAX density matrix=1.00D-06.
 Requested convergence on             energy=1.00D-06.
 No special actions if energy rises.
 Fock symm off for IB=2 I1=    1 I=   34 J=   24 Cut=1.00D-07 Err=1.60D-03
 Fock matrix is not symmetric: symmetry in diagonalization turned off.
 SCF Done:  E(UAM1) =  0.759775137965E-01 A.U. after   16 cycles
            NFock= 15  Conv=0.65D-08     -V/T= 1.0005
 <Sx>= 0.0000 <Sy>= 0.0000 <Sz>= 0.5000 <S**2>= 1.4545 S= 0.8056
 <L.S>=  0.00000000000    
 Annihilation of the first spin contaminant:
 S**2 before annihilation     1.4545,   after     1.2160
 Calling FoFJK, ICntrl=      2127 FMM=F ISym2X=1 I1Cent= 0 IOpClX= 1 NMat=1 NMatS=1 NMatT=0.
 ***** Axes restored to original set *****
 -------------------------------------------------------------------
 Center     Atomic                   Forces (Hartrees/Bohr)
 Number     Number              X              Y              Z
 -------------------------------------------------------------------
      1        6           0.007013313   -0.003795752    0.000000000
      2        6          -0.002177483   -0.004308050   -0.000000000
      3        6          -0.005268168   -0.007217952    0.000000000
      4        6          -0.011003365    0.005955695    0.000000000
      5        6           0.003164242    0.008357274    0.000000000
      6        6           0.002414861    0.004178940   -0.000000000
      7       17          -0.000270442   -0.001206684   -0.000000000
      8       17           0.003666895   -0.001984874   -0.000000000
      9       17          -0.000421919   -0.002687918   -0.000000000
     10       17           0.000862470    0.000886304   -0.000000000
     11       17           0.002019596    0.001823019   -0.000000000
 -------------------------------------------------------------------
 Cartesian Forces:  Max     0.011003365 RMS     0.003740413

 GradGradGradGradGradGradGradGradGradGradGradGradGradGradGradGradGradGrad
 Berny optimization.
 Using GEDIIS/GDIIS optimizer.
 FormGI is forming the generalized inverse of G from B-inverse, IUseBI=4.
 Internal  Forces:  Max     0.007112407 RMS     0.002316365
 Search for a local minimum.
 Step number   3 out of a maximum of   57
 All quantities printed in internal units (Hartrees-Bohrs-Radians)
 Mixed Optimization -- RFO/linear search
 Update second derivatives using D2CorX and points    1    2    3
 DE= -2.79D-03 DEPred=-3.71D-03 R= 7.53D-01
 TightC=F SS=  1.41D+00  RLast= 1.70D-01 DXNew= 8.4853D-01 5.1035D-01
 Trust test= 7.53D-01 RLast= 1.70D-01 DXMaxT set to 5.10D-01
 ITU=  1  1  0
 Use linear search instead of GDIIS.
     Eigenvalues ---    0.02011   0.02011   0.02011   0.02011   0.02011
     Eigenvalues ---    0.02011   0.02011   0.02011   0.19110   0.25000
     Eigenvalues ---    0.25000   0.25000   0.25000   0.25000   0.25000
     Eigenvalues ---    0.25167   0.28710   0.29033   0.29034   0.29034
     Eigenvalues ---    0.32604   0.41295   0.41468   0.44623   0.44656
     Eigenvalues ---    0.44657   0.62613
 RFO step:  Lambda=-3.10544281D-04 EMin= 2.01065777D-02
 Quartic linear search produced a step of -0.15704.
 Iteration  1 RMS(Cart)=  0.00467898 RMS(Int)=  0.00001934
 Iteration  2 RMS(Cart)=  0.00001296 RMS(Int)=  0.00001720
 Iteration  3 RMS(Cart)=  0.00000000 RMS(Int)=  0.00001720
 ClnCor:  largest displacement from symmetrization is 4.91D-12 for atom    11.
 Variable       Old X    -DE/DX   Delta X   Delta X   Delta X     New X
                                 (Linear)    (Quad)   (Total)
    R1        2.60316  -0.00543  -0.00152  -0.00732  -0.00887   2.59429
    R2        2.60316  -0.00543  -0.00152  -0.00732  -0.00887   2.59429
    R3        2.68924  -0.00446  -0.00687  -0.00005  -0.00692   2.68232
    R4        3.16670   0.00081   0.00816  -0.00551   0.00266   3.16935
    R5        2.69083  -0.00711  -0.00547  -0.00714  -0.01259   2.67824
    R6        3.17179   0.00267   0.00752   0.00077   0.00829   3.18008
    R7        2.69083  -0.00711  -0.00547  -0.00714  -0.01259   2.67824
    R8        3.17698   0.00417   0.00675   0.00611   0.01286   3.18984
    R9        2.68923  -0.00446  -0.00687  -0.00004  -0.00691   2.68232
   R10        3.17179   0.00267   0.00752   0.00077   0.00829   3.18008
   R11        3.16670   0.00081   0.00816  -0.00551   0.00265   3.16935
    A1        2.25302   0.00141  -0.01140   0.01781   0.00635   2.25937
    A2        2.01365  -0.00125   0.00632  -0.01111  -0.00481   2.00883
    A3        2.11665   0.00211  -0.00233   0.00983   0.00752   2.12416
    A4        2.15289  -0.00085  -0.00400   0.00128  -0.00270   2.15019
    A5        2.08362   0.00007   0.00054  -0.00055   0.00002   2.08364
    A6        2.09523  -0.00083   0.00026  -0.00308  -0.00284   2.09239
    A7        2.10434   0.00076  -0.00080   0.00363   0.00281   2.10715
    A8        2.11882   0.00096  -0.00234   0.00552   0.00323   2.12205
    A9        2.08218  -0.00048   0.00117  -0.00276  -0.00161   2.08057
   A10        2.08218  -0.00048   0.00117  -0.00276  -0.00161   2.08057
   A11        2.08362   0.00007   0.00054  -0.00055   0.00002   2.08364
   A12        2.10434   0.00076  -0.00081   0.00363   0.00281   2.10715
   A13        2.09523  -0.00083   0.00026  -0.00308  -0.00284   2.09239
   A14        2.01365  -0.00125   0.00632  -0.01112  -0.00481   2.00883
   A15        2.11664   0.00211  -0.00233   0.00983   0.00752   2.12416
   A16        2.15289  -0.00085  -0.00400   0.00128  -0.00270   2.15019
    D1        0.00000  -0.00000   0.00000  -0.00000   0.00000   0.00000
    D2        3.14159  -0.00000   0.00000  -0.00000   0.00000   3.14159
    D3        0.00000   0.00000   0.00000   0.00000   0.00000   0.00000
    D4        3.14159   0.00000   0.00000   0.00000   0.00000   3.14159
    D5        0.00000   0.00000   0.00000   0.00000   0.00000   0.00000
    D6        3.14159  -0.00000   0.00000  -0.00000   0.00000   3.14159
    D7        3.14159   0.00000   0.00000   0.00000   0.00000   3.14159
    D8        0.00000  -0.00000   0.00000  -0.00000   0.00000   0.00000
    D9        0.00000   0.00000   0.00000   0.00000   0.00000   0.00000
   D10        3.14159  -0.00000   0.00000  -0.00000   0.00000   3.14159
   D11        3.14159   0.00000   0.00000   0.00000   0.00000   3.14159
   D12        0.00000  -0.00000   0.00000  -0.00000   0.00000   0.00000
   D13        0.00000  -0.00000   0.00000  -0.00000   0.00000   0.00000
   D14        3.14159  -0.00000   0.00000  -0.00000   0.00000   3.14159
   D15        3.14159   0.00000   0.00000   0.00000   0.00000   3.14159
   D16        0.00000   0.00000   0.00000   0.00000   0.00000   0.00000
   D17        0.00000   0.00000   0.00000   0.00000   0.00000   0.00000
   D18        3.14159  -0.00000   0.00000  -0.00000   0.00000   3.14159
   D19        3.14159   0.00000   0.00000   0.00000   0.00000   3.14159
   D20        0.00000   0.00000   0.00000   0.00000   0.00000   0.00000
         Item               Value     Threshold  Converged?
 Maximum Force            0.007112     0.000450     NO 
 RMS     Force            0.002316     0.000300     NO 
 Maximum Displacement     0.013591     0.001800     NO 
 RMS     Displacement     0.004681     0.001200     NO 
 Predicted change in Energy=-2.541716D-04
 GradGradGradGradGradGradGradGradGradGradGradGradGradGradGradGradGradGrad

                          Input orientation:                          
 ---------------------------------------------------------------------
 Center     Atomic      Atomic             Coordinates (Angstroms)
 Number     Number       Type             X           Y           Z
 ---------------------------------------------------------------------
      1          6           0       -3.103002    0.141903    0.000000
      2          6           0       -1.996589    0.954639    0.000000
      3          6           0       -0.750389    0.275119    0.000000
      4          6           0       -0.731060   -1.142015    0.000000
      5          6           0       -1.928151   -1.900708    0.000000
      6          6           0       -3.178503   -1.228860    0.000000
      7         17           0       -4.651673   -2.030484    0.000000
      8         17           0        0.753409   -1.945549    0.000000
      9         17           0       -1.880146   -3.582849    0.000000
     10         17           0       -2.130930    2.626399    0.000000
     11         17           0        0.684263    1.154706    0.000000
 ---------------------------------------------------------------------
                    Distance matrix (angstroms):
                    1          2          3          4          5
     1  C    0.000000
     2  C    1.372840   0.000000
     3  C    2.356381   1.419422   0.000000
     4  C    2.697138   2.448984   1.417266   0.000000
     5  C    2.356381   2.856167   2.474136   1.417266   0.000000
     6  C    1.372840   2.482859   2.856167   2.448983   1.419422
     7  Cl   2.667891   3.995051   4.531646   4.020022   2.726611
     8  Cl   4.385129   3.996696   2.681935   1.687991   2.681935
     9  Cl   3.920351   4.538982   4.019983   2.697789   1.682825
    10  Cl   2.667892   1.677149   2.726611   4.020022   4.531646
    11  Cl   3.920350   2.688307   1.682825   2.697789   4.019983
                    6          7          8          9         10
     6  C    0.000000
     7  Cl   1.677149   0.000000
     8  Cl   3.996695   5.405748   0.000000
     9  Cl   2.688307   3.176665   3.101025   0.000000
    10  Cl   3.995051   5.295347   5.405748   6.214310   0.000000
    11  Cl   4.538981   6.214310   3.101026   5.387079   3.176663
                   11
    11  Cl   0.000000
 Stoichiometry    C6Cl5(2)
 Framework group  CS[SG(C6Cl5)]
 Deg. of freedom    19
 Full point group                 CS      NOp   2
 Largest Abelian subgroup         CS      NOp   2
 Largest concise Abelian subgroup C1      NOp   1
                         Standard orientation:                         
 ---------------------------------------------------------------------
 Center     Atomic      Atomic             Coordinates (Angstroms)
 Number     Number       Type             X           Y           Z
 ---------------------------------------------------------------------
      1          6           0        0.000000    1.715151   -0.000000
      2          6           0        1.241430    1.129025   -0.000000
      3          6           0        1.237068   -0.290391   -0.000000
      4          6           0       -0.000000   -0.981987    0.000000
      5          6           0       -1.237068   -0.290391    0.000000
      6          6           0       -1.241430    1.129025    0.000000
      7         17           0       -2.647673    2.042976    0.000000
      8         17           0       -0.000000   -2.669979    0.000000
      9         17           0       -2.693539   -1.133357    0.000000
     10         17           0        2.647674    2.042976   -0.000000
     11         17           0        2.693539   -1.133356   -0.000000
 ---------------------------------------------------------------------
 Rotational constants (GHZ):           0.7112914           0.4716996           0.2836166
 Standard basis: VSTO-6G (5D, 7F)
 There are    33 symmetry adapted cartesian basis functions of A'  symmetry.
 There are    11 symmetry adapted cartesian basis functions of A"  symmetry.
 There are    33 symmetry adapted basis functions of A'  symmetry.
 There are    11 symmetry adapted basis functions of A"  symmetry.
    44 basis functions,   264 primitive gaussians,    44 cartesian basis functions
    30 alpha electrons       29 beta electrons
       nuclear repulsion energy       353.5643340460 Hartrees.
 Integral buffers will be    131072 words long.
 Regular integral format.
 Two-electron integral symmetry is turned off.
 Do NDO integrals.
 One-electron integrals computed using PRISM.
 NBasis=    44 RedAO= T EigKep=  1.00D+00  NBF=    33    11
 NBsUse=    44 1.00D-06 EigRej= -1.00D+00 NBFU=    33    11
 Initial guess from the checkpoint file:  "geometry_chks/1_3456ClBzNeutralRadical.chk"
 B after Tr=     0.000000   -0.000000   -0.000000
         Rot=    0.707107    0.000000   -0.000000   -0.707107 Ang= -90.00 deg.
 Initial guess orbital symmetries:
 Alpha Orbitals:
       Occupied  (A') (A') (A') (A') (A') (A') (A') (A') (A') (A')
                 (A') (A') (A') (A') (A") (A') (A') (A") (A") (A")
                 (A') (A") (A') (A') (A') (A') (A") (A') (A") (A")
       Virtual   (A") (A") (A') (A') (A') (A') (A') (A") (A') (A')
                 (A') (A') (A') (A')
 Beta  Orbitals:
       Occupied  (A') (A') (A') (A') (A') (A') (A') (A') (A') (A')
                 (A') (A') (A') (A') (A") (A') (A') (A") (A") (A")
                 (A") (A') (A') (A') (A') (A') (A") (A") (A")
       Virtual   (A') (A") (A") (A') (A') (A') (A') (A') (A") (A')
                 (A') (A') (A') (A') (A')
 Initial guess <Sx>= 0.0000 <Sy>= 0.0000 <Sz>= 0.5000 <S**2>= 1.4545 S= 0.8056
 Keep J ints in memory in canonical form, NReq=865421.
 Overlap will be assumed to be unity.
 Requested convergence on RMS density matrix=1.00D-08 within**** cycles.
 Requested convergence on MAX density matrix=1.00D-06.
 Requested convergence on             energy=1.00D-06.
 No special actions if energy rises.
 Fock symm off for IB=2 I1=    1 I=   34 J=   16 Cut=1.00D-07 Err=4.11D-04
 Fock matrix is not symmetric: symmetry in diagonalization turned off.
 SCF Done:  E(UAM1) =  0.757058537050E-01 A.U. after   14 cycles
            NFock= 13  Conv=0.73D-08     -V/T= 1.0005
 <Sx>= 0.0000 <Sy>= 0.0000 <Sz>= 0.5000 <S**2>= 1.4182 S= 0.7916
 <L.S>=  0.00000000000    
 Annihilation of the first spin contaminant:
 S**2 before annihilation     1.4182,   after     1.1636
 Calling FoFJK, ICntrl=      2127 FMM=F ISym2X=1 I1Cent= 0 IOpClX= 1 NMat=1 NMatS=1 NMatT=0.
 ***** Axes restored to original set *****
 -------------------------------------------------------------------
 Center     Atomic                   Forces (Hartrees/Bohr)
 Number     Number              X              Y              Z
 -------------------------------------------------------------------
      1        6           0.000227097   -0.000123039    0.000000000
      2        6          -0.001173306    0.001143987    0.000000000
      3        6           0.000836776   -0.001677108    0.000000000
      4        6          -0.001885478    0.001020502    0.000000000
      5        6           0.001861923    0.000216502    0.000000000
      6        6          -0.001599756    0.000356938   -0.000000000
      7       17          -0.000017481   -0.000328274   -0.000000000
      8       17           0.001068494   -0.000578321   -0.000000000
      9       17          -0.000131941   -0.000741145   -0.000000000
     10       17           0.000265224    0.000194286   -0.000000000
     11       17           0.000548447    0.000515671   -0.000000000
 -------------------------------------------------------------------
 Cartesian Forces:  Max     0.001885478 RMS     0.000776304

 GradGradGradGradGradGradGradGradGradGradGradGradGradGradGradGradGradGrad
 Berny optimization.
 Using GEDIIS/GDIIS optimizer.
 FormGI is forming the generalized inverse of G from B-inverse, IUseBI=4.
 Internal  Forces:  Max     0.001307035 RMS     0.000424795
 Search for a local minimum.
 Step number   4 out of a maximum of   57
 All quantities printed in internal units (Hartrees-Bohrs-Radians)
 Mixed Optimization -- En-DIIS/RFO-DIIS
 Update second derivatives using D2CorX and points    1    2    3    4
 DE= -2.72D-04 DEPred=-2.54D-04 R= 1.07D+00
 TightC=F SS=  1.41D+00  RLast= 3.39D-02 DXNew= 8.5831D-01 1.0167D-01
 Trust test= 1.07D+00 RLast= 3.39D-02 DXMaxT set to 5.10D-01
 ITU=  1  1  1  0
 Use linear search instead of GDIIS.
     Eigenvalues ---    0.02011   0.02011   0.02011   0.02011   0.02011
[...]
    R6        3.18233  -0.00006   0.00048  -0.00074  -0.00026   3.18207
    R7        2.67639  -0.00001  -0.00040   0.00017  -0.00022   2.67617
    R8        3.19402   0.00010   0.00089  -0.00035   0.00055   3.19457
    R9        2.68485   0.00025   0.00054   0.00017   0.00071   2.68556
   R10        3.18233  -0.00006   0.00048  -0.00074  -0.00026   3.18207
   R11        3.16930  -0.00006  -0.00001  -0.00043  -0.00044   3.16886
    A1        2.26099   0.00004   0.00035   0.00025   0.00060   2.26158
    A2        2.00734  -0.00003  -0.00032  -0.00004  -0.00036   2.00697
    A3        2.12693   0.00014   0.00059   0.00031   0.00090   2.12783
    A4        2.14892  -0.00011  -0.00027  -0.00026  -0.00054   2.14838
    A5        2.08359  -0.00003  -0.00001  -0.00018  -0.00019   2.08341
    A6        2.09126  -0.00008  -0.00024  -0.00018  -0.00042   2.09084
    A7        2.10833   0.00011   0.00025   0.00036   0.00061   2.10894
    A8        2.12353   0.00009   0.00032   0.00019   0.00050   2.12403
    A9        2.07983  -0.00004  -0.00016  -0.00009  -0.00025   2.07958
   A10        2.07983  -0.00004  -0.00016  -0.00009  -0.00025   2.07958
   A11        2.08359  -0.00003  -0.00001  -0.00018  -0.00019   2.08341
   A12        2.10833   0.00011   0.00025   0.00036   0.00061   2.10894
   A13        2.09126  -0.00008  -0.00024  -0.00018  -0.00042   2.09084
   A14        2.00734  -0.00003  -0.00032  -0.00004  -0.00036   2.00697
   A15        2.12693   0.00014   0.00059   0.00031   0.00090   2.12783
   A16        2.14892  -0.00011  -0.00027  -0.00026  -0.00054   2.14838
    D1        0.00000   0.00000   0.00000   0.00000   0.00000   0.00000
    D2        3.14159  -0.00000   0.00000  -0.00000   0.00000   3.14159
    D3        0.00000   0.00000   0.00000   0.00000   0.00000   0.00000
    D4        3.14159   0.00000   0.00000   0.00000   0.00000   3.14159
    D5        0.00000  -0.00000   0.00000  -0.00000   0.00000   0.00000
    D6        3.14159  -0.00000   0.00000  -0.00000   0.00000   3.14159
    D7        3.14159   0.00000   0.00000   0.00000   0.00000   3.14159
    D8        0.00000   0.00000   0.00000   0.00000   0.00000   0.00000
    D9        0.00000   0.00000   0.00000   0.00000   0.00000   0.00000
   D10        3.14159  -0.00000   0.00000  -0.00000   0.00000   3.14159
   D11        3.14159   0.00000   0.00000   0.00000   0.00000   3.14159
   D12        0.00000   0.00000   0.00000   0.00000   0.00000   0.00000
   D13        0.00000  -0.00000   0.00000  -0.00000   0.00000   0.00000
   D14        3.14159  -0.00000   0.00000  -0.00000   0.00000   3.14159
   D15        3.14159   0.00000   0.00000   0.00000   0.00000   3.14159
   D16        0.00000   0.00000   0.00000   0.00000   0.00000   0.00000
   D17        0.00000  -0.00000   0.00000  -0.00000   0.00000   0.00000
   D18        3.14159  -0.00000   0.00000  -0.00000   0.00000   3.14159
   D19        3.14159   0.00000   0.00000   0.00000   0.00000   3.14159
   D20        0.00000  -0.00000   0.00000  -0.00000   0.00000   0.00000
         Item               Value     Threshold  Converged?
 Maximum Force            0.000254     0.000450     YES
 RMS     Force            0.000077     0.000300     YES
 Maximum Displacement     0.001634     0.001800     YES
 RMS     Displacement     0.000429     0.001200     YES
 Predicted change in Energy=-6.034135D-07
 Optimization completed.
    -- Stationary point found.
                           ----------------------------
                           !   Optimized Parameters   !
                           ! (Angstroms and Degrees)  !
 --------------------------                            --------------------------
 ! Name  Definition              Value          Derivative Info.                !
 --------------------------------------------------------------------------------
 ! R1    R(1,2)                  1.373          -DE/DX =    0.0001              !
 ! R2    R(1,6)                  1.373          -DE/DX =    0.0001              !
 ! R3    R(2,3)                  1.4208         -DE/DX =    0.0003              !
 ! R4    R(2,10)                 1.6771         -DE/DX =   -0.0001              !
 ! R5    R(3,4)                  1.4163         -DE/DX =    0.0                 !
 ! R6    R(3,11)                 1.684          -DE/DX =   -0.0001              !
 ! R7    R(4,5)                  1.4163         -DE/DX =    0.0                 !
 ! R8    R(4,8)                  1.6902         -DE/DX =    0.0001              !
 ! R9    R(5,6)                  1.4208         -DE/DX =    0.0003              !
 ! R10   R(5,9)                  1.684          -DE/DX =   -0.0001              !
 ! R11   R(6,7)                  1.6771         -DE/DX =   -0.0001              !
 ! A1    A(2,1,6)              129.5451         -DE/DX =    0.0                 !
 ! A2    A(1,2,3)              115.0119         -DE/DX =    0.0                 !
 ! A3    A(1,2,10)             121.8641         -DE/DX =    0.0001              !
 ! A4    A(3,2,10)             123.124          -DE/DX =   -0.0001              !
 ! A5    A(2,3,4)              119.381          -DE/DX =    0.0                 !
 ! A6    A(2,3,11)             119.8204         -DE/DX =   -0.0001              !
 ! A7    A(4,3,11)             120.7986         -DE/DX =    0.0001              !
 ! A8    A(3,4,5)              121.6691         -DE/DX =    0.0001              !
 ! A9    A(3,4,8)              119.1654         -DE/DX =    0.0                 !
 ! A10   A(5,4,8)              119.1654         -DE/DX =    0.0                 !
 ! A11   A(4,5,6)              119.381          -DE/DX =    0.0                 !
 ! A12   A(4,5,9)              120.7986         -DE/DX =    0.0001              !
 ! A13   A(6,5,9)              119.8204         -DE/DX =   -0.0001              !
 ! A14   A(1,6,5)              115.0119         -DE/DX =    0.0                 !
 ! A15   A(1,6,7)              121.864          -DE/DX =    0.0001              !
 ! A16   A(5,6,7)              123.124          -DE/DX =   -0.0001              !
 ! D1    D(6,1,2,3)              0.0            -DE/DX =    0.0                 !
 ! D2    D(6,1,2,10)           180.0            -DE/DX =    0.0                 !
 ! D3    D(2,1,6,5)              0.0            -DE/DX =    0.0                 !
 ! D4    D(2,1,6,7)            180.0            -DE/DX =    0.0                 !
 ! D5    D(1,2,3,4)              0.0            -DE/DX =    0.0                 !
 ! D6    D(1,2,3,11)           180.0            -DE/DX =    0.0                 !
 ! D7    D(10,2,3,4)           180.0            -DE/DX =    0.0                 !
 ! D8    D(10,2,3,11)            0.0            -DE/DX =    0.0                 !
 ! D9    D(2,3,4,5)              0.0            -DE/DX =    0.0                 !
 ! D10   D(2,3,4,8)            180.0            -DE/DX =    0.0                 !
 ! D11   D(11,3,4,5)           180.0            -DE/DX =    0.0                 !
 ! D12   D(11,3,4,8)             0.0            -DE/DX =    0.0                 !
 ! D13   D(3,4,5,6)              0.0            -DE/DX =    0.0                 !
 ! D14   D(3,4,5,9)            180.0            -DE/DX =    0.0                 !
 ! D15   D(8,4,5,6)            180.0            -DE/DX =    0.0                 !
 ! D16   D(8,4,5,9)              0.0            -DE/DX =    0.0                 !
 ! D17   D(4,5,6,1)              0.0            -DE/DX =    0.0                 !
 ! D18   D(4,5,6,7)            180.0            -DE/DX =    0.0                 !
 ! D19   D(9,5,6,1)            180.0            -DE/DX =    0.0                 !
 ! D20   D(9,5,6,7)              0.0            -DE/DX =    0.0                 !
 --------------------------------------------------------------------------------
 GradGradGradGradGradGradGradGradGradGradGradGradGradGradGradGradGradGrad

                          Input orientation:                          
 ---------------------------------------------------------------------
 Center     Atomic      Atomic             Coordinates (Angstroms)
 Number     Number       Type             X           Y           Z
 ---------------------------------------------------------------------
      1          6           0       -3.103293    0.142060    0.000000
      2          6           0       -1.997389    0.955800    0.000000
      3          6           0       -0.750484    0.274780    0.000000
      4          6           0       -0.732217   -1.141389    0.000000
      5          6           0       -1.927920   -1.900444    0.000000
      6          6           0       -3.179913   -1.228825    0.000000
      7         17           0       -4.651481   -2.033320    0.000000
      8         17           0        0.754198   -1.945976    0.000000
      9         17           0       -1.880618   -3.583794    0.000000
     10         17           0       -2.128451    2.627789    0.000000
     11         17           0        0.684797    1.155618    0.000000
 ---------------------------------------------------------------------
                    Distance matrix (angstroms):
                    1          2          3          4          5
     1  C    0.000000
     2  C    1.373025   0.000000
     3  C    2.356549   1.420760   0.000000
     4  C    2.696154   2.449257   1.416287   0.000000
     5  C    2.356549   2.857088   2.473449   1.416287   0.000000
     6  C    1.373025   2.484139   2.857088   2.449257   1.420760
     7  Cl   2.670050   3.997380   4.532671   4.019475   2.726801
     8  Cl   4.386358   3.998941   2.682504   1.690204   2.682504
     9  Cl   3.921342   4.541096   4.020672   2.698920   1.684015
    10  Cl   2.670050   1.677119   2.726801   4.019475   4.532671
    11  Cl   3.921342   2.689618   1.684015   2.698920   4.020672
                    6          7          8          9         10
     6  C    0.000000
     7  Cl   1.677119   0.000000
     8  Cl   3.998941   5.406385   0.000000
     9  Cl   2.689618   3.175162   3.102371   0.000000
    10  Cl   3.997380   5.300153   5.406385   6.216526   0.000000
    11  Cl   4.541095   6.216526   3.102371   5.389192   3.175161
                   11
    11  Cl   0.000000
 Stoichiometry    C6Cl5(2)
 Framework group  CS[SG(C6Cl5)]
 Deg. of freedom    19
 Full point group                 CS      NOp   2
 Largest Abelian subgroup         CS      NOp   2
 Largest concise Abelian subgroup C1      NOp   1
                         Standard orientation:                         
 ---------------------------------------------------------------------
 Center     Atomic      Atomic             Coordinates (Angstroms)
 Number     Number       Type             X           Y           Z
 ---------------------------------------------------------------------
      1          6           0       -0.000000    1.715846    0.000000
      2          6           0        1.242070    1.130645    0.000000
      3          6           0        1.236725   -0.290105    0.000000
      4          6           0       -0.000000   -0.980308    0.000000
      5          6           0       -1.236725   -0.290105    0.000000
      6          6           0       -1.242070    1.130645    0.000000
      7         17           0       -2.650077    2.041822    0.000000
      8         17           0        0.000000   -2.670512    0.000000
      9         17           0       -2.694596   -1.133028    0.000000
     10         17           0        2.650077    2.041821    0.000000
     11         17           0        2.694596   -1.133028    0.000000
 ---------------------------------------------------------------------
 Rotational constants (GHZ):           0.7115010           0.4711252           0.2834421

 **********************************************************************

            Population analysis using the SCF Density.

 **********************************************************************

 Orbital symmetries:
 Alpha Orbitals:
       Occupied  (A') (A') (A') (A') (A') (A') (A') (A') (A') (A')
                 (A') (A') (A') (A') (A") (A') (A') (A") (A") (A")
                 (A') (A") (A') (A') (A') (A') (A") (A') (A") (A")
       Virtual   (A") (A") (A') (A') (A') (A') (A') (A") (A') (A')
                 (A') (A') (A') (A')
 Beta  Orbitals:
       Occupied  (A') (A') (A') (A') (A') (A') (A') (A') (A') (A')
                 (A') (A') (A') (A') (A") (A') (A') (A") (A") (A")
                 (A") (A') (A') (A') (A') (A') (A") (A") (A")
       Virtual   (A') (A") (A") (A') (A') (A') (A') (A') (A") (A')
                 (A') (A') (A') (A') (A')
 The electronic state is 2-A'.
 Alpha  occ. eigenvalues --   -1.49814  -1.43075  -1.41957  -1.40948  -1.40212
 Alpha  occ. eigenvalues --   -1.37637  -1.17284  -1.15835  -0.91592  -0.89486
 Alpha  occ. eigenvalues --   -0.71839  -0.67907  -0.66755  -0.61764  -0.60270
 Alpha  occ. eigenvalues --   -0.57958  -0.54871  -0.53617  -0.51701  -0.48780
 Alpha  occ. eigenvalues --   -0.48332  -0.48084  -0.46546  -0.46267  -0.45469
 Alpha  occ. eigenvalues --   -0.44661  -0.43637  -0.42022  -0.38584  -0.37169
 Alpha virt. eigenvalues --   -0.02748  -0.02183   0.00944   0.01774   0.02220
 Alpha virt. eigenvalues --    0.04050   0.04163   0.05054   0.10953   0.11104
 Alpha virt. eigenvalues --    0.12105   0.13174   0.14494   0.14855
  Beta  occ. eigenvalues --   -1.49265  -1.43020  -1.42055  -1.40857  -1.40145
  Beta  occ. eigenvalues --   -1.37157  -1.17081  -1.14404  -0.91274  -0.87331
  Beta  occ. eigenvalues --   -0.71886  -0.67504  -0.65254  -0.61595  -0.60094
  Beta  occ. eigenvalues --   -0.57429  -0.54543  -0.53606  -0.52521  -0.48750
  Beta  occ. eigenvalues --   -0.48003  -0.46934  -0.46432  -0.46156  -0.45291
  Beta  occ. eigenvalues --   -0.44619  -0.43116  -0.37693  -0.37137
  Beta virt. eigenvalues --   -0.03126  -0.02757  -0.00700   0.00616   0.02162
  Beta virt. eigenvalues --    0.02322   0.04077   0.04398   0.06077   0.11531
  Beta virt. eigenvalues --    0.11546   0.13051   0.13330   0.14895   0.16902
          Condensed to atoms (all electrons):
               1          2          3          4          5          6
     1  C    4.028436   0.000000   0.000000   0.000000   0.000000   0.000000
     2  C    0.000000   4.048050   0.000000   0.000000   0.000000   0.000000
     3  C    0.000000   0.000000   4.060456   0.000000   0.000000   0.000000
     4  C    0.000000   0.000000   0.000000   4.064275   0.000000   0.000000
     5  C    0.000000   0.000000   0.000000   0.000000   4.060456   0.000000
     6  C    0.000000   0.000000   0.000000   0.000000   0.000000   4.048050
     7  Cl   0.000000   0.000000   0.000000   0.000000   0.000000   0.000000
     8  Cl   0.000000   0.000000   0.000000   0.000000   0.000000   0.000000
     9  Cl   0.000000   0.000000   0.000000   0.000000   0.000000   0.000000
    10  Cl   0.000000   0.000000   0.000000   0.000000   0.000000   0.000000
    11  Cl   0.000000   0.000000   0.000000   0.000000   0.000000   0.000000
               7          8          9         10         11
     1  C    0.000000   0.000000   0.000000   0.000000   0.000000
     2  C    0.000000   0.000000   0.000000   0.000000   0.000000
     3  C    0.000000   0.000000   0.000000   0.000000   0.000000
     4  C    0.000000   0.000000   0.000000   0.000000   0.000000
     5  C    0.000000   0.000000   0.000000   0.000000   0.000000
     6  C    0.000000   0.000000   0.000000   0.000000   0.000000
     7  Cl   6.929535   0.000000   0.000000   0.000000   0.000000
     8  Cl   0.000000   6.948401   0.000000   0.000000   0.000000
     9  Cl   0.000000   0.000000   6.941403   0.000000   0.000000
    10  Cl   0.000000   0.000000   0.000000   6.929534   0.000000
    11  Cl   0.000000   0.000000   0.000000   0.000000   6.941403
          Atomic-Atomic Spin Densities.
               1          2          3          4          5          6
     1  C    1.444965   0.000000   0.000000   0.000000   0.000000   0.000000
     2  C    0.000000  -0.530383   0.000000   0.000000   0.000000   0.000000
     3  C    0.000000   0.000000   0.549960   0.000000   0.000000   0.000000
     4  C    0.000000   0.000000   0.000000  -0.510599   0.000000   0.000000
     5  C    0.000000   0.000000   0.000000   0.000000   0.549960   0.000000
     6  C    0.000000   0.000000   0.000000   0.000000   0.000000  -0.530383
     7  Cl   0.000000   0.000000   0.000000   0.000000   0.000000   0.000000
     8  Cl   0.000000   0.000000   0.000000   0.000000   0.000000   0.000000
     9  Cl   0.000000   0.000000   0.000000   0.000000   0.000000   0.000000
    10  Cl   0.000000   0.000000   0.000000   0.000000   0.000000   0.000000
    11  Cl   0.000000   0.000000   0.000000   0.000000   0.000000   0.000000
               7          8          9         10         11
     1  C    0.000000   0.000000   0.000000   0.000000   0.000000
     2  C    0.000000   0.000000   0.000000   0.000000   0.000000
     3  C    0.000000   0.000000   0.000000   0.000000   0.000000
     4  C    0.000000   0.000000   0.000000   0.000000   0.000000
     5  C    0.000000   0.000000   0.000000   0.000000   0.000000
     6  C    0.000000   0.000000   0.000000   0.000000   0.000000
     7  Cl  -0.002770   0.000000   0.000000   0.000000   0.000000
     8  Cl   0.000000  -0.006531   0.000000   0.000000   0.000000
     9  Cl   0.000000   0.000000   0.019275   0.000000   0.000000
    10  Cl   0.000000   0.000000   0.000000  -0.002770   0.000000
    11  Cl   0.000000   0.000000   0.000000   0.000000   0.019275
 Mulliken charges and spin densities:
               1          2
     1  C   -0.028436   1.444965
     2  C   -0.048050  -0.530383
     3  C   -0.060456   0.549960
     4  C   -0.064275  -0.510599
     5  C   -0.060456   0.549960
     6  C   -0.048050  -0.530383
     7  Cl   0.070465  -0.002770
     8  Cl   0.051599  -0.006531
     9  Cl   0.058597   0.019275
    10  Cl   0.070466  -0.002770
    11  Cl   0.058597   0.019275
 Sum of Mulliken charges =  -0.00000   1.00000
 Mulliken charges and spin densities with hydrogens summed into heavy atoms:
               1          2
     1  C   -0.028436   1.444965
     2  C   -0.048050  -0.530383
     3  C   -0.060456   0.549960
     4  C   -0.064275  -0.510599
     5  C   -0.060456   0.549960
     6  C   -0.048050  -0.530383
     7  Cl   0.070465  -0.002770
     8  Cl   0.051599  -0.006531
     9  Cl   0.058597   0.019275
    10  Cl   0.070466  -0.002770
    11  Cl   0.058597   0.019275
 Charge=             -0.0000 electrons
 Dipole moment (field-independent basis, Debye):
    X=             -0.0000    Y=             -0.2453    Z=              0.0000  Tot=              0.2453
 N-N= 3.535004645856D+02 E-N=-5.059792447093D+02  KE=-1.553180840653D+02
 Symmetry A'   KE=-1.182142961344D+02
 Symmetry A"   KE=-3.710378793086D+01
 Symmetry A'   SP= 1.000000000000D+00
 Symmetry A"   SP=-7.993605777301D-15
 1\1\GINC-SH03-08N43\FOpt\UAM1\ZDO\C6Cl5(2)\JLAPIER\08-Dec-2025\0\\# op
 t am1 SCF(maxcyc=10000)\\Neutral Radical (removed 2) 1_3456\\0,2\C,-3.
 1032930834,0.1420602577,0.\C,-1.9973886398,0.9557997077,0.\C,-0.750484
 2036,0.2747801809,0.\C,-0.7322165887,-1.1413890052,0.\C,-1.9279195623,
 -1.9004435001,0.\C,-3.1799125112,-1.2288248938,0.\Cl,-4.6514812302,-2.
 0333201673,0.\Cl,0.7541979819,-1.9459760524,0.\Cl,-1.8806184403,-3.583
 7943443,0.\Cl,-2.1284505685,2.6277894655,0.\Cl,0.6847968503,1.15561835
 92,0.\\Version=ES64L-G16RevB.01\State=2-A'\HF=0.0756922\S2=1.418717\S2
 -1=0.\S2A=1.164363\RMSD=4.206e-09\RMSF=1.624e-04\Dipole=0.0848662,-0.0
 459375,0.\PG=CS [SG(C6Cl5)]\\@


 CONTRAIWISE...CONTINUED TWEEDLEDEE, IF IT WAS SO, IT MIGHT BE,
 AND IF IT WERE SO, IT WOULD BE.....
 BUT AS IT ISN'T, IT AIN'T....
 THAT'S LOGIC.....
 ALICE THROUGH THE LOOKING GLASS
 Job cpu time:       0 days  0 hours  0 minutes  1.8 seconds.
 Elapsed time:       0 days  0 hours  0 minutes 10.4 seconds.
 File lengths (MBytes):  RWF=     15 Int=      0 D2E=      0 Chk=      2 Scr=      1
 Normal termination of Gaussian 16 at Mon Dec  8 17:08:31 2025.
