 Entering Gaussian System, Link 0=g16
 Initial command:
 /share/software/user/restricted/gaussian/g16.B01/l1.exe "/home/users/jlapier/Chloroaromatics/Gau-3948.inp" -scrdir="/home/users/jlapier/Chloroaromatics/"
 Entering Link 1 = /share/software/user/restricted/gaussian/g16.B01/l1.exe PID=      3949.
  
 Copyright (c) 1988-2017, Gaussian, Inc.  All Rights Reserved.
  
 This is part of the Gaussian(R) 16 program.  It is based on
 the Gaussian(R) 09 system (copyright 2009, Gaussian, Inc.),
 the Gaussian(R) 03 system (copyright 2003, Gaussian, Inc.),
 the Gaussian(R) 98 system (copyright 1998, Gaussian, Inc.),
 the Gaussian(R) 94 system (copyright 1995, Gaussian, Inc.),
 the Gaussian 92(TM) system (copyright 1992, Gaussian, Inc.),
 the Gaussian 90(TM) system (copyright 1990, Gaussian, Inc.),
 the Gaussian 88(TM) system (copyright 1988, Gaussian, Inc.),
 the Gaussian 86(TM) system (copyright 1986, Carnegie Mellon
 University), and the Gaussian 82(TM) system (copyright 1983,
 Carnegie Mellon University). Gaussian is a federally registered
 trademark of Gaussian, Inc.
  
 This software contains proprietary and confidential information,
 including trade secrets, belonging to Gaussian, Inc.
  
 This software is provided under written license and may be
 used, copied, transmitted, or stored only in accord with that
 written license.
  
 The following legend is applicable only to US Government
 contracts under FAR:
  
                    RESTRICTED RIGHTS LEGEND
  
 Use, reproduction and disclosure by the US Government is
 subject to restrictions as set forth in subparagraphs (a)
 and (c) of the Commercial Computer Software - Restricted
 Rights clause in FAR 52.227-19.
  
 Gaussian, Inc.
 340 Quinnipiac St., Bldg. 40, Wallingford CT 06492
  
  
 ---------------------------------------------------------------
 Warning -- This program may not be used in any manner that
 competes with the business of Gaussian, Inc. or will provide
 assistance to any competitor of Gaussian, Inc.  The licensee
 of this program is prohibited from giving any competitor of
 Gaussian, Inc. access to this program.  By using this program,
 the user acknowledges that Gaussian, Inc. is engaged in the
 business of creating and licensing software in the field of
 computational chemistry and represents and warrants to the
 licensee that it is not a competitor of Gaussian, Inc. and that
 it will not use this program in any manner prohibited above.
 ---------------------------------------------------------------
  

 Cite this work as:
 Gaussian 16, Revision B.01,
 M. J. Frisch, G. W. Trucks, H. B. Schlegel, G. E. Scuseria, 
 M. A. Robb, J. R. Cheeseman, G. Scalmani, V. Barone, 
 G. A. Petersson, H. Nakatsuji, X. Li, M. Caricato, A. V. Marenich, 
 J. Bloino, B. G. Janesko, R. Gomperts, B. Mennucci, H. P. Hratchian, 
 J. V. Ortiz, A. F. Izmaylov, J. L. Sonnenberg, D. Williams-Young, 
 F. Ding, F. Lipparini, F. Egidi, J. Goings, B. Peng, A. Petrone, 
 T. Henderson, D. Ranasinghe, V. G. Zakrzewski, J. Gao, N. Rega, 
 G. Zheng, W. Liang, M. Hada, M. Ehara, K. Toyota, R. Fukuda, 
 J. Hasegawa, M. Ishida, T. Nakajima, Y. Honda, O. Kitao, H. Nakai, 
 T. Vreven, K. Throssell, J. A. Montgomery, Jr., J. E. Peralta, 
 F. Ogliaro, M. J. Bearpark, J. J. Heyd, E. N. Brothers, K. N. Kudin, 
 V. N. Staroverov, T. A. Keith, R. Kobayashi, J. Normand, 
 K. Raghavachari, A. P. Rendell, J. C. Burant, S. S. Iyengar, 
 J. Tomasi, M. Cossi, J. M. Millam, M. Klene, C. Adamo, R. Cammi, 
 J. W. Ochterski, R. L. Martin, K. Morokuma, O. Farkas, 
 J. B. Foresman, and D. J. Fox, Gaussian, Inc., Wallingford CT, 2016.
 
 ******************************************
 Gaussian 16:  ES64L-G16RevB.01 20-Dec-2017
                 9-Dec-2025 
 ******************************************
 %mem=2GB
 %nprocshare=1
 Will use up to    1 processors via shared memory.
 %chk=geometry_chks/1_34ClBzNeutralRadical.chk
 -----------------
 # opt am1 SCF=XQC
 -----------------
 1/18=20,19=15,26=1,38=1/1,3;
 2/9=110,12=2,17=6,18=5,40=1/2;
 3/5=2,25=1,41=700000,71=1/1,2,3;
 4/35=1/1;
 5/5=2,8=3,13=1,35=1,38=5/2,8;
 6/7=2,8=2,9=2,10=2,28=1/1;
 7//1,2,3,16;
 1/18=20,19=15,26=1/3(2);
 2/9=110/2;
 99//99;
 2/9=110/2;
 3/5=2,25=1,41=700000,71=1,135=20/1,2,3;
 4/5=5,16=3,35=1/1;
 5/5=2,8=3,13=1,35=1,38=5/2,8;
 7//1,2,3,16;
 1/18=20,19=15,26=1/3(-5);
 2/9=110/2;
 6/7=2,8=2,9=2,10=2,19=2,28=1/1;
 99/9=1/99;
 --------------------------------
 Neutral Radical (removed 2) 1_34
 --------------------------------
 Symbolic Z-matrix:
 Charge =  0 Multiplicity = 2
 C                    -3.20928   0.19943   0. 
 C                    -2.0115    0.93555   0. 
 C                    -0.77511   0.2663    0. 
 C                    -0.7365   -1.13907   0. 
 C                    -1.93429  -1.87519   0. 
 C                    -3.17067  -1.20594   0. 
 Cl                   -4.67483  -2.13035   0. 
 Cl                   -2.05998   2.7004    0. 
 Cl                    0.72905   1.19071   0. 
 H                     0.81614  -1.97951   0. 
 H                    -1.8858   -3.64003   0. 
 
 Add virtual bond connecting atoms H11        and C5         Dist= 3.34D+00.
 Add virtual bond connecting atoms H10        and C4         Dist= 3.34D+00.

 GradGradGradGradGradGradGradGradGradGradGradGradGradGradGradGradGradGrad
 Berny optimization.
 Initialization pass.
                           ----------------------------
                           !    Initial Parameters    !
                           ! (Angstroms and Degrees)  !
 --------------------------                            --------------------------
 ! Name  Definition              Value          Derivative Info.                !
 --------------------------------------------------------------------------------
 ! R1    R(1,2)                  1.4059         estimate D2E/DX2                !
 ! R2    R(1,6)                  1.4059         estimate D2E/DX2                !
 ! R3    R(2,3)                  1.4059         estimate D2E/DX2                !
 ! R4    R(2,8)                  1.7655         estimate D2E/DX2                !
 ! R5    R(3,4)                  1.4059         estimate D2E/DX2                !
 ! R6    R(3,9)                  1.7655         estimate D2E/DX2                !
 ! R7    R(4,5)                  1.4059         estimate D2E/DX2                !
 ! R8    R(4,10)                 1.7655         estimate D2E/DX2                !
 ! R9    R(5,6)                  1.4059         estimate D2E/DX2                !
 ! R10   R(5,11)                 1.7655         estimate D2E/DX2                !
 ! R11   R(6,7)                  1.7655         estimate D2E/DX2                !
 ! A1    A(2,1,6)              119.9999         estimate D2E/DX2                !
 ! A2    A(1,2,3)              120.0            estimate D2E/DX2                !
 ! A3    A(1,2,8)              120.0001         estimate D2E/DX2                !
 ! A4    A(3,2,8)              119.9999         estimate D2E/DX2                !
 ! A5    A(2,3,4)              120.0001         estimate D2E/DX2                !
 ! A6    A(2,3,9)              120.0            estimate D2E/DX2                !
 ! A7    A(4,3,9)              119.9999         estimate D2E/DX2                !
 ! A8    A(3,4,5)              119.9997         estimate D2E/DX2                !
 ! A9    A(3,4,10)             120.0003         estimate D2E/DX2                !
 ! A10   A(5,4,10)             120.0            estimate D2E/DX2                !
 ! A11   A(4,5,6)              120.0            estimate D2E/DX2                !
 ! A12   A(4,5,11)             119.9996         estimate D2E/DX2                !
 ! A13   A(6,5,11)             120.0004         estimate D2E/DX2                !
 ! A14   A(1,6,5)              120.0003         estimate D2E/DX2                !
 ! A15   A(1,6,7)              119.9999         estimate D2E/DX2                !
 ! A16   A(5,6,7)              119.9998         estimate D2E/DX2                !
 ! D1    D(6,1,2,3)              0.0            estimate D2E/DX2                !
 ! D2    D(6,1,2,8)            180.0            estimate D2E/DX2                !
 ! D3    D(2,1,6,5)              0.0            estimate D2E/DX2                !
 ! D4    D(2,1,6,7)            180.0            estimate D2E/DX2                !
 ! D5    D(1,2,3,4)              0.0            estimate D2E/DX2                !
 ! D6    D(1,2,3,9)            180.0            estimate D2E/DX2                !
 ! D7    D(8,2,3,4)            180.0            estimate D2E/DX2                !
 ! D8    D(8,2,3,9)              0.0            estimate D2E/DX2                !
 ! D9    D(2,3,4,5)              0.0            estimate D2E/DX2                !
 ! D10   D(2,3,4,10)           180.0            estimate D2E/DX2                !
 ! D11   D(9,3,4,5)            180.0            estimate D2E/DX2                !
 ! D12   D(9,3,4,10)             0.0            estimate D2E/DX2                !
 ! D13   D(3,4,5,6)              0.0            estimate D2E/DX2                !
 ! D14   D(3,4,5,11)           180.0            estimate D2E/DX2                !
 ! D15   D(10,4,5,6)           180.0            estimate D2E/DX2                !
 ! D16   D(10,4,5,11)            0.0            estimate D2E/DX2                !
 ! D17   D(4,5,6,1)              0.0            estimate D2E/DX2                !
 ! D18   D(4,5,6,7)            180.0            estimate D2E/DX2                !
 ! D19   D(11,5,6,1)           180.0            estimate D2E/DX2                !
 ! D20   D(11,5,6,7)             0.0            estimate D2E/DX2                !
 --------------------------------------------------------------------------------
 Trust Radius=3.00D-01 FncErr=1.00D-07 GrdErr=1.00D-07 EigMax=2.50D+02 EigMin=1.00D-04
 Number of steps in this run=     57 maximum allowed number of steps=    100.
 GradGradGradGradGradGradGradGradGradGradGradGradGradGradGradGradGradGrad

                          Input orientation:                          
 ---------------------------------------------------------------------
 Center     Atomic      Atomic             Coordinates (Angstroms)
 Number     Number       Type             X           Y           Z
 ---------------------------------------------------------------------
      1          6           0       -3.209280    0.199430    0.000000
      2          6           0       -2.011500    0.935550    0.000000
      3          6           0       -0.775110    0.266300    0.000000
      4          6           0       -0.736500   -1.139070    0.000000
      5          6           0       -1.934290   -1.875190    0.000000
      6          6           0       -3.170670   -1.205940    0.000000
      7         17           0       -4.674830   -2.130350    0.000000
      8         17           0       -2.059980    2.700400    0.000000
      9         17           0        0.729050    1.190710    0.000000
     10          1           0        0.816140   -1.979510    0.000000
     11          1           0       -1.885800   -3.640030    0.000000
 ---------------------------------------------------------------------
                    Distance matrix (angstroms):
                    1          2          3          4          5
     1  C    0.000000
     2  C    1.405898   0.000000
     3  C    2.435088   1.405900   0.000000
     4  C    2.811801   2.435092   1.405900   0.000000
     5  C    2.435087   2.811800   2.435093   1.405907   0.000000
     6  C    1.405900   2.435088   2.811796   2.435088   1.405892
     7  Cl   2.752401   4.061166   4.577308   4.061167   2.752393
     8  Cl   2.752406   1.765516   2.752405   4.061173   4.577316
     9  Cl   4.061167   2.752403   1.765512   2.752401   4.061173
    10  H    4.577312   4.061173   2.752406   1.765511   2.752408
    11  H    4.061164   4.577306   4.061163   2.752397   1.765506
                    6          7          8          9         10
     6  C    0.000000
     7  Cl   1.765512   0.000000
     8  Cl   4.061173   5.493049   0.000000
     9  Cl   4.577308   6.342819   3.171412   0.000000
    10  H    4.061165   5.493041   5.493052   3.171416   0.000000
    11  H    2.752396   3.171407   6.342822   5.493040   3.171404
                   11
    11  H    0.000000
 Stoichiometry    C6H2Cl3(2)
 Framework group  CS[SG(C6H2Cl3)]
 Deg. of freedom    19
 Full point group                 CS      NOp   2
 Largest Abelian subgroup         CS      NOp   2
 Largest concise Abelian subgroup C1      NOp   1
                         Standard orientation:                         
 ---------------------------------------------------------------------
 Center     Atomic      Atomic             Coordinates (Angstroms)
 Number     Number       Type             X           Y           Z
 ---------------------------------------------------------------------
      1          6           0        1.248404    0.150627   -0.000000
      2          6           0        0.030860    0.853575   -0.000000
      3          6           0       -1.186684    0.150623   -0.000000
      4          6           0       -1.186684   -1.255278    0.000000
      5          6           0        0.030870   -1.958225    0.000000
      6          6           0        1.248404   -1.255273    0.000000
      7         17           0        2.777384   -2.138026    0.000000
      8         17           0        0.030854    2.619091   -0.000000
      9         17           0       -2.715664    1.033375   -0.000000
     10          1           0       -2.715658   -2.138041    0.000000
     11          1           0        0.030866   -3.723731    0.000000
 ---------------------------------------------------------------------
 Rotational constants (GHZ):           1.8217110           0.5760405           0.4376514
 Standard basis: VSTO-6G (5D, 7F)
 There are    29 symmetry adapted cartesian basis functions of A'  symmetry.
 There are     9 symmetry adapted cartesian basis functions of A"  symmetry.
 There are    29 symmetry adapted basis functions of A'  symmetry.
 There are     9 symmetry adapted basis functions of A"  symmetry.
    38 basis functions,   228 primitive gaussians,    38 cartesian basis functions
    24 alpha electrons       23 beta electrons
       nuclear repulsion energy       238.8630145635 Hartrees.
 Integral buffers will be    131072 words long.
 Regular integral format.
 Two-electron integral symmetry is turned off.
 Do NDO integrals.
 One-electron integrals computed using PRISM.
 NBasis=    38 RedAO= T EigKep=  1.00D+00  NBF=    29     9
 NBsUse=    38 1.00D-06 EigRej= -1.00D+00 NBFU=    29     9
 Simple Huckel Guess.
 Initial guess orbital symmetries:
 Alpha Orbitals:
       Occupied  (A') (A') (A') (A') (A') (A') (A') (A') (A') (A")
                 (A') (A') (A') (A") (A') (A") (A') (A") (A') (A')
                 (A') (A") (A") (A')
       Virtual   (A') (A") (A") (A') (A") (A') (A') (A') (A') (A')
                 (A') (A') (A') (A')
 Beta  Orbitals:
       Occupied  (A') (A') (A') (A') (A') (A') (A') (A') (A') (A")
                 (A') (A') (A') (A") (A') (A") (A') (A") (A') (A')
                 (A') (A") (A")
       Virtual   (A') (A') (A") (A") (A') (A") (A') (A') (A') (A')
                 (A') (A') (A') (A') (A')
 The electronic state of the initial guess is 2-A'.
 Initial guess <Sx>= 0.0000 <Sy>= 0.0000 <Sz>= 0.5000 <S**2>= 0.7500 S= 0.5000
 Keep J ints in memory in canonical form, NReq=863588.
 Overlap will be assumed to be unity.
 Requested convergence on RMS density matrix=1.00D-08 within  32 cycles.
 Requested convergence on MAX density matrix=1.00D-06.
 Requested convergence on             energy=1.00D-06.
 No special actions if energy rises.
 Fock symm off for IB=2 I1=    1 I=   30 J=   22 Cut=1.00D-07 Err=3.13D-03
 Fock matrix is not symmetric: symmetry in diagonalization turned off.
 Rare condition: small coef for last iteration:  0.000D+00
 Rare condition: small coef for last iteration:  0.000D+00
 Rare condition: small coef for last iteration:  0.000D+00
 Rare condition: small coef for last iteration:  0.000D+00
 Rare condition: small coef for last iteration:  0.000D+00
 Rare condition: small coef for last iteration:  0.000D+00
 Rare condition: small coef for last iteration:  0.000D+00
 Rare condition: small coef for last iteration:  0.000D+00
 >>>>>>>>>> Convergence criterion not met.
 SCF Done:  E(UAM1) =  0.347678708383     A.U. after   33 cycles
            NFock= 32  Conv=0.24D-03     -V/T= 1.0031
 <Sx>= 0.0000 <Sy>= 0.0000 <Sz>= 0.5000 <S**2>= 1.3092 S= 0.7487
 <L.S>=  0.00000000000    
 Annihilation of the first spin contaminant:
 S**2 before annihilation     1.3092,   after     1.0430
 Keep J ints in memory in canonical form, NReq=863988.
 LinEq1:  Iter=  0 NonCon=     1 RMS=5.43D-04 Max=6.31D-03 NDo=     1
 AX will form     1 AO Fock derivatives at one time.
 LinEq1:  Iter=  1 NonCon=     1 RMS=1.42D-04 Max=1.09D-03 NDo=     1
 LinEq1:  Iter=  2 NonCon=     1 RMS=3.23D-05 Max=3.34D-04 NDo=     1
 LinEq1:  Iter=  3 NonCon=     1 RMS=8.60D-06 Max=9.47D-05 NDo=     1
 LinEq1:  Iter=  4 NonCon=     1 RMS=1.86D-06 Max=2.10D-05 NDo=     1
 LinEq1:  Iter=  5 NonCon=     1 RMS=4.72D-07 Max=4.80D-06 NDo=     1
 LinEq1:  Iter=  6 NonCon=     1 RMS=9.78D-08 Max=5.95D-07 NDo=     1
 LinEq1:  Iter=  7 NonCon=     1 RMS=2.15D-08 Max=1.80D-07 NDo=     1
 LinEq1:  Iter=  8 NonCon=     1 RMS=6.52D-09 Max=5.16D-08 NDo=     1
 LinEq1:  Iter=  9 NonCon=     0 RMS=1.18D-09 Max=6.31D-09 NDo=     1
 Linear equations converged to 2.610D-09 2.610D-08 after     9 iterations.
 Incorrect curvature in search direction -- initial direction reversed.
     Minimum is close to point  3 DX= -2.40D-03 DF= -1.09D-06 DXR=  2.62D-02 DFR=  6.87D-04 which will be used.
 LinEq1:  Iter=  0 NonCon=     1 RMS=5.53D-04 Max=7.01D-03 NDo=     1
 LinEq1:  Iter=  1 NonCon=     1 RMS=1.48D-04 Max=9.58D-04 NDo=     1
 LinEq1:  Iter=  2 NonCon=     1 RMS=3.49D-05 Max=3.67D-04 NDo=     1
 LinEq1:  Iter=  3 NonCon=     1 RMS=8.83D-06 Max=9.23D-05 NDo=     1
 LinEq1:  Iter=  4 NonCon=     1 RMS=2.04D-06 Max=2.35D-05 NDo=     1
 LinEq1:  Iter=  5 NonCon=     1 RMS=5.24D-07 Max=5.05D-06 NDo=     1
 LinEq1:  Iter=  6 NonCon=     1 RMS=1.53D-07 Max=1.38D-06 NDo=     1
 LinEq1:  Iter=  7 NonCon=     1 RMS=3.91D-08 Max=3.42D-07 NDo=     1
 LinEq1:  Iter=  8 NonCon=     1 RMS=6.69D-09 Max=5.76D-08 NDo=     1
 LinEq1:  Iter=  9 NonCon=     0 RMS=1.06D-09 Max=7.16D-09 NDo=     1
 Linear equations converged to 2.610D-09 2.610D-08 after     9 iterations.
 Incorrect curvature in search direction -- initial direction reversed.
 LinEq1:  Iter=  0 NonCon=     1 RMS=5.78D-04 Max=6.77D-03 NDo=     1
 LinEq1:  Iter=  1 NonCon=     1 RMS=1.54D-04 Max=9.75D-04 NDo=     1
 LinEq1:  Iter=  2 NonCon=     1 RMS=3.75D-05 Max=3.94D-04 NDo=     1
 LinEq1:  Iter=  3 NonCon=     1 RMS=9.42D-06 Max=8.21D-05 NDo=     1
 LinEq1:  Iter=  4 NonCon=     1 RMS=2.18D-06 Max=2.16D-05 NDo=     1
 LinEq1:  Iter=  5 NonCon=     1 RMS=5.30D-07 Max=5.18D-06 NDo=     1
 LinEq1:  Iter=  6 NonCon=     1 RMS=1.75D-07 Max=1.40D-06 NDo=     1
 LinEq1:  Iter=  7 NonCon=     1 RMS=3.70D-08 Max=2.82D-07 NDo=     1
 LinEq1:  Iter=  8 NonCon=     1 RMS=6.64D-09 Max=5.65D-08 NDo=     1
 LinEq1:  Iter=  9 NonCon=     0 RMS=1.45D-09 Max=1.41D-08 NDo=     1
 Linear equations converged to 2.610D-09 2.610D-08 after     9 iterations.
 Incorrect curvature in search direction -- initial direction reversed.
 LinEq1:  Iter=  0 NonCon=     1 RMS=5.78D-04 Max=6.70D-03 NDo=     1
 LinEq1:  Iter=  1 NonCon=     1 RMS=1.91D-04 Max=1.76D-03 NDo=     1
 LinEq1:  Iter=  2 NonCon=     1 RMS=4.96D-05 Max=4.08D-04 NDo=     1
 LinEq1:  Iter=  3 NonCon=     1 RMS=9.05D-06 Max=9.92D-05 NDo=     1
 LinEq1:  Iter=  4 NonCon=     1 RMS=2.02D-06 Max=2.18D-05 NDo=     1
 LinEq1:  Iter=  5 NonCon=     1 RMS=3.47D-07 Max=2.36D-06 NDo=     1
 LinEq1:  Iter=  6 NonCon=     1 RMS=8.15D-08 Max=5.34D-07 NDo=     1
 LinEq1:  Iter=  7 NonCon=     1 RMS=2.53D-08 Max=2.01D-07 NDo=     1
 LinEq1:  Iter=  8 NonCon=     1 RMS=4.52D-09 Max=3.09D-08 NDo=     1
 LinEq1:  Iter=  9 NonCon=     0 RMS=7.71D-10 Max=5.74D-09 NDo=     1
 Linear equations converged to 2.610D-09 2.610D-08 after     9 iterations.
 LinEq1:  Iter=  0 NonCon=     1 RMS=2.27D-04 Max=2.08D-03 NDo=     1
 LinEq1:  Iter=  1 NonCon=     1 RMS=7.77D-05 Max=6.01D-04 NDo=     1
 LinEq1:  Iter=  2 NonCon=     1 RMS=2.11D-05 Max=1.52D-04 NDo=     1
 LinEq1:  Iter=  3 NonCon=     1 RMS=3.39D-06 Max=2.64D-05 NDo=     1
 LinEq1:  Iter=  4 NonCon=     1 RMS=6.58D-07 Max=6.48D-06 NDo=     1
 LinEq1:  Iter=  5 NonCon=     1 RMS=1.40D-07 Max=1.22D-06 NDo=     1
 LinEq1:  Iter=  6 NonCon=     1 RMS=2.59D-08 Max=1.63D-07 NDo=     1
 LinEq1:  Iter=  7 NonCon=     1 RMS=4.06D-09 Max=3.19D-08 NDo=     1
 LinEq1:  Iter=  8 NonCon=     0 RMS=7.00D-10 Max=4.70D-09 NDo=     1
 Linear equations converged to 2.610D-09 2.610D-08 after     8 iterations.
     Accept linear search using points  1 and  2.
     Minimum is close to point  2 DX= -2.29D-02 DF= -3.68D-08 DXR=  2.35D-02 DFR=  5.60D-04 which will be used.
 LinEq1:  Iter=  0 NonCon=     1 RMS=7.61D-06 Max=7.14D-05 NDo=     1
 LinEq1:  Iter=  1 NonCon=     1 RMS=8.01D-07 Max=6.43D-06 NDo=     1
 LinEq1:  Iter=  2 NonCon=     1 RMS=1.41D-07 Max=1.25D-06 NDo=     1
 LinEq1:  Iter=  3 NonCon=     1 RMS=4.39D-08 Max=3.45D-07 NDo=     1
 LinEq1:  Iter=  4 NonCon=     1 RMS=9.47D-09 Max=8.43D-08 NDo=     1
 LinEq1:  Iter=  5 NonCon=     1 RMS=2.28D-09 Max=1.56D-08 NDo=     1
 LinEq1:  Iter=  6 NonCon=     0 RMS=4.42D-10 Max=3.23D-09 NDo=     1
 Linear equations converged to 9.303D-10 9.303D-09 after     6 iterations.
 LinEq1:  Iter=  0 NonCon=     1 RMS=2.42D-07 Max=1.76D-06 NDo=     1
 LinEq1:  Iter=  1 NonCon=     1 RMS=7.88D-08 Max=5.17D-07 NDo=     1
 LinEq1:  Iter=  2 NonCon=     1 RMS=1.90D-08 Max=1.99D-07 NDo=     1
 LinEq1:  Iter=  3 NonCon=     1 RMS=3.83D-09 Max=3.56D-08 NDo=     1
 LinEq1:  Iter=  4 NonCon=     1 RMS=1.03D-09 Max=8.20D-09 NDo=     1
 LinEq1:  Iter=  5 NonCon=     1 RMS=2.31D-10 Max=1.68D-09 NDo=     1
 LinEq1:  Iter=  6 NonCon=     1 RMS=5.09D-11 Max=4.62D-10 NDo=     1
 LinEq1:  Iter=  7 NonCon=     0 RMS=1.20D-11 Max=1.03D-10 NDo=     1
 Linear equations converged to 4.367D-11 4.367D-10 after     7 iterations.
 SCF Done:  E(UAM1) =  0.342641001825     a.u. after    8 cycles
            Convg  =    0.9801D-07                    74 Fock formations.
              S**2 =  1.8719                  -V/T =  1.0031
 <Sx>= 0.0000 <Sy>= 0.0000 <Sz>= 0.5000 <S**2>= 1.8719 S= 0.9567
 <L.S>=  0.00000000000    
 Annihilation of the first spin contaminant:
 S**2 before annihilation     1.8719,   after     2.5333

 **********************************************************************

            Population analysis using the SCF Density.

 **********************************************************************

 Orbital symmetries:
 Alpha Orbitals:
       Occupied  (A') (A') (A') (A') (A') (A') (A') (A') (A') (A')
                 (A') (A") (A') (A") (A") (A') (A') (A') (A') (A")
                 (A') (A') (A") (A")
       Virtual   (A') (A") (A") (A') (A') (A') (A') (A") (A') (A')
                 (A') (A') (A') (A')
 Beta  Orbitals:
       Occupied  (A') (A') (A') (A') (A') (A') (A') (A') (A') (A')
                 (A') (A") (A') (A") (A") (A') (A') (A') (A") (A')
                 (A') (A") (A")
       Virtual   (A') (A") (A') (A') (A") (A') (A') (A') (A") (A')
                 (A') (A') (A') (A') (A')
 The electronic state is 2-A'.
 Alpha  occ. eigenvalues --   -1.44622  -1.38799  -1.37801  -1.36035  -1.13985
 Alpha  occ. eigenvalues --   -1.12379  -0.85928  -0.84007  -0.64443  -0.62492
 Alpha  occ. eigenvalues --   -0.60982  -0.55788  -0.54867  -0.49750  -0.47220
 Alpha  occ. eigenvalues --   -0.46761  -0.46116  -0.45777  -0.44450  -0.43918
 Alpha  occ. eigenvalues --   -0.43407  -0.39903  -0.39149  -0.37247
 Alpha virt. eigenvalues --   -0.01086  -0.00779   0.00283   0.01108   0.01843
 Alpha virt. eigenvalues --    0.03302   0.04577   0.07467   0.12721   0.12982
 Alpha virt. eigenvalues --    0.14873   0.15126   0.16380   0.17952
  Beta  occ. eigenvalues --   -1.44081  -1.38771  -1.37750  -1.35760  -1.13477
  Beta  occ. eigenvalues --   -1.11074  -0.85270  -0.81986  -0.64760  -0.62046
  Beta  occ. eigenvalues --   -0.59871  -0.55625  -0.53893  -0.50215  -0.47445
  Beta  occ. eigenvalues --   -0.46776  -0.45387  -0.44267  -0.43844  -0.43376
  Beta  occ. eigenvalues --   -0.42129  -0.37972  -0.37109
  Beta virt. eigenvalues --   -0.03844  -0.00411   0.00296   0.00847   0.01719
  Beta virt. eigenvalues --    0.02219   0.03379   0.04466   0.08169   0.13179
  Beta virt. eigenvalues --    0.13551   0.15412   0.16568   0.16962   0.18367
          Condensed to atoms (all electrons):
               1          2          3          4          5          6
     1  C    3.989434   0.000000   0.000000   0.000000   0.000000   0.000000
     2  C    0.000000   4.049110   0.000000   0.000000   0.000000   0.000000
     3  C    0.000000   0.000000   4.033319   0.000000   0.000000   0.000000
     4  C    0.000000   0.000000   0.000000   4.122767   0.000000   0.000000
     5  C    0.000000   0.000000   0.000000   0.000000   4.128072   0.000000
     6  C    0.000000   0.000000   0.000000   0.000000   0.000000   4.044025
     7  Cl   0.000000   0.000000   0.000000   0.000000   0.000000   0.000000
     8  Cl   0.000000   0.000000   0.000000   0.000000   0.000000   0.000000
     9  Cl   0.000000   0.000000   0.000000   0.000000   0.000000   0.000000
    10  H    0.000000   0.000000   0.000000   0.000000   0.000000   0.000000
    11  H    0.000000   0.000000   0.000000   0.000000   0.000000   0.000000
               7          8          9         10         11
     1  C    0.000000   0.000000   0.000000   0.000000   0.000000
     2  C    0.000000   0.000000   0.000000   0.000000   0.000000
     3  C    0.000000   0.000000   0.000000   0.000000   0.000000
     4  C    0.000000   0.000000   0.000000   0.000000   0.000000
     5  C    0.000000   0.000000   0.000000   0.000000   0.000000
     6  C    0.000000   0.000000   0.000000   0.000000   0.000000
     7  Cl   7.010192   0.000000   0.000000   0.000000   0.000000
     8  Cl   0.000000   6.991150   0.000000   0.000000   0.000000
     9  Cl   0.000000   0.000000   7.003413   0.000000   0.000000
    10  H    0.000000   0.000000   0.000000   0.822371   0.000000
    11  H    0.000000   0.000000   0.000000   0.000000   0.806148
          Atomic-Atomic Spin Densities.
               1          2          3          4          5          6
     1  C    1.501688   0.000000   0.000000   0.000000   0.000000   0.000000
     2  C    0.000000  -0.563526   0.000000   0.000000   0.000000   0.000000
     3  C    0.000000   0.000000   0.571793   0.000000   0.000000   0.000000
     4  C    0.000000   0.000000   0.000000  -0.970150   0.000000   0.000000
     5  C    0.000000   0.000000   0.000000   0.000000   0.949532   0.000000
     6  C    0.000000   0.000000   0.000000   0.000000   0.000000  -0.572083
     7  Cl   0.000000   0.000000   0.000000   0.000000   0.000000   0.000000
     8  Cl   0.000000   0.000000   0.000000   0.000000   0.000000   0.000000
     9  Cl   0.000000   0.000000   0.000000   0.000000   0.000000   0.000000
    10  H    0.000000   0.000000   0.000000   0.000000   0.000000   0.000000
    11  H    0.000000   0.000000   0.000000   0.000000   0.000000   0.000000
               7          8          9         10         11
     1  C    0.000000   0.000000   0.000000   0.000000   0.000000
     2  C    0.000000   0.000000   0.000000   0.000000   0.000000
     3  C    0.000000   0.000000   0.000000   0.000000   0.000000
     4  C    0.000000   0.000000   0.000000   0.000000   0.000000
     5  C    0.000000   0.000000   0.000000   0.000000   0.000000
     6  C    0.000000   0.000000   0.000000   0.000000   0.000000
     7  Cl   0.010554   0.000000   0.000000   0.000000   0.000000
     8  Cl   0.000000   0.008961   0.000000   0.000000   0.000000
     9  Cl   0.000000   0.000000   0.005035   0.000000   0.000000
    10  H    0.000000   0.000000   0.000000   0.458421   0.000000
    11  H    0.000000   0.000000   0.000000   0.000000  -0.400224
 Mulliken charges and spin densities:
               1          2
     1  C    0.010566   1.501688
     2  C   -0.049110  -0.563526
     3  C   -0.033319   0.571793
     4  C   -0.122767  -0.970150
     5  C   -0.128072   0.949532
     6  C   -0.044025  -0.572083
     7  Cl  -0.010192   0.010554
     8  Cl   0.008850   0.008961
     9  Cl  -0.003413   0.005035
    10  H    0.177629   0.458421
    11  H    0.193852  -0.400224
 Sum of Mulliken charges =  -0.00000   1.00000
 Mulliken charges and spin densities with hydrogens summed into heavy atoms:
               1          2
     1  C    0.010566   1.501688
     2  C   -0.049110  -0.563526
     3  C   -0.033319   0.571793
     4  C    0.054863  -0.511729
     5  C    0.065780   0.549308
     6  C   -0.044025  -0.572083
     7  Cl  -0.010192   0.010554
     8  Cl   0.008850   0.008961
     9  Cl  -0.003413   0.005035
 Charge=              0.0000 electrons
 Dipole moment (field-independent basis, Debye):
    X=             -1.5215    Y=             -2.7553    Z=              0.0000  Tot=              3.1475
 N-N= 2.388630145635D+02 E-N=-3.310879941094D+02  KE=-1.117656723144D+02
 Symmetry A'   KE=-8.578484477103D+01
 Symmetry A"   KE=-2.598082754333D+01
 Symmetry A'   SP= 1.000000000000D+00
 Symmetry A"   SP=-1.110223024625D-16
 Calling FoFJK, ICntrl=      2127 FMM=F ISym2X=1 I1Cent= 0 IOpClX= 1 NMat=1 NMatS=1 NMatT=0.
 ***** Axes restored to original set *****
 -------------------------------------------------------------------
 Center     Atomic                   Forces (Hartrees/Bohr)
 Number     Number              X              Y              Z
 -------------------------------------------------------------------
      1        6           0.051599859   -0.027370522    0.000000000
      2        6          -0.027823648    0.041640753   -0.000000000
      3        6           0.037827122   -0.001085304   -0.000000000
      4        6           0.041077586   -0.044918115   -0.000000000
      5        6           0.023338840   -0.061686259   -0.000000000
      6        6          -0.036700873   -0.013334130   -0.000000000
      7       17           0.034284556    0.020838656    0.000000000
      8       17          -0.001509449   -0.040490950    0.000000000
      9       17          -0.032938376   -0.022825720   -0.000000000
     10        1          -0.085359640    0.046988350    0.000000000
     11        1          -0.003795977    0.102243239    0.000000000
 -------------------------------------------------------------------
 Cartesian Forces:  Max     0.102243239 RMS     0.035569484

 GradGradGradGradGradGradGradGradGradGradGradGradGradGradGradGradGradGrad
 Berny optimization.
 FormGI is forming the generalized inverse of G from B-inverse, IUseBI=4.
 Internal  Forces:  Max     0.102308926 RMS     0.025575883
 Search for a local minimum.
 Step number   1 out of a maximum of   57
 All quantities printed in internal units (Hartrees-Bohrs-Radians)
 Mixed Optimization -- RFO/linear search
 Second derivative matrix not updated -- first step.
 ITU=  0
     Eigenvalues ---    0.02011   0.02011   0.02011   0.02011   0.02011
     Eigenvalues ---    0.02011   0.02011   0.02011   0.06524   0.06524
     Eigenvalues ---    0.16000   0.16000   0.22472   0.24476   0.25000
     Eigenvalues ---    0.25000   0.25000   0.25000   0.29033   0.29033
     Eigenvalues ---    0.29033   0.41073   0.41424   0.44656   0.44657
     Eigenvalues ---    0.44657   0.44657
 RFO step:  Lambda=-1.27148520D-01 EMin= 2.01065791D-02
 Linear search not attempted -- first point.
 Maximum step size (   0.300) exceeded in Quadratic search.
    -- Step size scaled by   0.390
 Iteration  1 RMS(Cart)=  0.04601928 RMS(Int)=  0.00108893
 Iteration  2 RMS(Cart)=  0.00105097 RMS(Int)=  0.00001069
 Iteration  3 RMS(Cart)=  0.00000012 RMS(Int)=  0.00001069
 ClnCor:  largest displacement from symmetrization is 1.11D-08 for atom    10.
 Variable       Old X    -DE/DX   Delta X   Delta X   Delta X     New X
                                 (Linear)    (Quad)   (Total)
    R1        2.65676  -0.02970   0.00000  -0.01985  -0.01984   2.63693
    R2        2.65677  -0.02989   0.00000  -0.02047  -0.02045   2.63632
    R3        2.65677  -0.00224   0.00000  -0.00104  -0.00104   2.65572
    R4        3.33634  -0.04043   0.00000  -0.03778  -0.03778   3.29856
    R5        2.65677  -0.02097   0.00000  -0.01411  -0.01413   2.64264
    R6        3.33633  -0.04001   0.00000  -0.03739  -0.03739   3.29895
    R7        2.65678  -0.03969   0.00000  -0.02733  -0.02734   2.62944
    R8        3.33633  -0.09744   0.00000  -0.19756  -0.19756   3.13877
    R9        2.65675  -0.02412   0.00000  -0.01689  -0.01688   2.63987
   R10        3.33632  -0.10231   0.00000  -0.20744  -0.20744   3.12888
   R11        3.33633  -0.04012   0.00000  -0.03749  -0.03749   3.29885
    A1        2.09439   0.02314   0.00000   0.02409   0.02413   2.11853
    A2        2.09439  -0.01559   0.00000  -0.01503  -0.01503   2.07937
    A3        2.09440   0.00342   0.00000   0.00299   0.00299   2.09739
    A4        2.09439   0.01216   0.00000   0.01204   0.01203   2.10643
    A5        2.09440  -0.00749   0.00000  -0.00697  -0.00699   2.08741
    A6        2.09440   0.00742   0.00000   0.00728   0.00729   2.10169
    A7        2.09439   0.00008   0.00000  -0.00031  -0.00030   2.09409
    A8        2.09439   0.00940   0.00000   0.01002   0.00998   2.10437
    A9        2.09440  -0.00585   0.00000  -0.00657  -0.00655   2.08785
   A10        2.09440  -0.00355   0.00000  -0.00345  -0.00343   2.09096
   A11        2.09439   0.00532   0.00000   0.00436   0.00435   2.09874
   A12        2.09439  -0.00101   0.00000   0.00006   0.00006   2.09445
   A13        2.09440  -0.00430   0.00000  -0.00442  -0.00441   2.08999
   A14        2.09440  -0.01478   0.00000  -0.01647  -0.01645   2.07795
   A15        2.09439   0.00772   0.00000   0.00857   0.00857   2.10296
   A16        2.09439   0.00706   0.00000   0.00789   0.00788   2.10228
    D1       -0.00000  -0.00000   0.00000  -0.00000   0.00000   0.00000
    D2        3.14159   0.00000   0.00000   0.00000   0.00000   3.14159
    D3        0.00000   0.00000   0.00000   0.00000  -0.00000   0.00000
    D4        3.14159   0.00000   0.00000   0.00000   0.00000   3.14159
    D5        0.00000  -0.00000   0.00000  -0.00000   0.00000   0.00000
    D6        3.14159  -0.00000   0.00000  -0.00000   0.00000   3.14159
    D7        3.14159  -0.00000   0.00000  -0.00000   0.00000   3.14159
    D8        0.00000  -0.00000   0.00000  -0.00000  -0.00000   0.00000
    D9       -0.00000   0.00000   0.00000   0.00000   0.00000   0.00000
   D10        3.14159   0.00000   0.00000   0.00000   0.00000   3.14159
   D11        3.14159   0.00000   0.00000   0.00000   0.00000   3.14159
   D12       -0.00000   0.00000   0.00000   0.00000   0.00000   0.00000
   D13       -0.00000  -0.00000   0.00000  -0.00000   0.00000   0.00000
   D14        3.14159   0.00000   0.00000  -0.00000   0.00000   3.14159
   D15        3.14159  -0.00000   0.00000  -0.00000   0.00000   3.14159
   D16        0.00000  -0.00000   0.00000  -0.00000  -0.00000   0.00000
   D17        0.00000  -0.00000   0.00000   0.00000  -0.00000   0.00000
   D18        3.14159   0.00000   0.00000   0.00000   0.00000   3.14159
   D19        3.14159  -0.00000   0.00000  -0.00000   0.00000   3.14159
   D20       -0.00000  -0.00000   0.00000  -0.00000   0.00000   0.00000
         Item               Value     Threshold  Converged?
 Maximum Force            0.102309     0.000450     NO 
 RMS     Force            0.025576     0.000300     NO 
 Maximum Displacement     0.203783     0.001800     NO 
 RMS     Displacement     0.046704     0.001200     NO 
 Predicted change in Energy=-4.564644D-02
 GradGradGradGradGradGradGradGradGradGradGradGradGradGradGradGradGradGrad

                          Input orientation:                          
 ---------------------------------------------------------------------
 Center     Atomic      Atomic             Coordinates (Angstroms)
 Number     Number       Type             X           Y           Z
 ---------------------------------------------------------------------
      1          6           0       -3.180716    0.174983   -0.000000
      2          6           0       -2.002188    0.922121    0.000000
      3          6           0       -0.767003    0.251805    0.000000
      4          6           0       -0.739875   -1.146354    0.000000
      5          6           0       -1.923939   -1.877171   -0.000000
      6          6           0       -3.156605   -1.219887   -0.000000
      7         17           0       -4.645340   -2.131505   -0.000000
      8         17           0       -2.069239    2.666356    0.000000
      9         17           0        0.727897    1.153380    0.000000
     10          1           0        0.719628   -1.939236    0.000000
     11          1           0       -1.875389   -3.532192   -0.000000
 ---------------------------------------------------------------------
                    Distance matrix (angstroms):
                    1          2          3          4          5
     1  C    0.000000
     2  C    1.395401   0.000000
     3  C    2.414935   1.405348   0.000000
     4  C    2.775543   2.423226   1.398422   0.000000
     5  C    2.406414   2.800385   2.423023   1.391439   0.000000
     6  C    1.395079   2.433286   2.806435   2.417849   1.396957
     7  Cl   2.732217   4.038674   4.552106   4.027801   2.733260
     8  Cl   2.728061   1.745523   2.743332   4.037817   4.545849
     9  Cl   4.029208   2.739862   1.745727   2.728210   4.026968
    10  H    4.436509   3.949133   2.647779   1.660967   2.644296
    11  H    3.930271   4.456118   3.942989   2.642275   1.655733
                    6          7          8          9         10
     6  C    0.000000
     7  Cl   1.745674   0.000000
     8  Cl   4.035499   5.445710   0.000000
     9  Cl   4.552115   6.297789   3.180104   0.000000
    10  H    3.942417   5.368413   5.384167   3.092627   0.000000
    11  H    2.643533   3.103958   6.201579   5.360195   3.044935
                   11
    11  H    0.000000
 Stoichiometry    C6H2Cl3(2)
 Framework group  CS[SG(C6H2Cl3)]
 Deg. of freedom    19
 Full point group                 CS      NOp   2
 Largest Abelian subgroup         CS      NOp   2
 Largest concise Abelian subgroup C1      NOp   1
                         Standard orientation:                         
 ---------------------------------------------------------------------
 Center     Atomic      Atomic             Coordinates (Angstroms)
 Number     Number       Type             X           Y           Z
 ---------------------------------------------------------------------
      1          6           0        1.221786    0.183771    0.000000
      2          6           0       -0.000000    0.857850    0.000000
      3          6           0       -1.192131    0.113653   -0.000000
      4          6           0       -1.134175   -1.283568   -0.000000
      5          6           0        0.092144   -1.941019    0.000000
      6          6           0        1.282554   -1.209984    0.000000
      7         17           0        2.823976   -2.029371    0.000000
      8         17           0       -0.039155    2.602933   -0.000000
      9         17           0       -2.739096    0.922641   -0.000000
     10          1           0       -2.542755   -2.163747   -0.000000
     11          1           0        0.144340   -3.595930    0.000000
 ---------------------------------------------------------------------
 Rotational constants (GHZ):           1.8356333           0.5857252           0.4440386
 Standard basis: VSTO-6G (5D, 7F)
 There are    29 symmetry adapted cartesian basis functions of A'  symmetry.
 There are     9 symmetry adapted cartesian basis functions of A"  symmetry.
 There are    29 symmetry adapted basis functions of A'  symmetry.
 There are     9 symmetry adapted basis functions of A"  symmetry.
    38 basis functions,   228 primitive gaussians,    38 cartesian basis functions
    24 alpha electrons       23 beta electrons
       nuclear repulsion energy       240.1626516088 Hartrees.
 Integral buffers will be    131072 words long.
 Regular integral format.
 Two-electron integral symmetry is turned off.
 Do NDO integrals.
 One-electron integrals computed using PRISM.
 NBasis=    38 RedAO= T EigKep=  1.00D+00  NBF=    29     9
 NBsUse=    38 1.00D-06 EigRej= -1.00D+00 NBFU=    29     9
 Initial guess from the checkpoint file:  "geometry_chks/1_34ClBzNeutralRadical.chk"
 B after Tr=    -0.000000    0.000000    0.000000
         Rot=    0.999863    0.000000   -0.000000   -0.016543 Ang=  -1.90 deg.
 Initial guess orbital symmetries:
 Alpha Orbitals:
       Occupied  (A') (A') (A') (A') (A') (A') (A') (A') (A') (A')
                 (A') (A") (A') (A") (A") (A') (A') (A') (A') (A")
                 (A') (A') (A") (A")
       Virtual   (A') (A") (A") (A') (A') (A') (A') (A") (A') (A')
                 (A') (A') (A') (A')
 Beta  Orbitals:
       Occupied  (A') (A') (A') (A') (A') (A') (A') (A') (A') (A')
                 (A') (A") (A') (A") (A") (A') (A') (A') (A") (A')
                 (A') (A") (A")
       Virtual   (A') (A") (A') (A') (A") (A') (A') (A') (A") (A')
                 (A') (A') (A') (A') (A')
 Initial guess <Sx>= 0.0000 <Sy>= 0.0000 <Sz>= 0.5000 <S**2>= 1.8719 S= 0.9567
 Keep J ints in memory in canonical form, NReq=863588.
 Overlap will be assumed to be unity.
 Requested convergence on RMS density matrix=1.00D-08 within  32 cycles.
 Requested convergence on MAX density matrix=1.00D-06.
 Requested convergence on             energy=1.00D-06.
 No special actions if energy rises.
 Fock symm off for IB=2 I1=    1 I=   30 J=   16 Cut=1.00D-07 Err=4.25D-03
 Fock matrix is not symmetric: symmetry in diagonalization turned off.
 SCF Done:  E(UAM1) =  0.289706289052     A.U. after   20 cycles
            NFock= 19  Conv=0.99D-08     -V/T= 1.0026
 <Sx>= 0.0000 <Sy>= 0.0000 <Sz>= 0.5000 <S**2>= 1.3870 S= 0.7795
 <L.S>=  0.00000000000    
 Annihilation of the first spin contaminant:
 S**2 before annihilation     1.3870,   after     1.1688
 QCSCF skips out because SCF is already converged.
 Calling FoFJK, ICntrl=      2127 FMM=F ISym2X=1 I1Cent= 0 IOpClX= 1 NMat=1 NMatS=1 NMatT=0.
 ***** Axes restored to original set *****
 -------------------------------------------------------------------
 Center     Atomic                   Forces (Hartrees/Bohr)
 Number     Number              X              Y              Z
 -------------------------------------------------------------------
      1        6           0.038673374   -0.019309469   -0.000000000
      2        6          -0.022642402    0.038494976   -0.000000000
      3        6           0.032398648    0.002740289   -0.000000000
      4        6           0.077093079   -0.057047764   -0.000000000
      5        6           0.019526850   -0.097783227   -0.000000000
      6        6          -0.037571111   -0.011844791    0.000000000
      7       17           0.026076264    0.015894329   -0.000000000
      8       17          -0.000715798   -0.031338642    0.000000000
      9       17          -0.025223955   -0.016971226    0.000000000
     10        1          -0.103098503    0.056946242    0.000000000
     11        1          -0.004516445    0.120219282    0.000000000
 -------------------------------------------------------------------
 Cartesian Forces:  Max     0.120219282 RMS     0.041486576

 GradGradGradGradGradGradGradGradGradGradGradGradGradGradGradGradGradGrad
 Berny optimization.
 Using GEDIIS/GDIIS optimizer.
 FormGI is forming the generalized inverse of G from B-inverse, IUseBI=4.
 Internal  Forces:  Max     0.120300021 RMS     0.026726185
 Search for a local minimum.
 Step number   2 out of a maximum of   57
 All quantities printed in internal units (Hartrees-Bohrs-Radians)
 Mixed Optimization -- RFO/linear search
 Update second derivatives using D2CorX and points    1    2
 DE= -5.29D-02 DEPred=-4.56D-02 R= 1.16D+00
 TightC=F SS=  1.41D+00  RLast= 3.00D-01 DXNew= 5.0454D-01 9.0000D-01
 Trust test= 1.16D+00 RLast= 3.00D-01 DXMaxT set to 5.05D-01
 ITU=  1  0
 Use linear search instead of GDIIS.
     Eigenvalues ---   -0.19551   0.02011   0.02011   0.02011   0.02011
     Eigenvalues ---    0.02011   0.02011   0.02011   0.02011   0.06172
     Eigenvalues ---    0.07997   0.15999   0.16005   0.22489   0.24630
     Eigenvalues ---    0.24983   0.25000   0.25000   0.25460   0.29032
     Eigenvalues ---    0.29033   0.35311   0.41311   0.41460   0.44580
     Eigenvalues ---    0.44656   0.44657
 RFO step:  Lambda=-2.62099313D-01 EMin=-1.95511401D-01
 Skip linear search -- no minimum in search direction.
 Maximum step size (   0.505) exceeded in Quadratic search.
    -- Step size scaled by   0.465
 Iteration  1 RMS(Cart)=  0.03378891 RMS(Int)=  0.03134619
 Iteration  2 RMS(Cart)=  0.02914849 RMS(Int)=  0.00001646
 Iteration  3 RMS(Cart)=  0.00000865 RMS(Int)=  0.00001576
 Iteration  4 RMS(Cart)=  0.00000000 RMS(Int)=  0.00001576
 ClnCor:  largest displacement from symmetrization is 7.13D-09 for atom    11.
 Variable       Old X    -DE/DX   Delta X   Delta X   Delta X     New X
                                 (Linear)    (Quad)   (Total)
    R1        2.63693  -0.01834   0.00000   0.02088   0.02086   2.65779
    R2        2.63632  -0.01763   0.00000   0.02535   0.02536   2.66168
    R3        2.65572   0.00284   0.00000   0.02114   0.02112   2.67684
    R4        3.29856  -0.03129   0.00000   0.00025   0.00025   3.29881
    R5        2.64264  -0.00915   0.00000   0.03341   0.03340   2.67604
    R6        3.29895  -0.03036   0.00000   0.00377   0.00377   3.30272
    R7        2.62944  -0.02116   0.00000   0.04531   0.04533   2.67476
    R8        3.13877  -0.11778   0.00000  -0.35785  -0.35785   2.78093
    R9        2.63987  -0.00999   0.00000   0.04111   0.04114   2.68101
   R10        3.12888  -0.12030   0.00000  -0.34575  -0.34575   2.78313
   R11        3.29885  -0.03054   0.00000   0.00323   0.00323   3.30208
    A1        2.11853   0.02091   0.00000   0.01691   0.01690   2.13543
    A2        2.07937  -0.01267   0.00000  -0.00492  -0.00496   2.07440
    A3        2.09739   0.00317   0.00000   0.00390   0.00392   2.10131
    A4        2.10643   0.00950   0.00000   0.00102   0.00104   2.10747
    A5        2.08741  -0.00536   0.00000   0.00277   0.00274   2.09014
    A6        2.10169   0.00516   0.00000  -0.00368  -0.00367   2.09802
    A7        2.09409   0.00019   0.00000   0.00091   0.00093   2.09502
    A8        2.10437   0.00706   0.00000  -0.00023  -0.00022   2.10416
    A9        2.08785  -0.00482   0.00000  -0.00279  -0.00279   2.08505
   A10        2.09096  -0.00224   0.00000   0.00302   0.00301   2.09397
   A11        2.09874   0.00313   0.00000  -0.00489  -0.00484   2.09390
   A12        2.09445  -0.00002   0.00000   0.00437   0.00435   2.09879
   A13        2.08999  -0.00311   0.00000   0.00052   0.00050   2.09049
   A14        2.07795  -0.01308   0.00000  -0.00965  -0.00961   2.06834
   A15        2.10296   0.00664   0.00000   0.00387   0.00385   2.10681
   A16        2.10228   0.00644   0.00000   0.00578   0.00576   2.10804
    D1        0.00000   0.00000   0.00000   0.00000  -0.00000   0.00000
    D2        3.14159   0.00000   0.00000   0.00000   0.00000   3.14159
    D3        0.00000   0.00000   0.00000  -0.00000   0.00000   0.00000
    D4        3.14159  -0.00000   0.00000  -0.00000   0.00000   3.14159
    D5       -0.00000  -0.00000   0.00000  -0.00000   0.00000   0.00000
    D6        3.14159   0.00000   0.00000   0.00000   0.00000   3.14159
    D7        3.14159  -0.00000   0.00000  -0.00000   0.00000   3.14159
    D8        0.00000   0.00000   0.00000   0.00000   0.00000   0.00000
    D9        0.00000  -0.00000   0.00000  -0.00000   0.00000   0.00000
   D10        3.14159   0.00000   0.00000   0.00000   0.00000   3.14159
   D11        3.14159  -0.00000   0.00000  -0.00000   0.00000   3.14159
   D12       -0.00000  -0.00000   0.00000  -0.00000   0.00000   0.00000
   D13       -0.00000   0.00000   0.00000   0.00000   0.00000   0.00000
   D14        3.14159   0.00000   0.00000   0.00000   0.00000   3.14159
   D15        3.14159  -0.00000   0.00000  -0.00000   0.00000   3.14159
   D16        0.00000  -0.00000   0.00000   0.00000  -0.00000   0.00000
   D17        0.00000  -0.00000   0.00000  -0.00000  -0.00000   0.00000
   D18        3.14159   0.00000   0.00000   0.00000   0.00000   3.14159
   D19        3.14159  -0.00000   0.00000  -0.00000   0.00000   3.14159
   D20        0.00000  -0.00000   0.00000  -0.00000   0.00000   0.00000
         Item               Value     Threshold  Converged?
 Maximum Force            0.120300     0.000450     NO 
 RMS     Force            0.026726     0.000300     NO 
 Maximum Displacement     0.254770     0.001800     NO 
 RMS     Displacement     0.061040     0.001200     NO 
 Predicted change in Energy=-1.013897D-01
 GradGradGradGradGradGradGradGradGradGradGradGradGradGradGradGradGradGrad

                          Input orientation:                          
 ---------------------------------------------------------------------
 Center     Atomic      Atomic             Coordinates (Angstroms)
 Number     Number       Type             X           Y           Z
 ---------------------------------------------------------------------
      1          6           0       -3.169525    0.152263   -0.000000
      2          6           0       -1.986295    0.912553    0.000000
      3          6           0       -0.740518    0.238332    0.000000
      4          6           0       -0.707552   -1.177383    0.000000
      5          6           0       -1.909294   -1.925208   -0.000000
      6          6           0       -3.160383   -1.256207   -0.000000
      7         17           0       -4.656876   -2.158350   -0.000000
      8         17           0       -2.057166    2.656770    0.000000
      9         17           0        0.751732    1.148125    0.000000
     10          1           0        0.590216   -1.871222    0.000000
     11          1           0       -1.867110   -3.397374   -0.000000
 ---------------------------------------------------------------------
                    Distance matrix (angstroms):
                    1          2          3          4          5
     1  C    0.000000
     2  C    1.406440   0.000000
     3  C    2.430532   1.416522   0.000000
     4  C    2.798083   2.450105   1.416098   0.000000
     5  C    2.429829   2.838806   2.459054   1.415425   0.000000
     6  C    1.408500   2.466171   2.844186   2.454097   1.418727
     7  Cl   2.747935   4.069698   4.591508   4.069331   2.757455
     8  Cl   2.740419   1.745657   2.753617   4.064750   4.584364
     9  Cl   4.045739   2.748143   1.747722   2.745450   4.065272
    10  H    4.269678   3.793127   2.494207   1.471603   2.500093
    11  H    3.781033   4.311574   3.806254   2.504583   1.472770
                    6          7          8          9         10
     6  C    0.000000
     7  Cl   1.747385   0.000000
     8  Cl   4.065523   5.472100   0.000000
     9  Cl   4.591890   6.339228   3.188404   0.000000
    10  H    3.800689   5.254942   5.245126   3.023663   0.000000
    11  H    2.501430   3.052536   6.057127   5.245940   2.892679
                   11
    11  H    0.000000
 Stoichiometry    C6H2Cl3(2)
 Framework group  CS[SG(C6H2Cl3)]
 Deg. of freedom    19
 Full point group                 CS      NOp   2
 Largest Abelian subgroup         CS      NOp   2
 Largest concise Abelian subgroup C1      NOp   1
                         Standard orientation:                         
 ---------------------------------------------------------------------
 Center     Atomic      Atomic             Coordinates (Angstroms)
 Number     Number       Type             X           Y           Z
 ---------------------------------------------------------------------
      1          6           0        1.222089    0.168359   -0.000000
      2          6           0       -0.000000    0.864471    0.000000
      3          6           0       -1.208052    0.124778    0.000000
      4          6           0       -1.165478   -1.290680    0.000000
      5          6           0        0.074432   -1.973359   -0.000000
      6          6           0        1.288066   -1.238595   -0.000000
      7         17           0        2.830536   -2.059654   -0.000000
      8         17           0       -0.022240    2.609986    0.000000
      9         17           0       -2.746694    0.953702    0.000000
     10          1           0       -2.424401   -2.052735    0.000000
     11          1           0        0.110810   -3.445679   -0.000000
 ---------------------------------------------------------------------
 Rotational constants (GHZ):           1.8277545           0.5782084           0.4392516
 Standard basis: VSTO-6G (5D, 7F)
 There are    29 symmetry adapted cartesian basis functions of A'  symmetry.
 There are     9 symmetry adapted cartesian basis functions of A"  symmetry.
 There are    29 symmetry adapted basis functions of A'  symmetry.
 There are     9 symmetry adapted basis functions of A"  symmetry.
    38 basis functions,   228 primitive gaussians,    38 cartesian basis functions
    24 alpha electrons       23 beta electrons
       nuclear repulsion energy       239.7550595879 Hartrees.
 Integral buffers will be    131072 words long.
 Regular integral format.
 Two-electron integral symmetry is turned off.
 Do NDO integrals.
 One-electron integrals computed using PRISM.
 NBasis=    38 RedAO= T EigKep=  1.00D+00  NBF=    29     9
 NBsUse=    38 1.00D-06 EigRej= -1.00D+00 NBFU=    29     9
 Initial guess from the checkpoint file:  "geometry_chks/1_34ClBzNeutralRadical.chk"
 B after Tr=    -0.000000    0.000000    0.000000
         Rot=    0.999993   -0.000000    0.000000    0.003692 Ang=   0.42 deg.
 Initial guess orbital symmetries:
 Alpha Orbitals:
       Occupied  (A') (A') (A') (A') (A') (A') (A') (A') (A') (A')
                 (A') (A") (A') (A") (A") (A') (A') (A') (A') (A")
                 (A') (A') (A") (A")
       Virtual   (A") (A") (A') (A') (A') (A') (A') (A") (A') (A')
                 (A') (A') (A') (A')
 Beta  Orbitals:
       Occupied  (A') (A') (A') (A') (A') (A') (A') (A') (A') (A')
                 (A') (A") (A') (A") (A") (A') (A') (A') (A") (A')
                 (A') (A") (A")
       Virtual   (A') (A") (A') (A') (A") (A') (A') (A') (A") (A')
                 (A') (A') (A') (A') (A')
 Initial guess <Sx>= 0.0000 <Sy>= 0.0000 <Sz>= 0.5000 <S**2>= 1.3870 S= 0.7795
 Keep J ints in memory in canonical form, NReq=863588.
 Overlap will be assumed to be unity.
 Requested convergence on RMS density matrix=1.00D-08 within  32 cycles.
 Requested convergence on MAX density matrix=1.00D-06.
 Requested convergence on             energy=1.00D-06.
 No special actions if energy rises.
 Fock symm off for IB=2 I1=    1 I=   30 J=    6 Cut=1.00D-07 Err=3.46D-03
 Fock matrix is not symmetric: symmetry in diagonalization turned off.
 SCF Done:  E(UAM1) =  0.209115626415     A.U. after   18 cycles
            NFock= 17  Conv=0.89D-08     -V/T= 1.0019
 <Sx>= 0.0000 <Sy>= 0.0000 <Sz>= 0.5000 <S**2>= 1.3927 S= 0.7817
 <L.S>=  0.00000000000    
 Annihilation of the first spin contaminant:
 S**2 before annihilation     1.3927,   after     1.1324
 QCSCF skips out because SCF is already converged.
 Calling FoFJK, ICntrl=      2127 FMM=F ISym2X=1 I1Cent= 0 IOpClX= 1 NMat=1 NMatS=1 NMatT=0.
 ***** Axes restored to original set *****
 -------------------------------------------------------------------
 Center     Atomic                   Forces (Hartrees/Bohr)
 Number     Number              X              Y              Z
 -------------------------------------------------------------------
      1        6           0.047564655   -0.027736140   -0.000000000
      2        6          -0.020880569    0.021862502   -0.000000000
      3        6           0.017620364   -0.007202382   -0.000000000
      4        6           0.060854257   -0.048596135   -0.000000000
      5        6           0.015770819   -0.074975258    0.000000000
      6        6          -0.015579603   -0.001793932   -0.000000000
      7       17           0.029901016    0.017704553    0.000000000
      8       17          -0.000677643   -0.033587563    0.000000000
      9       17          -0.027439191   -0.018867135    0.000000000
     10        1          -0.103256013    0.055498594    0.000000000
     11        1          -0.003878091    0.117692897    0.000000000
 -------------------------------------------------------------------
 Cartesian Forces:  Max     0.117692897 RMS     0.037956244

 GradGradGradGradGradGradGradGradGradGradGradGradGradGradGradGradGradGrad
 Berny optimization.
 Using GEDIIS/GDIIS optimizer.
 FormGI is forming the generalized inverse of G from B-inverse, IUseBI=4.
 Internal  Forces:  Max     0.117755688 RMS     0.028566775
 Search for a local minimum.
 Step number   3 out of a maximum of   57
 All quantities printed in internal units (Hartrees-Bohrs-Radians)
 Mixed Optimization -- RFO/linear search
 Update second derivatives using D2CorX and points    2    3
 DE= -8.06D-02 DEPred=-1.01D-01 R= 7.95D-01
 TightC=F SS=  1.41D+00  RLast= 5.05D-01 DXNew= 8.4853D-01 1.5136D+00
 Trust test= 7.95D-01 RLast= 5.05D-01 DXMaxT set to 8.49D-01
 ITU=  1  1  0
 Use linear search instead of GDIIS.
     Eigenvalues ---    0.00532   0.02011   0.02011   0.02011   0.02011
     Eigenvalues ---    0.02011   0.02011   0.02011   0.02011   0.06441
     Eigenvalues ---    0.15582   0.16001   0.16597   0.22523   0.24743
     Eigenvalues ---    0.25000   0.25000   0.25015   0.26909   0.29033
     Eigenvalues ---    0.29049   0.40607   0.41353   0.44008   0.44654
     Eigenvalues ---    0.44656   0.76579
 RFO step:  Lambda=-1.77602142D-01 EMin= 5.31938601D-03
 Skip linear search -- no minimum in search direction.
 Maximum step size (   0.849) exceeded in Quadratic search.
    -- Step size scaled by   0.886
 Iteration  1 RMS(Cart)=  0.06378208 RMS(Int)=  0.07693800
 Iteration  2 RMS(Cart)=  0.03833507 RMS(Int)=  0.03569446
 Iteration  3 RMS(Cart)=  0.03316119 RMS(Int)=  0.00014650
 Iteration  4 RMS(Cart)=  0.00001192 RMS(Int)=  0.00014619
 Iteration  5 RMS(Cart)=  0.00000000 RMS(Int)=  0.00014619
 ClnCor:  largest displacement from symmetrization is 7.50D-09 for atom    10.
 Variable       Old X    -DE/DX   Delta X   Delta X   Delta X     New X
                                 (Linear)    (Quad)   (Total)
    R1        2.65779  -0.03559   0.00000  -0.05379  -0.05359   2.60420
    R2        2.66168  -0.03707   0.00000  -0.05289  -0.05267   2.60901
    R3        2.67684  -0.01418   0.00000   0.00601   0.00600   2.68283
    R4        3.29881  -0.03353   0.00000  -0.11326  -0.11326   3.18555
    R5        2.67604  -0.02864   0.00000  -0.02611  -0.02632   2.64972
    R6        3.30272  -0.03325   0.00000  -0.10983  -0.10983   3.19289
    R7        2.67476  -0.04321   0.00000  -0.05880  -0.05900   2.61577
    R8        2.78093  -0.11723   0.00000  -0.56586  -0.56586   2.21506
    R9        2.68101  -0.03246   0.00000  -0.02942  -0.02941   2.65160
   R10        2.78313  -0.11776   0.00000  -0.57989  -0.57989   2.20324
   R11        3.30208  -0.03475   0.00000  -0.11152  -0.11152   3.19056
    A1        2.13543   0.01620   0.00000   0.07909   0.07963   2.21506
    A2        2.07440  -0.01246   0.00000  -0.04645  -0.04629   2.02812
    A3        2.10131   0.00287   0.00000   0.01111   0.01103   2.11234
    A4        2.10747   0.00960   0.00000   0.03534   0.03526   2.14273
    A5        2.09014  -0.00400   0.00000  -0.01720  -0.01746   2.07269
    A6        2.09802   0.00501   0.00000   0.01826   0.01839   2.11641
    A7        2.09502  -0.00102   0.00000  -0.00106  -0.00093   2.09409
    A8        2.10416   0.00546   0.00000   0.02608   0.02565   2.12981
    A9        2.08505  -0.00309   0.00000  -0.01798  -0.01777   2.06729
   A10        2.09397  -0.00237   0.00000  -0.00810  -0.00788   2.08609
   A11        2.09390   0.00318   0.00000   0.00875   0.00854   2.10244
   A12        2.09879  -0.00089   0.00000   0.00183   0.00194   2.10073
   A13        2.09049  -0.00229   0.00000  -0.01058  -0.01047   2.08002
   A14        2.06834  -0.00837   0.00000  -0.05027  -0.05007   2.01827
   A15        2.10681   0.00464   0.00000   0.02569   0.02559   2.13240
   A16        2.10804   0.00373   0.00000   0.02458   0.02448   2.13252
    D1        0.00000   0.00000   0.00000  -0.00000  -0.00000   0.00000
    D2        3.14159   0.00000   0.00000   0.00000   0.00000   3.14159
    D3       -0.00000  -0.00000   0.00000   0.00000   0.00000   0.00000
    D4        3.14159  -0.00000   0.00000  -0.00000   0.00000   3.14159
    D5        0.00000  -0.00000   0.00000   0.00000   0.00000   0.00000
    D6        3.14159   0.00000   0.00000   0.00000   0.00000   3.14159
    D7        3.14159  -0.00000   0.00000  -0.00000   0.00000   3.14159
    D8       -0.00000  -0.00000   0.00000  -0.00000   0.00000   0.00000
    D9       -0.00000  -0.00000   0.00000  -0.00000   0.00000   0.00000
   D10        3.14159   0.00000   0.00000   0.00000   0.00000   3.14159
   D11        3.14159  -0.00000   0.00000  -0.00000   0.00000   3.14159
   D12       -0.00000  -0.00000   0.00000   0.00000   0.00000   0.00000
   D13        0.00000   0.00000   0.00000   0.00000   0.00000   0.00000
   D14        3.14159   0.00000   0.00000   0.00000   0.00000   3.14159
   D15        3.14159  -0.00000   0.00000  -0.00000   0.00000   3.14159
   D16       -0.00000   0.00000   0.00000  -0.00000   0.00000   0.00000
   D17       -0.00000  -0.00000   0.00000  -0.00000   0.00000   0.00000
   D18        3.14159   0.00000   0.00000   0.00000   0.00000   3.14159
   D19        3.14159  -0.00000   0.00000  -0.00000   0.00000   3.14159
   D20        0.00000  -0.00000   0.00000   0.00000   0.00000   0.00000
         Item               Value     Threshold  Converged?
 Maximum Force            0.117756     0.000450     NO 
 RMS     Force            0.028567     0.000300     NO 
 Maximum Displacement     0.552299     0.001800     NO 
 RMS     Displacement     0.127999     0.001200     NO 
 Predicted change in Energy=-1.515722D-01
 GradGradGradGradGradGradGradGradGradGradGradGradGradGradGradGradGradGrad

                          Input orientation:                          
 ---------------------------------------------------------------------
 Center     Atomic      Atomic             Coordinates (Angstroms)
 Number     Number       Type             X           Y           Z
 ---------------------------------------------------------------------
      1          6           0       -3.086378    0.083738   -0.000000
      2          6           0       -1.961025    0.879158    0.000000
      3          6           0       -0.713895    0.200778    0.000000
      4          6           0       -0.708706   -1.201382    0.000000
      5          6           0       -1.879480   -1.939831   -0.000000
      6          6           0       -3.126376   -1.296309   -0.000000
      7         17           0       -4.580866   -2.153663   -0.000000
      8         17           0       -2.085232    2.560295    0.000000
      9         17           0        0.746468    1.050541    0.000000
     10          1           0        0.323987   -1.755914    0.000000
     11          1           0       -1.841268   -3.105110   -0.000000
 ---------------------------------------------------------------------
                    Distance matrix (angstroms):
                    1          2          3          4          5
     1  C    0.000000
     2  C    1.378083   0.000000
     3  C    2.375368   1.419695   0.000000
     4  C    2.702749   2.428363   1.402169   0.000000
     5  C    2.356148   2.820168   2.437375   1.384204   0.000000
     6  C    1.380627   2.467934   2.839249   2.419532   1.403164
     7  Cl   2.690623   4.007688   4.527345   3.987538   2.709835
     8  Cl   2.671260   1.685720   2.729082   4.005626   4.504828
     9  Cl   3.952899   2.712912   1.689602   2.681172   3.979689
    10  H    3.874908   3.487820   2.214914   1.172162   2.211130
    11  H    3.423309   3.986067   3.492830   2.215147   1.165905
                    6          7          8          9         10
     6  C    0.000000
     7  Cl   1.688371   0.000000
     8  Cl   3.994669   5.333816   0.000000
     9  Cl   4.528424   6.216704   3.209031   0.000000
    10  H    3.480839   4.920954   4.943077   2.838077   0.000000
    11  H    2.218842   2.900112   5.670656   4.895489   2.551207
                   11
    11  H    0.000000
 Stoichiometry    C6H2Cl3(2)
 Framework group  CS[SG(C6H2Cl3)]
 Deg. of freedom    19
 Full point group                 CS      NOp   2
 Largest Abelian subgroup         CS      NOp   2
 Largest concise Abelian subgroup C1      NOp   1
                         Standard orientation:                         
 ---------------------------------------------------------------------
 Center     Atomic      Atomic             Coordinates (Angstroms)
 Number     Number       Type             X           Y           Z
 ---------------------------------------------------------------------
      1          6           0        1.160126    0.133256    0.000000
      2          6           0       -0.000000    0.877043   -0.000000
      3          6           0       -1.215222    0.143034   -0.000000
      4          6           0       -1.157083   -1.257929   -0.000000
      5          6           0        0.045845   -1.942752    0.000000
      6          6           0        1.262407   -1.243577    0.000000
      7         17           0        2.754132   -2.034369    0.000000
      8         17           0        0.048159    2.562075   -0.000000
      9         17           0       -2.712470    0.925979   -0.000000
     10          1           0       -2.163680   -1.858533   -0.000000
     11          1           0        0.060297   -3.108568    0.000000
 ---------------------------------------------------------------------
 Rotational constants (GHZ):           1.8620824           0.6054165           0.4568737
 Standard basis: VSTO-6G (5D, 7F)
 There are    29 symmetry adapted cartesian basis functions of A'  symmetry.
 There are     9 symmetry adapted cartesian basis functions of A"  symmetry.
 There are    29 symmetry adapted basis functions of A'  symmetry.
 There are     9 symmetry adapted basis functions of A"  symmetry.
    38 basis functions,   228 primitive gaussians,    38 cartesian basis functions
    24 alpha electrons       23 beta electrons
       nuclear repulsion energy       243.5150810099 Hartrees.
 Integral buffers will be    131072 words long.
 Regular integral format.
 Two-electron integral symmetry is turned off.
 Do NDO integrals.
 One-electron integrals computed using PRISM.
 NBasis=    38 RedAO= T EigKep=  1.00D+00  NBF=    29     9
 NBsUse=    38 1.00D-06 EigRej= -1.00D+00 NBFU=    29     9
 Initial guess from the checkpoint file:  "geometry_chks/1_34ClBzNeutralRadical.chk"
 B after Tr=    -0.000000   -0.000000    0.000000
         Rot=    0.999990    0.000000    0.000000    0.004401 Ang=   0.50 deg.
 Initial guess orbital symmetries:
 Alpha Orbitals:
       Occupied  (A') (A') (A') (A') (A') (A') (A') (A') (A') (A')
                 (A') (A') (A") (A") (A') (A') (A") (A') (A') (A')
                 (A") (A') (A") (A")
       Virtual   (A") (A") (A') (A') (A') (A') (A') (A") (A') (A')
                 (A') (A') (A') (A')
 Beta  Orbitals:
       Occupied  (A') (A') (A') (A') (A') (A') (A') (A') (A') (A')
                 (A') (A") (A') (A") (A') (A") (A') (A') (A') (A')
                 (A") (A") (A")
       Virtual   (A') (A") (A") (A') (A') (A') (A') (A') (A") (A')
                 (A') (A') (A') (A') (A')
 Initial guess <Sx>= 0.0000 <Sy>= 0.0000 <Sz>= 0.5000 <S**2>= 1.3927 S= 0.7817
 Keep J ints in memory in canonical form, NReq=863588.
 Overlap will be assumed to be unity.
 Requested convergence on RMS density matrix=1.00D-08 within  32 cycles.
 Requested convergence on MAX density matrix=1.00D-06.
 Requested convergence on             energy=1.00D-06.
 No special actions if energy rises.
 Fock symm off for IB=2 I1=    1 I=   30 J=   13 Cut=1.00D-07 Err=1.67D-03
 Fock matrix is not symmetric: symmetry in diagonalization turned off.
 SCF Done:  E(UAM1) =  0.950704019623E-01 A.U. after   17 cycles
            NFock= 16  Conv=0.46D-08     -V/T= 1.0008
 <Sx>= 0.0000 <Sy>= 0.0000 <Sz>= 0.5000 <S**2>= 1.2804 S= 0.7371
 <L.S>=  0.00000000000    
 Annihilation of the first spin contaminant:
 S**2 before annihilation     1.2804,   after     0.9949
 QCSCF skips out because SCF is already converged.
 Calling FoFJK, ICntrl=      2127 FMM=F ISym2X=1 I1Cent= 0 IOpClX= 1 NMat=1 NMatS=1 NMatT=0.
 ***** Axes restored to original set *****
 -------------------------------------------------------------------
 Center     Atomic                   Forces (Hartrees/Bohr)
 Number     Number              X              Y              Z
 -------------------------------------------------------------------
      1        6           0.008325501   -0.006190332   -0.000000000
      2        6          -0.003009640    0.007371428   -0.000000000
      3        6          -0.001438587    0.004115622   -0.000000000
      4        6           0.045005330   -0.017434390   -0.000000000
      5        6          -0.001096377   -0.048741272    0.000000000
      6        6          -0.013258228    0.005907206   -0.000000000
      7       17           0.003034392    0.001734461    0.000000000
      8       17           0.000521309   -0.002325270    0.000000000
      9       17          -0.001949900   -0.000562751    0.000000000
     10        1          -0.035632723    0.018257829    0.000000000
     11        1          -0.000501077    0.037867469    0.000000000
 -------------------------------------------------------------------
 Cartesian Forces:  Max     0.048741272 RMS     0.015730990

 GradGradGradGradGradGradGradGradGradGradGradGradGradGradGradGradGradGrad
 Berny optimization.
 Using GEDIIS/GDIIS optimizer.
 FormGI is forming the generalized inverse of G from B-inverse, IUseBI=4.
 Internal  Forces:  Max     0.040030531 RMS     0.008462346
 Search for a local minimum.
 Step number   4 out of a maximum of   57
 All quantities printed in internal units (Hartrees-Bohrs-Radians)
 Mixed Optimization -- RFO/linear search
 Update second derivatives using D2CorX and points    3    4
 DE= -1.14D-01 DEPred=-1.52D-01 R= 7.52D-01
 TightC=F SS=  1.41D+00  RLast= 8.49D-01 DXNew= 1.4270D+00 2.5456D+00
 Trust test= 7.52D-01 RLast= 8.49D-01 DXMaxT set to 1.43D+00
 ITU=  1  1  1  0
 Use linear search instead of GDIIS.
     Eigenvalues ---    0.02011   0.02011   0.02011   0.02011   0.02011
     Eigenvalues ---    0.02011   0.02011   0.02011   0.05385   0.06868
     Eigenvalues ---    0.16000   0.16048   0.18441   0.22522   0.24720
     Eigenvalues ---    0.25000   0.25001   0.25022   0.26729   0.29033
     Eigenvalues ---    0.29048   0.40598   0.41146   0.43621   0.44656
     Eigenvalues ---    0.44666   0.61827
 RFO step:  Lambda=-1.01341503D-02 EMin= 2.01065742D-02
 Quartic linear search produced a step of  0.20856.
 Iteration  1 RMS(Cart)=  0.04239293 RMS(Int)=  0.01930024
 Iteration  2 RMS(Cart)=  0.01816560 RMS(Int)=  0.00010199
 Iteration  3 RMS(Cart)=  0.00001115 RMS(Int)=  0.00010159
 Iteration  4 RMS(Cart)=  0.00000000 RMS(Int)=  0.00010159
 ClnCor:  largest displacement from symmetrization is 2.60D-09 for atom    11.
 Variable       Old X    -DE/DX   Delta X   Delta X   Delta X     New X
                                 (Linear)    (Quad)   (Total)
    R1        2.60420  -0.00174  -0.01118   0.05022   0.03889   2.64309
    R2        2.60901  -0.00309  -0.01099   0.04957   0.03856   2.64756
    R3        2.68283  -0.00055   0.00125  -0.00460  -0.00348   2.67936
    R4        3.18555  -0.00236  -0.02362   0.10221   0.07859   3.26414
    R5        2.64972   0.00563  -0.00549   0.06116   0.05569   2.70541
    R6        3.19289  -0.00197  -0.02291   0.10404   0.08113   3.27402
    R7        2.61577   0.00998  -0.01230   0.12084   0.10869   2.72445
    R8        2.21506  -0.04003  -0.11801  -0.20825  -0.32626   1.88880
    R9        2.65160   0.00749  -0.00613   0.07608   0.07007   2.72167
   R10        2.20324  -0.03786  -0.12094  -0.11737  -0.23831   1.96493
   R11        3.19056  -0.00349  -0.02326   0.09505   0.07179   3.26235
    A1        2.21506   0.00779   0.01661  -0.04139  -0.02503   2.19003
    A2        2.02812  -0.00291  -0.00965   0.02578   0.01585   2.04397
    A3        2.11234   0.00201   0.00230   0.00409   0.00653   2.11886
    A4        2.14273   0.00090   0.00735  -0.02987  -0.02238   2.12036
    A5        2.07269   0.00168  -0.00364   0.03638   0.03264   2.10533
    A6        2.11641  -0.00163   0.00384  -0.03392  -0.03004   2.08637
    A7        2.09409  -0.00005  -0.00019  -0.00246  -0.00260   2.09148
    A8        2.12981  -0.00113   0.00535  -0.03476  -0.02921   2.10060
    A9        2.06729   0.00142  -0.00371   0.02942   0.02562   2.09290
   A10        2.08609  -0.00029  -0.00164   0.00534   0.00359   2.08968
   A11        2.10244  -0.00341   0.00178  -0.02999  -0.02791   2.07453
   A12        2.10073   0.00089   0.00040   0.00080   0.00105   2.10178
   A13        2.08002   0.00252  -0.00218   0.02919   0.02686   2.10688
   A14        2.01827  -0.00202  -0.01044   0.04398   0.03366   2.05192
   A15        2.13240   0.00109   0.00534  -0.02259  -0.01732   2.11508
   A16        2.13252   0.00094   0.00511  -0.02139  -0.01634   2.11618
    D1        0.00000   0.00000   0.00000   0.00000   0.00000   0.00000
    D2        3.14159   0.00000   0.00000   0.00000   0.00000   3.14159
    D3        0.00000   0.00000   0.00000   0.00000  -0.00000   0.00000
    D4        3.14159  -0.00000   0.00000  -0.00000   0.00000   3.14159
    D5       -0.00000  -0.00000   0.00000  -0.00000   0.00000   0.00000
    D6        3.14159   0.00000   0.00000  -0.00000   0.00000   3.14159
    D7        3.14159  -0.00000   0.00000  -0.00000   0.00000   3.14159
    D8       -0.00000  -0.00000   0.00000  -0.00000   0.00000   0.00000
    D9        0.00000  -0.00000   0.00000  -0.00000   0.00000   0.00000
   D10        3.14159   0.00000   0.00000   0.00000   0.00000   3.14159
   D11        3.14159  -0.00000   0.00000  -0.00000   0.00000   3.14159
   D12       -0.00000   0.00000   0.00000   0.00000   0.00000   0.00000
   D13       -0.00000   0.00000   0.00000   0.00000   0.00000   0.00000
   D14        3.14159   0.00000   0.00000   0.00000   0.00000   3.14159
   D15        3.14159  -0.00000   0.00000   0.00000   0.00000   3.14159
   D16        0.00000   0.00000   0.00000   0.00000  -0.00000   0.00000
   D17       -0.00000  -0.00000   0.00000  -0.00000   0.00000   0.00000
   D18        3.14159   0.00000   0.00000   0.00000   0.00000   3.14159
   D19        3.14159  -0.00000   0.00000  -0.00000   0.00000   3.14159
   D20       -0.00000   0.00000   0.00000   0.00000   0.00000   0.00000
         Item               Value     Threshold  Converged?
 Maximum Force            0.040031     0.000450     NO 
 RMS     Force            0.008462     0.000300     NO 
 Maximum Displacement     0.175332     0.001800     NO 
 RMS     Displacement     0.051876     0.001200     NO 
 Predicted change in Energy=-1.662933D-02
 GradGradGradGradGradGradGradGradGradGradGradGradGradGradGradGradGradGrad

                          Input orientation:                          
 ---------------------------------------------------------------------
 Center     Atomic      Atomic             Coordinates (Angstroms)
 Number     Number       Type             X           Y           Z
 ---------------------------------------------------------------------
      1          6           0       -3.104464    0.079960   -0.000000
      2          6           0       -1.949408    0.868695    0.000000
      3          6           0       -0.704106    0.190806    0.000000
      4          6           0       -0.652534   -1.239904    0.000000
      5          6           0       -1.869550   -2.012834   -0.000000
      6          6           0       -3.132632   -1.320786   -0.000000
      7         17           0       -4.627200   -2.184836   -0.000000
      8         17           0       -2.037567    2.593751    0.000000
      9         17           0        0.766806    1.106285    0.000000
     10          1           0        0.231206   -1.706837    0.000000
     11          1           0       -1.833321   -3.051999   -0.000000
 ---------------------------------------------------------------------
                    Distance matrix (angstroms):
                    1          2          3          4          5
     1  C    0.000000
     2  C    1.398663   0.000000
     3  C    2.402916   1.417854   0.000000
     4  C    2.784601   2.475495   1.431639   0.000000
     5  C    2.429980   2.882636   2.492848   1.441717   0.000000
     6  C    1.401029   2.488744   2.860532   2.481416   1.440245
     7  Cl   2.729106   4.061357   4.586320   4.085445   2.763009
     8  Cl   2.730827   1.727307   2.748138   4.076178   4.609648
     9  Cl   4.005006   2.726586   1.732537   2.742103   4.084027
    10  H    3.784090   3.374677   2.115622   0.999511   2.122925
    11  H    3.380085   3.922413   3.433790   2.162856   1.039796
                    6          7          8          9         10
     6  C    0.000000
     7  Cl   1.726359   0.000000
     8  Cl   4.064821   5.435171   0.000000
     9  Cl   4.593069   6.318763   3.174439   0.000000
    10  H    3.385917   4.881863   4.862344   2.863655   0.000000
    11  H    2.164557   2.925360   5.649444   4.904282   2.464089
                   11
    11  H    0.000000
 Stoichiometry    C6H2Cl3(2)
 Framework group  CS[SG(C6H2Cl3)]
 Deg. of freedom    19
 Full point group                 CS      NOp   2
 Largest Abelian subgroup         CS      NOp   2
 Largest concise Abelian subgroup C1      NOp   1
                         Standard orientation:                         
 ---------------------------------------------------------------------
 Center     Atomic      Atomic             Coordinates (Angstroms)
 Number     Number       Type             X           Y           Z
 ---------------------------------------------------------------------
      1          6           0        1.186398    0.124226    0.000000
      2          6           0       -0.000000    0.864981   -0.000000
      3          6           0       -1.216486    0.136645   -0.000000
      4          6           0       -1.209404   -1.294976    0.000000
      5          6           0        0.038255   -2.017401    0.000000
      6          6           0        1.271925   -1.274190    0.000000
      7         17           0        2.800636   -2.076287    0.000000
      8         17           0        0.017415    2.592200   -0.000000
      9         17           0       -2.723667    0.991097   -0.000000
     10          1           0       -2.073273   -1.797721    0.000000
     11          1           0        0.044627   -3.057178    0.000000
 ---------------------------------------------------------------------
 Rotational constants (GHZ):           1.8517084           0.5828526           0.4433132
 Standard basis: VSTO-6G (5D, 7F)
 There are    29 symmetry adapted cartesian basis functions of A'  symmetry.
 There are     9 symmetry adapted cartesian basis functions of A"  symmetry.
 There are    29 symmetry adapted basis functions of A'  symmetry.
 There are     9 symmetry adapted basis functions of A"  symmetry.
[...]
    R2        2.59718  -0.00003  -0.00006   0.00003  -0.00003   2.59715
    R3        2.68349  -0.00000  -0.00004   0.00004   0.00001   2.68350
    R4        3.17263   0.00001  -0.00008   0.00013   0.00005   3.17267
    R5        2.66210  -0.00002  -0.00005   0.00002  -0.00003   2.66208
    R6        3.18924  -0.00007  -0.00014  -0.00006  -0.00019   3.18905
    R7        2.64398  -0.00002  -0.00009   0.00003  -0.00006   2.64392
    R8        2.08162   0.00022   0.00021   0.00038   0.00059   2.08220
    R9        2.67282  -0.00002  -0.00009   0.00007  -0.00002   2.67280
   R10        2.07758   0.00006   0.00023  -0.00006   0.00018   2.07776
   R11        3.17701  -0.00004  -0.00010  -0.00002  -0.00012   3.17689
    A1        2.24991   0.00001   0.00004  -0.00002   0.00002   2.24993
    A2        2.00399  -0.00001  -0.00003   0.00001  -0.00001   2.00398
    A3        2.12822   0.00005  -0.00004   0.00021   0.00017   2.12839
    A4        2.15097  -0.00004   0.00006  -0.00022  -0.00016   2.15081
    A5        2.08618   0.00001  -0.00003   0.00005   0.00002   2.08620
    A6        2.10839  -0.00003   0.00005  -0.00017  -0.00012   2.10827
    A7        2.08862   0.00002  -0.00002   0.00012   0.00010   2.08871
    A8        2.12756  -0.00002   0.00004  -0.00008  -0.00005   2.12751
    A9        2.07838  -0.00001  -0.00001  -0.00008  -0.00009   2.07829
   A10        2.07725   0.00003  -0.00003   0.00017   0.00014   2.07739
   A11        2.08780   0.00001  -0.00000   0.00004   0.00004   2.08784
   A12        2.09862   0.00002  -0.00001   0.00017   0.00016   2.09877
   A13        2.09677  -0.00003   0.00001  -0.00021  -0.00020   2.09657
   A14        2.01093  -0.00000  -0.00002  -0.00001  -0.00003   2.01090
   A15        2.13999   0.00004  -0.00002   0.00015   0.00013   2.14013
   A16        2.13226  -0.00003   0.00003  -0.00014  -0.00011   2.13216
    D1       -0.00000   0.00000   0.00000   0.00000   0.00000   0.00000
    D2        3.14159   0.00000   0.00000   0.00000   0.00000   3.14159
    D3        0.00000   0.00000   0.00000   0.00000   0.00000   0.00000
    D4        3.14159  -0.00000   0.00000  -0.00000   0.00000   3.14159
    D5       -0.00000  -0.00000   0.00000  -0.00000   0.00000   0.00000
    D6        3.14159   0.00000   0.00000   0.00000   0.00000   3.14159
    D7        3.14159  -0.00000   0.00000  -0.00000   0.00000   3.14159
    D8        0.00000  -0.00000   0.00000  -0.00000   0.00000   0.00000
    D9        0.00000   0.00000   0.00000  -0.00000   0.00000   0.00000
   D10        3.14159   0.00000   0.00000   0.00000   0.00000   3.14159
   D11        3.14159  -0.00000   0.00000  -0.00000   0.00000   3.14159
   D12        0.00000   0.00000   0.00000   0.00000   0.00000   0.00000
   D13       -0.00000   0.00000   0.00000   0.00000   0.00000   0.00000
   D14        3.14159   0.00000   0.00000   0.00000   0.00000   3.14159
   D15        3.14159  -0.00000   0.00000  -0.00000   0.00000   3.14159
   D16        0.00000   0.00000   0.00000   0.00000   0.00000   0.00000
   D17       -0.00000  -0.00000   0.00000  -0.00000   0.00000   0.00000
   D18        3.14159   0.00000   0.00000   0.00000   0.00000   3.14159
   D19        3.14159  -0.00000   0.00000  -0.00000   0.00000   3.14159
   D20        0.00000  -0.00000   0.00000  -0.00000   0.00000   0.00000
         Item               Value     Threshold  Converged?
 Maximum Force            0.000216     0.000450     YES
 RMS     Force            0.000039     0.000300     YES
 Maximum Displacement     0.000565     0.001800     YES
 RMS     Displacement     0.000152     0.001200     YES
 Predicted change in Energy=-1.036352D-07
 Optimization completed.
    -- Stationary point found.
                           ----------------------------
                           !   Optimized Parameters   !
                           ! (Angstroms and Degrees)  !
 --------------------------                            --------------------------
 ! Name  Definition              Value          Derivative Info.                !
 --------------------------------------------------------------------------------
 ! R1    R(1,2)                  1.375          -DE/DX =    0.0                 !
 ! R2    R(1,6)                  1.3744         -DE/DX =    0.0                 !
 ! R3    R(2,3)                  1.42           -DE/DX =    0.0                 !
 ! R4    R(2,8)                  1.6789         -DE/DX =    0.0                 !
 ! R5    R(3,4)                  1.4087         -DE/DX =    0.0                 !
 ! R6    R(3,9)                  1.6877         -DE/DX =   -0.0001              !
 ! R7    R(4,5)                  1.3991         -DE/DX =    0.0                 !
 ! R8    R(4,10)                 1.1015         -DE/DX =    0.0002              !
 ! R9    R(5,6)                  1.4144         -DE/DX =    0.0                 !
 ! R10   R(5,11)                 1.0994         -DE/DX =    0.0001              !
 ! R11   R(6,7)                  1.6812         -DE/DX =    0.0                 !
 ! A1    A(2,1,6)              128.9106         -DE/DX =    0.0                 !
 ! A2    A(1,2,3)              114.8202         -DE/DX =    0.0                 !
 ! A3    A(1,2,8)              121.9383         -DE/DX =    0.0                 !
 ! A4    A(3,2,8)              123.2415         -DE/DX =    0.0                 !
 ! A5    A(2,3,4)              119.5293         -DE/DX =    0.0                 !
 ! A6    A(2,3,9)              120.8018         -DE/DX =    0.0                 !
 ! A7    A(4,3,9)              119.6689         -DE/DX =    0.0                 !
 ! A8    A(3,4,5)              121.9001         -DE/DX =    0.0                 !
 ! A9    A(3,4,10)             119.0823         -DE/DX =    0.0                 !
 ! A10   A(5,4,10)             119.0176         -DE/DX =    0.0                 !
 ! A11   A(4,5,6)              119.622          -DE/DX =    0.0                 !
 ! A12   A(4,5,11)             120.2419         -DE/DX =    0.0                 !
 ! A13   A(6,5,11)             120.1361         -DE/DX =    0.0                 !
 ! A14   A(1,6,5)              115.2178         -DE/DX =    0.0                 !
 ! A15   A(1,6,7)              122.6125         -DE/DX =    0.0                 !
 ! A16   A(5,6,7)              122.1698         -DE/DX =    0.0                 !
 ! D1    D(6,1,2,3)              0.0            -DE/DX =    0.0                 !
 ! D2    D(6,1,2,8)            180.0            -DE/DX =    0.0                 !
 ! D3    D(2,1,6,5)              0.0            -DE/DX =    0.0                 !
 ! D4    D(2,1,6,7)            180.0            -DE/DX =    0.0                 !
 ! D5    D(1,2,3,4)              0.0            -DE/DX =    0.0                 !
 ! D6    D(1,2,3,9)            180.0            -DE/DX =    0.0                 !
 ! D7    D(8,2,3,4)            180.0            -DE/DX =    0.0                 !
 ! D8    D(8,2,3,9)              0.0            -DE/DX =    0.0                 !
 ! D9    D(2,3,4,5)              0.0            -DE/DX =    0.0                 !
 ! D10   D(2,3,4,10)           180.0            -DE/DX =    0.0                 !
 ! D11   D(9,3,4,5)            180.0            -DE/DX =    0.0                 !
 ! D12   D(9,3,4,10)             0.0            -DE/DX =    0.0                 !
 ! D13   D(3,4,5,6)              0.0            -DE/DX =    0.0                 !
 ! D14   D(3,4,5,11)           180.0            -DE/DX =    0.0                 !
 ! D15   D(10,4,5,6)           180.0            -DE/DX =    0.0                 !
 ! D16   D(10,4,5,11)            0.0            -DE/DX =    0.0                 !
 ! D17   D(4,5,6,1)              0.0            -DE/DX =    0.0                 !
 ! D18   D(4,5,6,7)            180.0            -DE/DX =    0.0                 !
 ! D19   D(11,5,6,1)           180.0            -DE/DX =    0.0                 !
 ! D20   D(11,5,6,7)             0.0            -DE/DX =    0.0                 !
 --------------------------------------------------------------------------------
 GradGradGradGradGradGradGradGradGradGradGradGradGradGradGradGradGradGrad

                          Input orientation:                          
 ---------------------------------------------------------------------
 Center     Atomic      Atomic             Coordinates (Angstroms)
 Number     Number       Type             X           Y           Z
 ---------------------------------------------------------------------
      1          6           0       -3.064393    0.067452   -0.000000
      2          6           0       -1.956587    0.881993    0.000000
      3          6           0       -0.712836    0.196717    0.000000
      4          6           0       -0.696225   -1.211910    0.000000
      5          6           0       -1.875248   -1.965223   -0.000000
      6          6           0       -3.126367   -1.305518   -0.000000
      7         17           0       -4.581920   -2.146829   -0.000000
      8         17           0       -2.085033    2.555954    0.000000
      9         17           0        0.743633    1.049328    0.000000
     10          1           0        0.272685   -1.735944    0.000000
     11          1           0       -1.830478   -3.063719   -0.000000
 ---------------------------------------------------------------------
                    Distance matrix (angstroms):
                    1          2          3          4          5
     1  C    0.000000
     2  C    1.375031   0.000000
     3  C    2.355108   1.420043   0.000000
     4  C    2.691652   2.443961   1.408725   0.000000
     5  C    2.354959   2.848377   2.454625   1.399134   0.000000
     6  C    1.374368   2.480643   2.842859   2.431945   1.414394
     7  Cl   2.684386   4.008258   4.523496   3.996586   2.712758
     8  Cl   2.674283   1.678881   2.729272   4.015668   4.526041
     9  Cl   3.932574   2.705400   1.687675   2.680744   3.993250
    10  H    3.793195   3.438496   2.169431   1.101543   2.160135
    11  H    3.365528   3.947727   3.446674   2.171572   1.099408
                    6          7          8          9         10
     6  C    0.000000
     7  Cl   1.681201   0.000000
     8  Cl   3.999418   5.324529   0.000000
     9  Cl   4.530144   6.211033   3.204882   0.000000
    10  H    3.426197   4.871962   4.896859   2.824807   0.000000
    11  H    2.184170   2.900193   5.625435   4.852134   2.487224
                   11
    11  H    0.000000
 Stoichiometry    C6H2Cl3(2)
 Framework group  CS[SG(C6H2Cl3)]
 Deg. of freedom    19
 Full point group                 CS      NOp   2
 Largest Abelian subgroup         CS      NOp   2
 Largest concise Abelian subgroup C1      NOp   1
                         Standard orientation:                         
 ---------------------------------------------------------------------
 Center     Atomic      Atomic             Coordinates (Angstroms)
 Number     Number       Type             X           Y           Z
 ---------------------------------------------------------------------
      1          6           0        1.140954    0.115626   -0.000000
      2          6           0       -0.000000    0.883048   -0.000000
      3          6           0       -1.213954    0.146274   -0.000000
      4          6           0       -1.171545   -1.261813    0.000000
      5          6           0        0.037998   -1.965076    0.000000
      6          6           0        1.260386   -1.253543    0.000000
      7         17           0        2.749902   -2.033143    0.000000
      8         17           0        0.058213    2.560920   -0.000000
      9         17           0       -2.704859    0.937127   -0.000000
     10          1           0       -2.117653   -1.825974    0.000000
     11          1           0        0.039283   -3.064483    0.000000
 ---------------------------------------------------------------------
 Rotational constants (GHZ):           1.8609597           0.6063690           0.4573482

 **********************************************************************

            Population analysis using the SCF Density.

 **********************************************************************

 Orbital symmetries:
 Alpha Orbitals:
       Occupied  (A') (A') (A') (A') (A') (A') (A') (A') (A') (A')
                 (A') (A') (A") (A') (A") (A') (A") (A') (A') (A')
                 (A") (A') (A") (A")
       Virtual   (A") (A") (A') (A') (A') (A") (A') (A') (A') (A')
                 (A') (A') (A') (A')
 Beta  Orbitals:
       Occupied  (A') (A') (A') (A') (A') (A') (A') (A') (A') (A')
                 (A') (A') (A") (A') (A") (A') (A") (A') (A') (A')
                 (A") (A") (A")
       Virtual   (A') (A") (A") (A') (A') (A') (A") (A') (A') (A')
                 (A') (A') (A') (A') (A')
 The electronic state is 2-A'.
 Alpha  occ. eigenvalues --   -1.48188  -1.41444  -1.40133  -1.37976  -1.17103
 Alpha  occ. eigenvalues --   -1.15618  -0.89564  -0.87510  -0.69701  -0.64360
 Alpha  occ. eigenvalues --   -0.64140  -0.59391  -0.57451  -0.53189  -0.51353
 Alpha  occ. eigenvalues --   -0.51213  -0.48712  -0.46732  -0.45183  -0.44652
 Alpha  occ. eigenvalues --   -0.44250  -0.40713  -0.39233  -0.36526
 Alpha virt. eigenvalues --   -0.01487  -0.00511   0.02710   0.03447   0.04896
 Alpha virt. eigenvalues --    0.06828   0.11488   0.12286   0.13092   0.13523
 Alpha virt. eigenvalues --    0.15509   0.15975   0.16741   0.17543
  Beta  occ. eigenvalues --   -1.47548  -1.41508  -1.40063  -1.37711  -1.16560
  Beta  occ. eigenvalues --   -1.14355  -0.89185  -0.85361  -0.69661  -0.63745
  Beta  occ. eigenvalues --   -0.62812  -0.59116  -0.57287  -0.52665  -0.51896
  Beta  occ. eigenvalues --   -0.50767  -0.48878  -0.45415  -0.45135  -0.44406
  Beta  occ. eigenvalues --   -0.44137  -0.38019  -0.36415
  Beta virt. eigenvalues --   -0.01879  -0.01439   0.01069   0.02801   0.03458
  Beta virt. eigenvalues --    0.04818   0.07657   0.12165   0.12864   0.13418
  Beta virt. eigenvalues --    0.14183   0.15795   0.16579   0.17634   0.18311
          Condensed to atoms (all electrons):
               1          2          3          4          5          6
     1  C    4.035419   0.000000   0.000000   0.000000   0.000000   0.000000
     2  C    0.000000   4.052860   0.000000   0.000000   0.000000   0.000000
     3  C    0.000000   0.000000   4.064620   0.000000   0.000000   0.000000
     4  C    0.000000   0.000000   0.000000   4.123397   0.000000   0.000000
     5  C    0.000000   0.000000   0.000000   0.000000   4.112439   0.000000
     6  C    0.000000   0.000000   0.000000   0.000000   0.000000   4.056579
     7  Cl   0.000000   0.000000   0.000000   0.000000   0.000000   0.000000
     8  Cl   0.000000   0.000000   0.000000   0.000000   0.000000   0.000000
     9  Cl   0.000000   0.000000   0.000000   0.000000   0.000000   0.000000
    10  H    0.000000   0.000000   0.000000   0.000000   0.000000   0.000000
    11  H    0.000000   0.000000   0.000000   0.000000   0.000000   0.000000
               7          8          9         10         11
     1  C    0.000000   0.000000   0.000000   0.000000   0.000000
     2  C    0.000000   0.000000   0.000000   0.000000   0.000000
     3  C    0.000000   0.000000   0.000000   0.000000   0.000000
     4  C    0.000000   0.000000   0.000000   0.000000   0.000000
     5  C    0.000000   0.000000   0.000000   0.000000   0.000000
     6  C    0.000000   0.000000   0.000000   0.000000   0.000000
     7  Cl   6.958689   0.000000   0.000000   0.000000   0.000000
     8  Cl   0.000000   6.942805   0.000000   0.000000   0.000000
     9  Cl   0.000000   0.000000   6.971143   0.000000   0.000000
    10  H    0.000000   0.000000   0.000000   0.841894   0.000000
    11  H    0.000000   0.000000   0.000000   0.000000   0.840154
          Atomic-Atomic Spin Densities.
               1          2          3          4          5          6
     1  C    1.419054   0.000000   0.000000   0.000000   0.000000   0.000000
     2  C    0.000000  -0.500438   0.000000   0.000000   0.000000   0.000000
     3  C    0.000000   0.000000   0.513292   0.000000   0.000000   0.000000
     4  C    0.000000   0.000000   0.000000  -0.473268   0.000000   0.000000
     5  C    0.000000   0.000000   0.000000   0.000000   0.513180   0.000000
     6  C    0.000000   0.000000   0.000000   0.000000   0.000000  -0.494493
     7  Cl   0.000000   0.000000   0.000000   0.000000   0.000000   0.000000
     8  Cl   0.000000   0.000000   0.000000   0.000000   0.000000   0.000000
     9  Cl   0.000000   0.000000   0.000000   0.000000   0.000000   0.000000
    10  H    0.000000   0.000000   0.000000   0.000000   0.000000   0.000000
    11  H    0.000000   0.000000   0.000000   0.000000   0.000000   0.000000
               7          8          9         10         11
     1  C    0.000000   0.000000   0.000000   0.000000   0.000000
     2  C    0.000000   0.000000   0.000000   0.000000   0.000000
     3  C    0.000000   0.000000   0.000000   0.000000   0.000000
     4  C    0.000000   0.000000   0.000000   0.000000   0.000000
     5  C    0.000000   0.000000   0.000000   0.000000   0.000000
     6  C    0.000000   0.000000   0.000000   0.000000   0.000000
     7  Cl   0.000046   0.000000   0.000000   0.000000   0.000000
     8  Cl   0.000000  -0.000398   0.000000   0.000000   0.000000
     9  Cl   0.000000   0.000000   0.015824   0.000000   0.000000
    10  H    0.000000   0.000000   0.000000   0.027453   0.000000
    11  H    0.000000   0.000000   0.000000   0.000000  -0.020252
 Mulliken charges and spin densities:
               1          2
     1  C   -0.035419   1.419054
     2  C   -0.052860  -0.500438
     3  C   -0.064620   0.513292
     4  C   -0.123397  -0.473268
     5  C   -0.112439   0.513180
     6  C   -0.056579  -0.494493
     7  Cl   0.041311   0.000046
     8  Cl   0.057195  -0.000398
     9  Cl   0.028857   0.015824
    10  H    0.158106   0.027453
    11  H    0.159846  -0.020252
 Sum of Mulliken charges =  -0.00000   1.00000
 Mulliken charges and spin densities with hydrogens summed into heavy atoms:
               1          2
     1  C   -0.035419   1.419054
     2  C   -0.052860  -0.500438
     3  C   -0.064620   0.513292
     4  C    0.034709  -0.445815
     5  C    0.047407   0.492928
     6  C   -0.056579  -0.494493
     7  Cl   0.041311   0.000046
     8  Cl   0.057195  -0.000398
     9  Cl   0.028857   0.015824
 Charge=              0.0000 electrons
 Dipole moment (field-independent basis, Debye):
    X=             -0.9114    Y=             -1.4428    Z=              0.0000  Tot=              1.7066
 N-N= 2.437320870496D+02 E-N=-3.398110144117D+02  KE=-1.121049613549D+02
 Symmetry A'   KE=-8.614244570054D+01
 Symmetry A"   KE=-2.596251565433D+01
 Symmetry A'   SP= 1.000000000000D+00
 Symmetry A"   SP= 3.330669073875D-16
 1\1\GINC-SH02-01N17\FOpt\UAM1\ZDO\C6H2Cl3(2)\JLAPIER\09-Dec-2025\0\\# 
 opt am1 SCF=XQC\\Neutral Radical (removed 2) 1_34\\0,2\C,-3.0643932539
 ,0.0674518742,0.\C,-1.956587435,0.8819930081,0.\C,-0.7128358267,0.1967
 166281,0.\C,-0.6962245621,-1.2119103067,0.\C,-1.8752477241,-1.96522262
 66,0.\C,-3.1263674915,-1.3055183027,0.\Cl,-4.5819200248,-2.1468286778,
 0.\Cl,-2.085033081,2.5559536717,0.\Cl,0.7436325492,1.0493279666,0.\H,0
 .2726851902,-1.7359444992,0.\H,-1.8304783404,-3.0637187357,0.\\Version
 =ES64L-G16RevB.01\State=2-A'\HF=0.089184\S2=1.306317\S2-1=0.\S2A=1.023
 435\RMSD=5.316e-09\RMSF=6.454e-05\Dipole=0.382054,-0.5521165,0.\PG=CS 
 [SG(C6H2Cl3)]\\@


 IT IS UNWORTHY OF EXCELLENT MEN TO LOSE HOURS LIKE SLAVES IN THE LABOR
 OF CALCULATION WHICH COULD BE SAFELY RELEGATED TO ANYONE ELSE
 IF A MACHINE WERE USED.
    -- G.W. VON LEIBNIZ
 Job cpu time:       0 days  0 hours  0 minutes  7.9 seconds.
 Elapsed time:       0 days  0 hours  0 minutes 17.8 seconds.
 File lengths (MBytes):  RWF=     10 Int=      0 D2E=      0 Chk=      2 Scr=      1
 Normal termination of Gaussian 16 at Tue Dec  9 09:58:56 2025.
