 Entering Gaussian System, Link 0=g16
 Initial command:
 /share/software/user/restricted/gaussian/g16.B01/l1.exe "/home/users/jlapier/Chloroaromatics/Gau-29775.inp" -scrdir="/home/users/jlapier/Chloroaromatics/"
 Entering Link 1 = /share/software/user/restricted/gaussian/g16.B01/l1.exe PID=     29776.
  
 Copyright (c) 1988-2017, Gaussian, Inc.  All Rights Reserved.
  
 This is part of the Gaussian(R) 16 program.  It is based on
 the Gaussian(R) 09 system (copyright 2009, Gaussian, Inc.),
 the Gaussian(R) 03 system (copyright 2003, Gaussian, Inc.),
 the Gaussian(R) 98 system (copyright 1998, Gaussian, Inc.),
 the Gaussian(R) 94 system (copyright 1995, Gaussian, Inc.),
 the Gaussian 92(TM) system (copyright 1992, Gaussian, Inc.),
 the Gaussian 90(TM) system (copyright 1990, Gaussian, Inc.),
 the Gaussian 88(TM) system (copyright 1988, Gaussian, Inc.),
 the Gaussian 86(TM) system (copyright 1986, Carnegie Mellon
 University), and the Gaussian 82(TM) system (copyright 1983,
 Carnegie Mellon University). Gaussian is a federally registered
 trademark of Gaussian, Inc.
  
 This software contains proprietary and confidential information,
 including trade secrets, belonging to Gaussian, Inc.
  
 This software is provided under written license and may be
 used, copied, transmitted, or stored only in accord with that
 written license.
  
 The following legend is applicable only to US Government
 contracts under FAR:
  
                    RESTRICTED RIGHTS LEGEND
  
 Use, reproduction and disclosure by the US Government is
 subject to restrictions as set forth in subparagraphs (a)
 and (c) of the Commercial Computer Software - Restricted
 Rights clause in FAR 52.227-19.
  
 Gaussian, Inc.
 340 Quinnipiac St., Bldg. 40, Wallingford CT 06492
  
  
 ---------------------------------------------------------------
 Warning -- This program may not be used in any manner that
 competes with the business of Gaussian, Inc. or will provide
 assistance to any competitor of Gaussian, Inc.  The licensee
 of this program is prohibited from giving any competitor of
 Gaussian, Inc. access to this program.  By using this program,
 the user acknowledges that Gaussian, Inc. is engaged in the
 business of creating and licensing software in the field of
 computational chemistry and represents and warrants to the
 licensee that it is not a competitor of Gaussian, Inc. and that
 it will not use this program in any manner prohibited above.
 ---------------------------------------------------------------
  

 Cite this work as:
 Gaussian 16, Revision B.01,
 M. J. Frisch, G. W. Trucks, H. B. Schlegel, G. E. Scuseria, 
 M. A. Robb, J. R. Cheeseman, G. Scalmani, V. Barone, 
 G. A. Petersson, H. Nakatsuji, X. Li, M. Caricato, A. V. Marenich, 
 J. Bloino, B. G. Janesko, R. Gomperts, B. Mennucci, H. P. Hratchian, 
 J. V. Ortiz, A. F. Izmaylov, J. L. Sonnenberg, D. Williams-Young, 
 F. Ding, F. Lipparini, F. Egidi, J. Goings, B. Peng, A. Petrone, 
 T. Henderson, D. Ranasinghe, V. G. Zakrzewski, J. Gao, N. Rega, 
 G. Zheng, W. Liang, M. Hada, M. Ehara, K. Toyota, R. Fukuda, 
 J. Hasegawa, M. Ishida, T. Nakajima, Y. Honda, O. Kitao, H. Nakai, 
 T. Vreven, K. Throssell, J. A. Montgomery, Jr., J. E. Peralta, 
 F. Ogliaro, M. J. Bearpark, J. J. Heyd, E. N. Brothers, K. N. Kudin, 
 V. N. Staroverov, T. A. Keith, R. Kobayashi, J. Normand, 
 K. Raghavachari, A. P. Rendell, J. C. Burant, S. S. Iyengar, 
 J. Tomasi, M. Cossi, J. M. Millam, M. Klene, C. Adamo, R. Cammi, 
 J. W. Ochterski, R. L. Martin, K. Morokuma, O. Farkas, 
 J. B. Foresman, and D. J. Fox, Gaussian, Inc., Wallingford CT, 2016.
 
 ******************************************
 Gaussian 16:  ES64L-G16RevB.01 20-Dec-2017
                 8-Dec-2025 
 ******************************************
 %mem=2GB
 %nprocshare=1
 Will use up to    1 processors via shared memory.
 %chk=geometry_chks/1_35ClBzAnionIntermediate.chk
 ---------------------------
 # opt am1 SCF(maxcyc=10000)
 ---------------------------
 1/18=20,19=15,26=1,38=1/1,3;
 2/9=110,12=2,17=6,18=5,40=1/2;
 3/5=2,25=1,41=700000,71=1/1,2,3;
 4/35=1/1;
 5/5=2,7=10000,35=1,38=5/2;
 6/7=2,8=2,9=2,10=2,28=1/1;
 7//1,2,3,16;
 1/18=20,19=15,26=1/3(2);
 2/9=110/2;
 99//99;
 2/9=110/2;
 3/5=2,25=1,41=700000,71=1,135=20/1,2,3;
 4/5=5,16=3,35=1/1;
 5/5=2,7=10000,35=1,38=5/2;
 7//1,2,3,16;
 1/18=20,19=15,26=1/3(-5);
 2/9=110/2;
 6/7=2,8=2,9=2,10=2,19=2,28=1/1;
 99/9=1/99;
 -----------------------------------
 Anion Intermediate (removed 2) 1_35
 -----------------------------------
 Symbolic Z-matrix:
 Charge = -1 Multiplicity = 1
 C                    -3.20928   0.19943   0. 
 C                    -2.0115    0.93555   0. 
 C                    -0.77511   0.2663    0. 
 C                    -0.7365   -1.13907   0. 
 C                    -1.93429  -1.87519   0. 
 C                    -3.17067  -1.20594   0. 
 Cl                   -4.67483  -2.13035   0. 
 Cl                    0.81614  -1.97951   0. 
 H                    -1.8858   -3.64003   0. 
 Cl                   -2.05998   2.7004    0. 
 H                     0.72905   1.19071   0. 
 
 Add virtual bond connecting atoms H9         and C5         Dist= 3.34D+00.
 Add virtual bond connecting atoms H11        and C3         Dist= 3.34D+00.

 GradGradGradGradGradGradGradGradGradGradGradGradGradGradGradGradGradGrad
 Berny optimization.
 Initialization pass.
                           ----------------------------
                           !    Initial Parameters    !
                           ! (Angstroms and Degrees)  !
 --------------------------                            --------------------------
 ! Name  Definition              Value          Derivative Info.                !
 --------------------------------------------------------------------------------
 ! R1    R(1,2)                  1.4059         estimate D2E/DX2                !
 ! R2    R(1,6)                  1.4059         estimate D2E/DX2                !
 ! R3    R(2,3)                  1.4059         estimate D2E/DX2                !
 ! R4    R(2,10)                 1.7655         estimate D2E/DX2                !
 ! R5    R(3,4)                  1.4059         estimate D2E/DX2                !
 ! R6    R(3,11)                 1.7655         estimate D2E/DX2                !
 ! R7    R(4,5)                  1.4059         estimate D2E/DX2                !
 ! R8    R(4,8)                  1.7655         estimate D2E/DX2                !
 ! R9    R(5,6)                  1.4059         estimate D2E/DX2                !
 ! R10   R(5,9)                  1.7655         estimate D2E/DX2                !
 ! R11   R(6,7)                  1.7655         estimate D2E/DX2                !
 ! A1    A(2,1,6)              119.9999         estimate D2E/DX2                !
 ! A2    A(1,2,3)              120.0            estimate D2E/DX2                !
 ! A3    A(1,2,10)             120.0001         estimate D2E/DX2                !
 ! A4    A(3,2,10)             119.9999         estimate D2E/DX2                !
 ! A5    A(2,3,4)              120.0001         estimate D2E/DX2                !
 ! A6    A(2,3,11)             120.0            estimate D2E/DX2                !
 ! A7    A(4,3,11)             119.9999         estimate D2E/DX2                !
 ! A8    A(3,4,5)              119.9997         estimate D2E/DX2                !
 ! A9    A(3,4,8)              120.0003         estimate D2E/DX2                !
 ! A10   A(5,4,8)              120.0            estimate D2E/DX2                !
 ! A11   A(4,5,6)              120.0            estimate D2E/DX2                !
 ! A12   A(4,5,9)              119.9996         estimate D2E/DX2                !
 ! A13   A(6,5,9)              120.0004         estimate D2E/DX2                !
 ! A14   A(1,6,5)              120.0003         estimate D2E/DX2                !
 ! A15   A(1,6,7)              119.9999         estimate D2E/DX2                !
 ! A16   A(5,6,7)              119.9998         estimate D2E/DX2                !
 ! D1    D(6,1,2,3)              0.0            estimate D2E/DX2                !
 ! D2    D(6,1,2,10)           180.0            estimate D2E/DX2                !
 ! D3    D(2,1,6,5)              0.0            estimate D2E/DX2                !
 ! D4    D(2,1,6,7)            180.0            estimate D2E/DX2                !
 ! D5    D(1,2,3,4)              0.0            estimate D2E/DX2                !
 ! D6    D(1,2,3,11)           180.0            estimate D2E/DX2                !
 ! D7    D(10,2,3,4)           180.0            estimate D2E/DX2                !
 ! D8    D(10,2,3,11)            0.0            estimate D2E/DX2                !
 ! D9    D(2,3,4,5)              0.0            estimate D2E/DX2                !
 ! D10   D(2,3,4,8)            180.0            estimate D2E/DX2                !
 ! D11   D(11,3,4,5)           180.0            estimate D2E/DX2                !
 ! D12   D(11,3,4,8)             0.0            estimate D2E/DX2                !
 ! D13   D(3,4,5,6)              0.0            estimate D2E/DX2                !
 ! D14   D(3,4,5,9)            180.0            estimate D2E/DX2                !
 ! D15   D(8,4,5,6)            180.0            estimate D2E/DX2                !
 ! D16   D(8,4,5,9)              0.0            estimate D2E/DX2                !
 ! D17   D(4,5,6,1)              0.0            estimate D2E/DX2                !
 ! D18   D(4,5,6,7)            180.0            estimate D2E/DX2                !
 ! D19   D(9,5,6,1)            180.0            estimate D2E/DX2                !
 ! D20   D(9,5,6,7)              0.0            estimate D2E/DX2                !
 --------------------------------------------------------------------------------
 Trust Radius=3.00D-01 FncErr=1.00D-07 GrdErr=1.00D-07 EigMax=2.50D+02 EigMin=1.00D-04
 Number of steps in this run=     57 maximum allowed number of steps=    100.
 GradGradGradGradGradGradGradGradGradGradGradGradGradGradGradGradGradGrad

                          Input orientation:                          
 ---------------------------------------------------------------------
 Center     Atomic      Atomic             Coordinates (Angstroms)
 Number     Number       Type             X           Y           Z
 ---------------------------------------------------------------------
      1          6           0       -3.209280    0.199430    0.000000
      2          6           0       -2.011500    0.935550    0.000000
      3          6           0       -0.775110    0.266300    0.000000
      4          6           0       -0.736500   -1.139070    0.000000
      5          6           0       -1.934290   -1.875190    0.000000
      6          6           0       -3.170670   -1.205940    0.000000
      7         17           0       -4.674830   -2.130350    0.000000
      8         17           0        0.816140   -1.979510    0.000000
      9          1           0       -1.885800   -3.640030    0.000000
     10         17           0       -2.059980    2.700400    0.000000
     11          1           0        0.729050    1.190710    0.000000
 ---------------------------------------------------------------------
                    Distance matrix (angstroms):
                    1          2          3          4          5
     1  C    0.000000
     2  C    1.405898   0.000000
     3  C    2.435088   1.405900   0.000000
     4  C    2.811801   2.435092   1.405900   0.000000
     5  C    2.435087   2.811800   2.435093   1.405907   0.000000
     6  C    1.405900   2.435088   2.811796   2.435088   1.405892
     7  Cl   2.752401   4.061166   4.577308   4.061167   2.752393
     8  Cl   4.577312   4.061173   2.752406   1.765511   2.752408
     9  H    4.061164   4.577306   4.061163   2.752397   1.765506
    10  Cl   2.752406   1.765516   2.752405   4.061173   4.577316
    11  H    4.061167   2.752403   1.765512   2.752401   4.061173
                    6          7          8          9         10
     6  C    0.000000
     7  Cl   1.765512   0.000000
     8  Cl   4.061165   5.493041   0.000000
     9  H    2.752396   3.171407   3.171404   0.000000
    10  Cl   4.061173   5.493049   5.493052   6.342822   0.000000
    11  H    4.577308   6.342819   3.171416   5.493040   3.171412
                   11
    11  H    0.000000
 Stoichiometry    C6H2Cl3(1-)
 Framework group  CS[SG(C6H2Cl3)]
 Deg. of freedom    19
 Full point group                 CS      NOp   2
 Largest Abelian subgroup         CS      NOp   2
 Largest concise Abelian subgroup C1      NOp   1
                         Standard orientation:                         
 ---------------------------------------------------------------------
 Center     Atomic      Atomic             Coordinates (Angstroms)
 Number     Number       Type             X           Y           Z
 ---------------------------------------------------------------------
      1          6           0       -1.248406    0.720765    0.000000
      2          6           0       -0.030864    1.423717    0.000000
      3          6           0        1.186683    0.720769    0.000000
      4          6           0        1.186688   -0.685131    0.000000
      5          6           0       -0.030864   -1.388083    0.000000
      6          6           0       -1.248401   -0.685135    0.000000
      7         17           0       -2.777377   -1.567894    0.000000
      8         17           0        2.715664   -1.567889    0.000000
      9          1           0       -0.030854   -3.153589    0.000000
     10         17           0       -0.030864    3.189233    0.000000
     11          1           0        2.715659    1.603527    0.000000
 ---------------------------------------------------------------------
 Rotational constants (GHZ):           0.8370884           0.8231885           0.4150401
 Standard basis: VSTO-6G (5D, 7F)
 There are    29 symmetry adapted cartesian basis functions of A'  symmetry.
 There are     9 symmetry adapted cartesian basis functions of A"  symmetry.
 There are    29 symmetry adapted basis functions of A'  symmetry.
 There are     9 symmetry adapted basis functions of A"  symmetry.
    38 basis functions,   228 primitive gaussians,    38 cartesian basis functions
    24 alpha electrons       24 beta electrons
       nuclear repulsion energy       237.0384215789 Hartrees.
 Integral buffers will be    131072 words long.
 Regular integral format.
 Two-electron integral symmetry is turned off.
 Do NDO integrals.
 One-electron integrals computed using PRISM.
 NBasis=    38 RedAO= T EigKep=  1.00D+00  NBF=    29     9
 NBsUse=    38 1.00D-06 EigRej= -1.00D+00 NBFU=    29     9
 Simple Huckel Guess.
 Initial guess orbital symmetries:
       Occupied  (A') (A') (A') (A') (A') (A') (A') (A') (A') (A")
                 (A') (A') (A') (A') (A") (A") (A') (A") (A') (A')
                 (A') (A") (A") (A')
       Virtual   (A') (A") (A") (A') (A") (A') (A') (A') (A') (A')
                 (A') (A') (A') (A')
 The electronic state of the initial guess is 1-A'.
 Keep J ints in memory in canonical form, NReq=863588.
 Overlap will be assumed to be unity.
 Requested convergence on RMS density matrix=1.00D-08 within**** cycles.
 Requested convergence on MAX density matrix=1.00D-06.
 Requested convergence on             energy=1.00D-06.
 No special actions if energy rises.
 Fock symm off for IB=2 I1=    1 I=   30 J=   27 Cut=1.00D-07 Err=7.21D-03
 Fock matrix is not symmetric: symmetry in diagonalization turned off.
 SCF Done:  E(RAM1) =  0.270989140288     A.U. after   15 cycles
            NFock= 14  Conv=0.97D-08     -V/T= 1.0024

 **********************************************************************

            Population analysis using the SCF Density.

 **********************************************************************

 Orbital symmetries:
       Occupied  (A') (A') (A') (A') (A') (A') (A') (A') (A') (A')
                 (A') (A") (A') (A") (A") (A') (A') (A') (A') (A")
                 (A') (A") (A") (A')
       Virtual   (A') (A') (A") (A') (A") (A') (A') (A") (A') (A')
                 (A') (A') (A') (A')
 The electronic state is 1-A'.
 Alpha  occ. eigenvalues --   -1.25827  -1.22512  -1.20984  -1.18414  -0.94362
 Alpha  occ. eigenvalues --   -0.93203  -0.65787  -0.65047  -0.50346  -0.43563
 Alpha  occ. eigenvalues --   -0.38292  -0.37980  -0.37166  -0.33540  -0.32369
 Alpha  occ. eigenvalues --   -0.31353  -0.31014  -0.28857  -0.27460  -0.27288
 Alpha  occ. eigenvalues --   -0.24028  -0.19142  -0.17244  -0.12457
 Alpha virt. eigenvalues --    0.14260   0.15991   0.16633   0.17638   0.18098
 Alpha virt. eigenvalues --    0.21111   0.21845   0.27208   0.31849   0.32104
 Alpha virt. eigenvalues --    0.34057   0.34245   0.36680   0.39026
          Condensed to atoms (all electrons):
               1          2          3          4          5          6
     1  C    4.319028   0.000000   0.000000   0.000000   0.000000   0.000000
     2  C    0.000000   4.067788   0.000000   0.000000   0.000000   0.000000
     3  C    0.000000   0.000000   4.100213   0.000000   0.000000   0.000000
     4  C    0.000000   0.000000   0.000000   4.128347   0.000000   0.000000
     5  C    0.000000   0.000000   0.000000   0.000000   4.100215   0.000000
     6  C    0.000000   0.000000   0.000000   0.000000   0.000000   4.067784
     7  Cl   0.000000   0.000000   0.000000   0.000000   0.000000   0.000000
     8  Cl   0.000000   0.000000   0.000000   0.000000   0.000000   0.000000
     9  H    0.000000   0.000000   0.000000   0.000000   0.000000   0.000000
    10  Cl   0.000000   0.000000   0.000000   0.000000   0.000000   0.000000
    11  H    0.000000   0.000000   0.000000   0.000000   0.000000   0.000000
               7          8          9         10         11
     1  C    0.000000   0.000000   0.000000   0.000000   0.000000
     2  C    0.000000   0.000000   0.000000   0.000000   0.000000
     3  C    0.000000   0.000000   0.000000   0.000000   0.000000
     4  C    0.000000   0.000000   0.000000   0.000000   0.000000
     5  C    0.000000   0.000000   0.000000   0.000000   0.000000
     6  C    0.000000   0.000000   0.000000   0.000000   0.000000
     7  Cl   7.123624   0.000000   0.000000   0.000000   0.000000
     8  Cl   0.000000   7.120556   0.000000   0.000000   0.000000
     9  H    0.000000   0.000000   0.924409   0.000000   0.000000
    10  Cl   0.000000   0.000000   0.000000   7.123625   0.000000
    11  H    0.000000   0.000000   0.000000   0.000000   0.924411
 Mulliken charges:
               1
     1  C   -0.319028
     2  C   -0.067788
     3  C   -0.100213
     4  C   -0.128347
     5  C   -0.100215
     6  C   -0.067784
     7  Cl  -0.123624
     8  Cl  -0.120556
     9  H    0.075591
    10  Cl  -0.123625
    11  H    0.075589
 Sum of Mulliken charges =  -1.00000
 Mulliken charges with hydrogens summed into heavy atoms:
               1
     1  C   -0.319028
     2  C   -0.067788
     3  C   -0.024623
     4  C   -0.128347
     5  C   -0.024625
     6  C   -0.067784
     7  Cl  -0.123624
     8  Cl  -0.120556
    10  Cl  -0.123625
 Charge=             -1.0000 electrons
 Dipole moment (field-independent basis, Debye):
    X=              3.6467    Y=             -2.1054    Z=              0.0000  Tot=              4.2108
 N-N= 2.370384215789D+02 E-N=-3.339911069761D+02  KE=-1.135790729266D+02
 Symmetry A'   KE=-8.751353947786D+01
 Symmetry A"   KE=-2.606553344877D+01
 Calling FoFJK, ICntrl=      2127 FMM=F ISym2X=1 I1Cent= 0 IOpClX= 0 NMat=1 NMatS=1 NMatT=0.
 ***** Axes restored to original set *****
 -------------------------------------------------------------------
 Center     Atomic                   Forces (Hartrees/Bohr)
 Number     Number              X              Y              Z
 -------------------------------------------------------------------
      1        6           0.008224343   -0.004450434   -0.000000000
      2        6           0.008253419   -0.012778233    0.000000000
      3        6           0.061989921    0.045397021    0.000000000
      4        6           0.006694952   -0.003626887   -0.000000000
      5        6          -0.004104673   -0.076725791    0.000000000
      6        6           0.015207089    0.000078929    0.000000000
      7       17           0.024852123    0.013201168   -0.000000000
      8       17          -0.024610000    0.013321377    0.000000000
      9        1          -0.001813659    0.114943714   -0.000000000
     10       17           0.002536281   -0.028028832   -0.000000000
     11        1          -0.097229795   -0.061332032   -0.000000000
 -------------------------------------------------------------------
 Cartesian Forces:  Max     0.114943714 RMS     0.035339513

 GradGradGradGradGradGradGradGradGradGradGradGradGradGradGradGradGradGrad
 Berny optimization.
 FormGI is forming the generalized inverse of G from B-inverse, IUseBI=4.
 Internal  Forces:  Max     0.114950165 RMS     0.027484185
 Search for a local minimum.
 Step number   1 out of a maximum of   57
 All quantities printed in internal units (Hartrees-Bohrs-Radians)
 Mixed Optimization -- RFO/linear search
 Second derivative matrix not updated -- first step.
 ITU=  0
     Eigenvalues ---    0.02011   0.02011   0.02011   0.02011   0.02011
     Eigenvalues ---    0.02011   0.02011   0.02011   0.06524   0.06524
     Eigenvalues ---    0.16000   0.16000   0.23477   0.23493   0.25000
     Eigenvalues ---    0.25000   0.25000   0.25000   0.29033   0.29033
     Eigenvalues ---    0.29033   0.40971   0.41517   0.44656   0.44657
     Eigenvalues ---    0.44657   0.44657
 RFO step:  Lambda=-1.43826725D-01 EMin= 2.01065791D-02
 Linear search not attempted -- first point.
 Maximum step size (   0.300) exceeded in Quadratic search.
    -- Step size scaled by   0.375
 Iteration  1 RMS(Cart)=  0.04849303 RMS(Int)=  0.00130931
 Iteration  2 RMS(Cart)=  0.00127067 RMS(Int)=  0.00000176
 Iteration  3 RMS(Cart)=  0.00000006 RMS(Int)=  0.00000176
 ClnCor:  largest displacement from symmetrization is 7.67D-09 for atom     8.
 Variable       Old X    -DE/DX   Delta X   Delta X   Delta X     New X
                                 (Linear)    (Quad)   (Total)
    R1        2.65676  -0.02593   0.00000  -0.01630  -0.01629   2.64047
    R2        2.65677  -0.02593   0.00000  -0.01630  -0.01629   2.64047
    R3        2.65677  -0.03359   0.00000  -0.02135  -0.02135   2.63542
    R4        3.33634  -0.02809   0.00000  -0.02428  -0.02428   3.31206
    R5        2.65677  -0.03479   0.00000  -0.02230  -0.02231   2.63446
    R6        3.33633  -0.11495   0.00000  -0.20634  -0.20634   3.12999
    R7        2.65678  -0.03480   0.00000  -0.02231  -0.02231   2.63447
    R8        3.33633  -0.02798   0.00000  -0.02419  -0.02419   3.31214
    R9        2.65675  -0.03358   0.00000  -0.02135  -0.02135   2.63540
   R10        3.33632  -0.11495   0.00000  -0.20634  -0.20634   3.12998
   R11        3.33633  -0.02809   0.00000  -0.02428  -0.02428   3.31206
    A1        2.09439  -0.01686   0.00000  -0.01543  -0.01543   2.07897
    A2        2.09439   0.00768   0.00000   0.00745   0.00745   2.10185
    A3        2.09440  -0.00089   0.00000  -0.00092  -0.00092   2.09348
    A4        2.09439  -0.00678   0.00000  -0.00653  -0.00653   2.08786
    A5        2.09440   0.00492   0.00000   0.00460   0.00460   2.09900
    A6        2.09440  -0.00022   0.00000   0.00047   0.00047   2.09487
    A7        2.09439  -0.00470   0.00000  -0.00507  -0.00507   2.08932
    A8        2.09439  -0.00833   0.00000  -0.00867  -0.00867   2.08572
    A9        2.09440   0.00417   0.00000   0.00433   0.00434   2.09874
   A10        2.09440   0.00417   0.00000   0.00433   0.00434   2.09873
   A11        2.09439   0.00492   0.00000   0.00460   0.00460   2.09899
   A12        2.09439  -0.00470   0.00000  -0.00507  -0.00507   2.08932
   A13        2.09440  -0.00022   0.00000   0.00047   0.00047   2.09487
   A14        2.09440   0.00767   0.00000   0.00745   0.00745   2.10185
   A15        2.09439  -0.00089   0.00000  -0.00092  -0.00092   2.09347
   A16        2.09439  -0.00678   0.00000  -0.00653  -0.00653   2.08786
    D1        0.00000   0.00000   0.00000   0.00000   0.00000   0.00000
    D2        3.14159  -0.00000   0.00000  -0.00000   0.00000   3.14159
    D3        0.00000   0.00000   0.00000   0.00000   0.00000   0.00000
    D4        3.14159   0.00000   0.00000   0.00000   0.00000   3.14159
    D5        0.00000  -0.00000   0.00000  -0.00000   0.00000   0.00000
    D6        3.14159  -0.00000   0.00000  -0.00000   0.00000   3.14159
    D7        3.14159   0.00000   0.00000   0.00000   0.00000   3.14159
    D8        0.00000   0.00000   0.00000   0.00000   0.00000   0.00000
    D9        0.00000   0.00000   0.00000   0.00000   0.00000   0.00000
   D10        3.14159   0.00000   0.00000   0.00000   0.00000   3.14159
   D11        3.14159   0.00000   0.00000   0.00000   0.00000   3.14159
   D12        0.00000   0.00000   0.00000   0.00000   0.00000   0.00000
   D13        0.00000   0.00000   0.00000   0.00000   0.00000   0.00000
   D14        3.14159  -0.00000   0.00000  -0.00000   0.00000   3.14159
   D15        3.14159   0.00000   0.00000   0.00000   0.00000   3.14159
   D16        0.00000  -0.00000   0.00000  -0.00000   0.00000   0.00000
   D17        0.00000  -0.00000   0.00000  -0.00000   0.00000   0.00000
   D18        3.14159  -0.00000   0.00000  -0.00000   0.00000   3.14159
   D19        3.14159   0.00000   0.00000   0.00000   0.00000   3.14159
   D20        0.00000  -0.00000   0.00000  -0.00000   0.00000   0.00000
         Item               Value     Threshold  Converged?
 Maximum Force            0.114950     0.000450     NO 
 RMS     Force            0.027484     0.000300     NO 
 Maximum Displacement     0.225398     0.001800     NO 
 RMS     Displacement     0.049706     0.001200     NO 
 Predicted change in Energy=-5.032031D-02
 GradGradGradGradGradGradGradGradGradGradGradGradGradGradGradGradGradGrad

                          Input orientation:                          
 ---------------------------------------------------------------------
 Center     Atomic      Atomic             Coordinates (Angstroms)
 Number     Number       Type             X           Y           Z
 ---------------------------------------------------------------------
      1          6           0       -3.200847    0.194865    0.000000
      2          6           0       -2.004804    0.917266    0.000000
      3          6           0       -0.778524    0.253073    0.000000
      4          6           0       -0.734195   -1.140318    0.000000
      5          6           0       -1.925081   -1.865099    0.000000
      6          6           0       -3.151701   -1.201549    0.000000
      7         17           0       -4.638646   -2.129356    0.000000
      8         17           0        0.807189   -1.974664    0.000000
      9          1           0       -1.878378   -3.520754    0.000000
     10         17           0       -2.041025    2.669559    0.000000
     11          1           0        0.633242    1.119278    0.000000
 ---------------------------------------------------------------------
                    Distance matrix (angstroms):
                    1          2          3          4          5
     1  C    0.000000
     2  C    1.397276   0.000000
     3  C    2.423022   1.394602   0.000000
     4  C    2.804833   2.418284   1.394096   0.000000
     5  C    2.423021   2.783507   2.408578   1.394101   0.000000
     6  C    1.397278   2.409304   2.783503   2.418282   1.394595
     7  Cl   2.732997   4.027286   4.536134   4.027771   2.726402
     8  Cl   4.557544   4.033678   2.734465   1.752711   2.734466
     9  H    3.943952   4.439820   3.930833   2.641142   1.656314
    10  Cl   2.733001   1.752668   2.726410   4.027775   4.536140
    11  H    3.943954   2.645769   1.656319   2.641147   3.930842
                    6          7          8          9         10
     6  C    0.000000
     7  Cl   1.752665   0.000000
     8  Cl   4.033672   5.448032   0.000000
     9  H    2.645764   3.091128   3.098816   0.000000
    10  Cl   4.027291   5.456851   5.448039   6.192450   0.000000
    11  H    4.439823   6.192449   3.098828   5.276185   3.091129
                   11
    11  H    0.000000
 Stoichiometry    C6H2Cl3(1-)
 Framework group  CS[SG(C6H2Cl3)]
 Deg. of freedom    19
 Full point group                 CS      NOp   2
 Largest Abelian subgroup         CS      NOp   2
 Largest concise Abelian subgroup C1      NOp   1
                         Standard orientation:                         
 ---------------------------------------------------------------------
 Center     Atomic      Atomic             Coordinates (Angstroms)
 Number     Number       Type             X           Y           Z
 ---------------------------------------------------------------------
      1          6           0        0.000001    1.444081   -0.000000
      2          6           0        1.204652    0.736130   -0.000000
      3          6           0        1.204287   -0.658471   -0.000000
      4          6           0       -0.000000   -1.360751    0.000000
      5          6           0       -1.204291   -0.658468    0.000000
      6          6           0       -1.204652    0.736127    0.000000
      7         17           0       -2.728423    1.602127    0.000000
      8         17           0       -0.000005   -3.113462    0.000000
      9          1           0       -2.638091   -1.487680    0.000000
     10         17           0        2.728428    1.602127   -0.000000
     11          1           0        2.638095   -1.487681   -0.000000
 ---------------------------------------------------------------------
 Rotational constants (GHZ):           0.8514408           0.8363026           0.4219019
 Standard basis: VSTO-6G (5D, 7F)
 There are    29 symmetry adapted cartesian basis functions of A'  symmetry.
 There are     9 symmetry adapted cartesian basis functions of A"  symmetry.
 There are    29 symmetry adapted basis functions of A'  symmetry.
 There are     9 symmetry adapted basis functions of A"  symmetry.
    38 basis functions,   228 primitive gaussians,    38 cartesian basis functions
    24 alpha electrons       24 beta electrons
       nuclear repulsion energy       238.4609297957 Hartrees.
 Integral buffers will be    131072 words long.
 Regular integral format.
 Two-electron integral symmetry is turned off.
 Do NDO integrals.
 One-electron integrals computed using PRISM.
 NBasis=    38 RedAO= T EigKep=  1.00D+00  NBF=    29     9
 NBsUse=    38 1.00D-06 EigRej= -1.00D+00 NBFU=    29     9
 Initial guess from the checkpoint file:  "geometry_chks/1_35ClBzAnionIntermediate.chk"
 B after Tr=    -0.000000   -0.000000    0.000000
         Rot=    0.866025   -0.000000    0.000000    0.500001 Ang=  60.00 deg.
 Initial guess orbital symmetries:
       Occupied  (A') (A') (A') (A') (A') (A') (A') (A') (A') (A')
                 (A') (A") (A') (A") (A") (A') (A') (A') (A') (A")
                 (A') (A") (A") (A')
       Virtual   (A') (A') (A") (A') (A") (A') (A') (A") (A') (A')
                 (A') (A') (A') (A')
 Keep J ints in memory in canonical form, NReq=863588.
 Overlap will be assumed to be unity.
 Requested convergence on RMS density matrix=1.00D-08 within**** cycles.
 Requested convergence on MAX density matrix=1.00D-06.
 Requested convergence on             energy=1.00D-06.
 No special actions if energy rises.
 Fock symm off for IB=2 I1=    1 I=   30 J=    8 Cut=1.00D-07 Err=1.08D-03
 Fock matrix is not symmetric: symmetry in diagonalization turned off.
 SCF Done:  E(RAM1) =  0.217169266993     A.U. after   13 cycles
            NFock= 12  Conv=0.72D-08     -V/T= 1.0019
 Calling FoFJK, ICntrl=      2127 FMM=F ISym2X=1 I1Cent= 0 IOpClX= 0 NMat=1 NMatS=1 NMatT=0.
 ***** Axes restored to original set *****
 -------------------------------------------------------------------
 Center     Atomic                   Forces (Hartrees/Bohr)
 Number     Number              X              Y              Z
 -------------------------------------------------------------------
      1        6           0.000494829   -0.000267502    0.000000000
      2        6           0.003905876   -0.003555431   -0.000000000
      3        6           0.083203672    0.058233101    0.000000000
      4        6           0.013121741   -0.007105386    0.000000000
      5        6          -0.003254204   -0.101505453   -0.000000000
      6        6           0.005108978   -0.001323850   -0.000000000
      7       17           0.017679003    0.009182367   -0.000000000
      8       17          -0.018431040    0.009976747   -0.000000000
      9        1          -0.002179007    0.119958727   -0.000000000
     10       17           0.001978761   -0.019824824   -0.000000000
     11        1          -0.101628606   -0.063768496   -0.000000000
 -------------------------------------------------------------------
 Cartesian Forces:  Max     0.119958727 RMS     0.039285014

 GradGradGradGradGradGradGradGradGradGradGradGradGradGradGradGradGradGrad
 Berny optimization.
 Using GEDIIS/GDIIS optimizer.
 FormGI is forming the generalized inverse of G from B-inverse, IUseBI=4.
 Internal  Forces:  Max     0.119972471 RMS     0.026006791
 Search for a local minimum.
 Step number   2 out of a maximum of   57
 All quantities printed in internal units (Hartrees-Bohrs-Radians)
 Mixed Optimization -- RFO/linear search
 Update second derivatives using D2CorX and points    1    2
 DE= -5.38D-02 DEPred=-5.03D-02 R= 1.07D+00
 TightC=F SS=  1.41D+00  RLast= 3.00D-01 DXNew= 5.0454D-01 9.0000D-01
 Trust test= 1.07D+00 RLast= 3.00D-01 DXMaxT set to 5.05D-01
 ITU=  1  0
 Use linear search instead of GDIIS.
 Linear search step of   0.600 exceeds DXMaxT=   0.505 but not scaled.
 Quartic linear search produced a step of  2.00000.
 Iteration  1 RMS(Cart)=  0.05980576 RMS(Int)=  0.04387487
 Iteration  2 RMS(Cart)=  0.04026891 RMS(Int)=  0.00261780
 Iteration  3 RMS(Cart)=  0.00255753 RMS(Int)=  0.00001027
 Iteration  4 RMS(Cart)=  0.00000003 RMS(Int)=  0.00001027
 ClnCor:  largest displacement from symmetrization is 1.76D-08 for atom     8.
 Variable       Old X    -DE/DX   Delta X   Delta X   Delta X     New X
                                 (Linear)    (Quad)   (Total)
    R1        2.64047  -0.01246  -0.03259   0.00000  -0.03257   2.60790
    R2        2.64047  -0.01246  -0.03259   0.00000  -0.03257   2.60790
    R3        2.63542  -0.01659  -0.04270   0.00000  -0.04270   2.59271
    R4        3.31206  -0.01986  -0.04856   0.00000  -0.04856   3.26350
    R5        2.63446  -0.01631  -0.04461   0.00000  -0.04463   2.58983
    R6        3.12999  -0.11997  -0.41269   0.00000  -0.41269   2.71730
    R7        2.63447  -0.01631  -0.04462   0.00000  -0.04463   2.58984
    R8        3.31214  -0.02096  -0.04838   0.00000  -0.04838   3.26376
    R9        2.63540  -0.01658  -0.04269   0.00000  -0.04269   2.59271
   R10        3.12998  -0.11997  -0.41269   0.00000  -0.41269   2.71729
   R11        3.31206  -0.01986  -0.04855   0.00000  -0.04855   3.26350
    A1        2.07897  -0.01190  -0.03086   0.00000  -0.03082   2.04815
    A2        2.10185   0.00611   0.01491   0.00000   0.01492   2.11676
    A3        2.09348  -0.00046  -0.00184   0.00000  -0.00184   2.09163
    A4        2.08786  -0.00565  -0.01307   0.00000  -0.01307   2.07479
    A5        2.09900   0.00300   0.00920   0.00000   0.00918   2.10818
    A6        2.09487   0.00039   0.00094   0.00000   0.00095   2.09581
    A7        2.08932  -0.00338  -0.01014   0.00000  -0.01013   2.07919
    A8        2.08572  -0.00631  -0.01735   0.00000  -0.01738   2.06834
    A9        2.09874   0.00316   0.00867   0.00000   0.00869   2.10743
   A10        2.09873   0.00316   0.00867   0.00000   0.00869   2.10742
   A11        2.09899   0.00300   0.00920   0.00000   0.00918   2.10818
   A12        2.08932  -0.00338  -0.01014   0.00000  -0.01013   2.07919
   A13        2.09487   0.00039   0.00094   0.00000   0.00095   2.09582
   A14        2.10185   0.00611   0.01490   0.00000   0.01491   2.11676
   A15        2.09347  -0.00046  -0.00184   0.00000  -0.00184   2.09163
   A16        2.08786  -0.00565  -0.01306   0.00000  -0.01307   2.07479
    D1        0.00000  -0.00000   0.00000   0.00000  -0.00000   0.00000
    D2        3.14159  -0.00000   0.00000   0.00000   0.00000   3.14159
    D3       -0.00000   0.00000   0.00000   0.00000   0.00000   0.00000
    D4        3.14159   0.00000   0.00000   0.00000   0.00000   3.14159
    D5       -0.00000   0.00000   0.00000   0.00000   0.00000   0.00000
    D6        3.14159  -0.00000   0.00000   0.00000   0.00000   3.14159
    D7        3.14159   0.00000   0.00000   0.00000   0.00000   3.14159
    D8        0.00000  -0.00000   0.00000   0.00000   0.00000   0.00000
    D9        0.00000   0.00000   0.00000   0.00000  -0.00000   0.00000
   D10        3.14159  -0.00000   0.00000   0.00000   0.00000   3.14159
   D11        3.14159   0.00000   0.00000   0.00000   0.00000   3.14159
   D12       -0.00000   0.00000   0.00000   0.00000   0.00000   0.00000
   D13       -0.00000  -0.00000   0.00000   0.00000   0.00000   0.00000
   D14        3.14159  -0.00000   0.00000   0.00000   0.00000   3.14159
   D15        3.14159   0.00000   0.00000   0.00000   0.00000   3.14159
   D16        0.00000  -0.00000   0.00000   0.00000   0.00000   0.00000
   D17        0.00000   0.00000   0.00000   0.00000   0.00000   0.00000
   D18        3.14159   0.00000   0.00000   0.00000   0.00000   3.14159
   D19        3.14159   0.00000   0.00000   0.00000   0.00000   3.14159
   D20        0.00000   0.00000   0.00000   0.00000   0.00000   0.00000
         Item               Value     Threshold  Converged?
 Maximum Force            0.119972     0.000450     NO 
 RMS     Force            0.026007     0.000300     NO 
 Maximum Displacement     0.450515     0.001800     NO 
 RMS     Displacement     0.099372     0.001200     NO 
 Predicted change in Energy=-1.053173D-01
 GradGradGradGradGradGradGradGradGradGradGradGradGradGradGradGradGradGrad

                          Input orientation:                          
 ---------------------------------------------------------------------
 Center     Atomic      Atomic             Coordinates (Angstroms)
 Number     Number       Type             X           Y           Z
 ---------------------------------------------------------------------
      1          6           0       -3.183410    0.185428   -0.000000
      2          6           0       -1.991268    0.880630   -0.000000
      3          6           0       -0.785181    0.226606   -0.000000
      4          6           0       -0.729701   -1.142751    0.000000
      5          6           0       -1.906558   -1.845055    0.000000
      6          6           0       -3.113628   -1.192849    0.000000
      7         17           0       -4.566242   -2.126842    0.000000
      8         17           0        0.789169   -1.964909    0.000000
      9          1           0       -1.863941   -3.282352    0.000000
     10         17           0       -2.003536    2.607558   -0.000000
     11          1           0        0.441527    0.976836   -0.000000
 ---------------------------------------------------------------------
                    Distance matrix (angstroms):
                    1          2          3          4          5
     1  C    0.000000
     2  C    1.380039   0.000000
     3  C    2.398583   1.372004   0.000000
     4  C    2.790116   2.384454   1.370480   0.000000
     5  C    2.398585   2.727000   2.355688   1.370483   0.000000
     6  C    1.380042   2.357754   2.726998   2.384454   1.372002
     7  Cl   2.694219   3.959214   4.453666   3.960743   2.674570
     8  Cl   4.517226   3.978432   2.698391   1.727110   2.698390
     9  H    3.710323   4.164929   3.671037   2.421652   1.437929
    10  Cl   2.694219   1.726971   2.674570   3.960741   4.453668
    11  H    3.710323   2.434697   1.437935   2.421657   3.671045
                    6          7          8          9         10
     6  C    0.000000
     7  Cl   1.726971   0.000000
     8  Cl   3.978430   5.357858   0.000000
     9  H    2.434695   2.938985   2.962204   0.000000
    10  Cl   3.959217   5.383494   5.357859   5.891564   0.000000
    11  H    4.164933   5.891568   2.962215   4.843126   2.938977
                   11
    11  H    0.000000
 Stoichiometry    C6H2Cl3(1-)
 Framework group  CS[SG(C6H2Cl3)]
 Deg. of freedom    19
 Full point group                 CS      NOp   2
 Largest Abelian subgroup         CS      NOp   2
 Largest concise Abelian subgroup C1      NOp   1
                         Standard orientation:                         
 ---------------------------------------------------------------------
 Center     Atomic      Atomic             Coordinates (Angstroms)
 Number     Number       Type             X           Y           Z
 ---------------------------------------------------------------------
      1          6           0        1.272297    0.692380   -0.000000
      2          6           0        1.205607   -0.686047   -0.000000
      3          6           0        0.000000   -1.340958   -0.000000
      4          6           0       -1.178428   -0.641298    0.000000
      5          6           0       -1.126021    0.728182    0.000000
      6          6           0        0.078596    1.384908    0.000000
      7         17           0        0.086996    3.111859    0.000000
      8         17           0       -2.695452   -1.466856    0.000000
      9          1           0       -2.354408    1.475650    0.000000
     10         17           0        2.660309   -1.616785   -0.000000
     11          1           0       -0.039385   -2.778353   -0.000000
 ---------------------------------------------------------------------
 Rotational constants (GHZ):           0.8811909           0.8635960           0.4361524
 Standard basis: VSTO-6G (5D, 7F)
 There are    29 symmetry adapted cartesian basis functions of A'  symmetry.
 There are     9 symmetry adapted cartesian basis functions of A"  symmetry.
 There are    29 symmetry adapted basis functions of A'  symmetry.
 There are     9 symmetry adapted basis functions of A"  symmetry.
    38 basis functions,   228 primitive gaussians,    38 cartesian basis functions
    24 alpha electrons       24 beta electrons
       nuclear repulsion energy       241.4315450231 Hartrees.
 Integral buffers will be    131072 words long.
 Regular integral format.
 Two-electron integral symmetry is turned off.
 Do NDO integrals.
 One-electron integrals computed using PRISM.
 NBasis=    38 RedAO= T EigKep=  1.00D+00  NBF=    29     9
 NBsUse=    38 1.00D-06 EigRej= -1.00D+00 NBFU=    29     9
 Initial guess from the checkpoint file:  "geometry_chks/1_35ClBzAnionIntermediate.chk"
 B after Tr=     0.000000    0.000000    0.000000
         Rot=    0.859651   -0.000000    0.000000    0.510881 Ang=  61.45 deg.
 Initial guess orbital symmetries:
       Occupied  (A') (A') (A') (A') (A') (A') (A') (A') (A') (A')
                 (A') (A") (A') (A") (A') (A") (A') (A') (A') (A")
                 (A') (A") (A") (A')
       Virtual   (A') (A") (A') (A') (A") (A') (A') (A") (A') (A')
                 (A') (A') (A') (A')
 Keep J ints in memory in canonical form, NReq=863588.
 Overlap will be assumed to be unity.
 Requested convergence on RMS density matrix=1.00D-08 within**** cycles.
 Requested convergence on MAX density matrix=1.00D-06.
 Requested convergence on             energy=1.00D-06.
 No special actions if energy rises.
 Fock symm off for IB=2 I1=    1 I=   30 J=    8 Cut=1.00D-07 Err=3.58D-03
 Fock matrix is not symmetric: symmetry in diagonalization turned off.
 SCF Done:  E(RAM1) =  0.118071157650     A.U. after   14 cycles
            NFock= 13  Conv=0.25D-08     -V/T= 1.0010
 Calling FoFJK, ICntrl=      2127 FMM=F ISym2X=1 I1Cent= 0 IOpClX= 0 NMat=1 NMatS=1 NMatT=0.
 ***** Axes restored to original set *****
 -------------------------------------------------------------------
 Center     Atomic                   Forces (Hartrees/Bohr)
 Number     Number              X              Y              Z
 -------------------------------------------------------------------
      1        6          -0.016522993    0.008941953    0.000000000
      2        6          -0.007987990    0.017017095   -0.000000000
      3        6           0.116134473    0.078207475    0.000000000
      4        6           0.028071889   -0.015196886    0.000000000
      5        6          -0.001976550   -0.139997449    0.000000000
      6        6          -0.018616645   -0.002614592   -0.000000000
      7       17           0.002032665    0.000254029   -0.000000000
      8       17          -0.004813179    0.002605521   -0.000000000
      9        1          -0.002659519    0.111202772   -0.000000000
     10       17           0.000898622   -0.001840864    0.000000000
     11        1          -0.094560773   -0.058579055   -0.000000000
 -------------------------------------------------------------------
 Cartesian Forces:  Max     0.139997449 RMS     0.044745167

 GradGradGradGradGradGradGradGradGradGradGradGradGradGradGradGradGradGrad
 Berny optimization.
 Using GEDIIS/GDIIS optimizer.
 FormGI is forming the generalized inverse of G from B-inverse, IUseBI=4.
 Internal  Forces:  Max     0.111233263 RMS     0.024366661
 Search for a local minimum.
 Step number   3 out of a maximum of   57
 All quantities printed in internal units (Hartrees-Bohrs-Radians)
 Mixed Optimization -- RFO/linear search
 Update second derivatives using D2CorX and points    2    3
 ITU=  0  1  0
 Use linear search instead of GDIIS.
 Linear search step of   0.785 exceeds DXMaxT=   0.505 but not scaled.
 Quartic linear search produced a step of  1.30853.
 Iteration  1 RMS(Cart)=  0.06766664 RMS(Int)=  0.07014122
 Iteration  2 RMS(Cart)=  0.04024027 RMS(Int)=  0.02888392
 Iteration  3 RMS(Cart)=  0.02821111 RMS(Int)=  0.00001969
 Iteration  4 RMS(Cart)=  0.00000041 RMS(Int)=  0.00001969
 ClnCor:  largest displacement from symmetrization is 1.16D-08 for atom     7.
 Variable       Old X    -DE/DX   Delta X   Delta X   Delta X     New X
                                 (Linear)    (Quad)   (Total)
    R1        2.60790   0.01679  -0.04262   0.00000  -0.04260   2.56530
    R2        2.60790   0.01679  -0.04262   0.00000  -0.04260   2.56531
    R3        2.59271   0.02285  -0.05588   0.00000  -0.05588   2.53683
    R4        3.26350  -0.00185  -0.06354   0.00000  -0.06354   3.19996
    R5        2.58983   0.02701  -0.05840   0.00000  -0.05842   2.53141
    R6        2.71730  -0.11123  -0.54001   0.00000  -0.54001   2.17729
    R7        2.58984   0.02701  -0.05840   0.00000  -0.05843   2.53141
    R8        3.26376  -0.00547  -0.06331   0.00000  -0.06331   3.20046
    R9        2.59271   0.02285  -0.05587   0.00000  -0.05587   2.53684
   R10        2.71729  -0.11123  -0.54001   0.00000  -0.54001   2.17728
   R11        3.26350  -0.00185  -0.06353   0.00000  -0.06353   3.19997
    A1        2.04815   0.00063  -0.04032   0.00000  -0.04025   2.00790
    A2        2.11676   0.00273   0.01952   0.00000   0.01954   2.13631
    A3        2.09163   0.00008  -0.00241   0.00000  -0.00243   2.08921
    A4        2.07479  -0.00281  -0.01711   0.00000  -0.01712   2.05767
    A5        2.10818  -0.00261   0.01201   0.00000   0.01198   2.12016
    A6        2.09581   0.00217   0.00124   0.00000   0.00126   2.09707
    A7        2.07919   0.00044  -0.01326   0.00000  -0.01324   2.06595
    A8        2.06834  -0.00086  -0.02274   0.00000  -0.02280   2.04554
    A9        2.10743   0.00043   0.01137   0.00000   0.01140   2.11882
   A10        2.10742   0.00043   0.01137   0.00000   0.01140   2.11882
   A11        2.10818  -0.00261   0.01201   0.00000   0.01198   2.12016
   A12        2.07919   0.00044  -0.01325   0.00000  -0.01324   2.06595
   A13        2.09582   0.00217   0.00124   0.00000   0.00126   2.09708
   A14        2.11676   0.00273   0.01952   0.00000   0.01954   2.13630
   A15        2.09163   0.00008  -0.00241   0.00000  -0.00242   2.08921
   A16        2.07479  -0.00281  -0.01710   0.00000  -0.01711   2.05768
    D1        0.00000  -0.00000   0.00000   0.00000   0.00000   0.00000
    D2        3.14159  -0.00000   0.00000   0.00000   0.00000   3.14159
    D3       -0.00000   0.00000   0.00000   0.00000   0.00000   0.00000
    D4        3.14159   0.00000   0.00000   0.00000   0.00000   3.14159
    D5       -0.00000  -0.00000   0.00000   0.00000   0.00000   0.00000
    D6        3.14159  -0.00000   0.00000   0.00000   0.00000   3.14159
    D7        3.14159   0.00000   0.00000   0.00000   0.00000   3.14159
    D8       -0.00000  -0.00000   0.00000   0.00000   0.00000   0.00000
    D9       -0.00000   0.00000   0.00000   0.00000   0.00000   0.00000
   D10        3.14159  -0.00000   0.00000   0.00000   0.00000   3.14159
   D11        3.14159   0.00000   0.00000   0.00000   0.00000   3.14159
   D12        0.00000  -0.00000   0.00000   0.00000  -0.00000   0.00000
   D13        0.00000  -0.00000   0.00000   0.00000  -0.00000   0.00000
   D14        3.14159  -0.00000   0.00000   0.00000   0.00000   3.14159
   D15        3.14159   0.00000   0.00000   0.00000   0.00000   3.14159
   D16       -0.00000  -0.00000   0.00000   0.00000   0.00000   0.00000
   D17        0.00000  -0.00000   0.00000   0.00000   0.00000   0.00000
   D18        3.14159  -0.00000   0.00000   0.00000   0.00000   3.14159
   D19        3.14159   0.00000   0.00000   0.00000   0.00000   3.14159
   D20        0.00000   0.00000   0.00000   0.00000   0.00000   0.00000
         Item               Value     Threshold  Converged?
 Maximum Force            0.111233     0.000450     NO 
 RMS     Force            0.024367     0.000300     NO 
 Maximum Displacement     0.588932     0.001800     NO 
 RMS     Displacement     0.129945     0.001200     NO 
 Predicted change in Energy=-9.681954D-02
 GradGradGradGradGradGradGradGradGradGradGradGradGradGradGradGradGradGrad

                          Input orientation:                          
 ---------------------------------------------------------------------
 Center     Atomic      Atomic             Coordinates (Angstroms)
 Number     Number       Type             X           Y           Z
 ---------------------------------------------------------------------
      1          6           0       -3.159457    0.172463   -0.000000
      2          6           0       -1.973263    0.832573   -0.000000
      3          6           0       -0.793542    0.191956   -0.000000
      4          6           0       -0.724059   -1.145805    0.000000
      5          6           0       -1.882115   -1.819108    0.000000
      6          6           0       -3.063549   -1.181647    0.000000
      7         17           0       -4.471452   -2.122520    0.000000
      8         17           0        0.765351   -1.952015    0.000000
      9          1           0       -1.845848   -2.970703    0.000000
     10         17           0       -1.955320    2.525825   -0.000000
     11          1           0        0.190484    0.791282   -0.000000
 ---------------------------------------------------------------------
                    Distance matrix (angstroms):
                    1          2          3          4          5
     1  C    0.000000
     2  C    1.357498   0.000000
     3  C    2.365995   1.342434   0.000000
     4  C    2.769294   2.339762   1.339564   0.000000
     5  C    2.366000   2.653247   2.286781   1.339564   0.000000
     6  C    1.357502   2.290372   2.653246   2.339765   1.342439
     7  Cl   2.643536   3.869564   4.345552   3.872587   2.607053
     8  Cl   4.462904   3.905628   2.650803   1.693610   2.650800
     9  H    3.406620   3.805409   3.333130   2.142116   1.152166
    10  Cl   2.643531   1.693347   2.607043   3.872579   4.345549
    11  H    3.406617   2.164140   1.152172   2.142124   3.333137
                    6          7          8          9         10
     6  C    0.000000
     7  Cl   1.693350   0.000000
     8  Cl   3.905629   5.239578   0.000000
     9  H    2.164143   2.759205   2.802871   0.000000
    10  Cl   3.869563   5.285645   5.239570   5.497617   0.000000
    11  H    3.805414   5.497626   2.802882   4.277754   2.759187
                   11
    11  H    0.000000
 Stoichiometry    C6H2Cl3(1-)
 Framework group  CS[SG(C6H2Cl3)]
 Deg. of freedom    19
 Full point group                 CS      NOp   2
 Largest Abelian subgroup         CS      NOp   2
 Largest concise Abelian subgroup C1      NOp   1
                         Standard orientation:                         
 ---------------------------------------------------------------------
 Center     Atomic      Atomic             Coordinates (Angstroms)
 Number     Number       Type             X           Y           Z
 ---------------------------------------------------------------------
      1          6           0        0.000001    1.452887    0.000000
      2          6           0        1.145185    0.723946    0.000000
      3          6           0        1.143390   -0.618488    0.000000
      4          6           0        0.000001   -1.316408    0.000000
      5          6           0       -1.143390   -0.618492    0.000000
      6          6           0       -1.145187    0.723946    0.000000
      7         17           0       -2.642823    1.514213    0.000000
      8         17           0        0.000001   -3.010018    0.000000
      9          1           0       -2.138872   -1.198580    0.000000
     10         17           0        2.642821    1.514205    0.000000
     11          1           0        2.138881   -1.198571    0.000000
 ---------------------------------------------------------------------
 Rotational constants (GHZ):           0.9223448           0.9015726           0.4559202
 Standard basis: VSTO-6G (5D, 7F)
 There are    29 symmetry adapted cartesian basis functions of A'  symmetry.
 There are     9 symmetry adapted cartesian basis functions of A"  symmetry.
 There are    29 symmetry adapted basis functions of A'  symmetry.
 There are     9 symmetry adapted basis functions of A"  symmetry.
    38 basis functions,   228 primitive gaussians,    38 cartesian basis functions
    24 alpha electrons       24 beta electrons
       nuclear repulsion energy       245.6147332842 Hartrees.
 Integral buffers will be    131072 words long.
 Regular integral format.
 Two-electron integral symmetry is turned off.
 Do NDO integrals.
 One-electron integrals computed using PRISM.
 NBasis=    38 RedAO= T EigKep=  1.00D+00  NBF=    29     9
 NBsUse=    38 1.00D-06 EigRej= -1.00D+00 NBFU=    29     9
 Initial guess from the checkpoint file:  "geometry_chks/1_35ClBzAnionIntermediate.chk"
 B after Tr=     0.000000   -0.000000   -0.000000
         Rot=    0.859651    0.000000   -0.000000   -0.510881 Ang= -61.45 deg.
 Initial guess orbital symmetries:
       Occupied  (A') (A') (A') (A') (A') (A') (A') (A') (A') (A')
                 (A") (A') (A') (A') (A") (A") (A') (A') (A') (A")
                 (A') (A") (A") (A')
       Virtual   (A") (A') (A") (A') (A') (A') (A') (A") (A') (A')
                 (A') (A') (A') (A')
 Keep J ints in memory in canonical form, NReq=863588.
 Overlap will be assumed to be unity.
 Requested convergence on RMS density matrix=1.00D-08 within**** cycles.
 Requested convergence on MAX density matrix=1.00D-06.
 Requested convergence on             energy=1.00D-06.
 No special actions if energy rises.
 Fock symm off for IB=2 I1=    1 I=   30 J=    1 Cut=1.00D-07 Err=7.38D-03
 Fock matrix is not symmetric: symmetry in diagonalization turned off.
 SCF Done:  E(RAM1) =  0.524920388641E-01 A.U. after   14 cycles
            NFock= 13  Conv=0.31D-08     -V/T= 1.0005
 Calling FoFJK, ICntrl=      2127 FMM=F ISym2X=1 I1Cent= 0 IOpClX= 0 NMat=1 NMatS=1 NMatT=0.
 ***** Axes restored to original set *****
 -------------------------------------------------------------------
 Center     Atomic                   Forces (Hartrees/Bohr)
 Number     Number              X              Y              Z
 -------------------------------------------------------------------
      1        6          -0.042855053    0.023192296    0.000000000
      2        6          -0.031371454    0.048611351    0.000000000
      3        6           0.109935117    0.075087041    0.000000000
      4        6           0.054101162   -0.029284154    0.000000000
      5        6          -0.002762918   -0.133096490    0.000000000
      6        6          -0.057850836   -0.000313500   -0.000000000
      7       17          -0.021494600   -0.013471235   -0.000000000
      8       17           0.016033178   -0.008678362   -0.000000000
      9        1          -0.001565097    0.024887282   -0.000000000
     10       17          -0.000474506    0.025365914   -0.000000000
     11        1          -0.021694994   -0.012300141   -0.000000000
 -------------------------------------------------------------------
 Cartesian Forces:  Max     0.133096490 RMS     0.039374813

 GradGradGradGradGradGradGradGradGradGradGradGradGradGradGradGradGradGrad
 Berny optimization.
 Using GEDIIS/GDIIS optimizer.
 FormGI is forming the generalized inverse of G from B-inverse, IUseBI=4.
 Internal  Forces:  Max     0.098649507 RMS     0.031322694
 Search for a local minimum.
 Step number   4 out of a maximum of   57
 All quantities printed in internal units (Hartrees-Bohrs-Radians)
 Mixed Optimization -- RFO/linear search
 Update second derivatives using D2CorX and points    3    4
 ITU=  0  0  1  0
 Use linear search instead of GDIIS.
     Eigenvalues ---    0.02011   0.02011   0.02011   0.02011   0.02011
     Eigenvalues ---    0.02011   0.02011   0.02011   0.06524   0.11787
     Eigenvalues ---    0.16000   0.16000   0.23471   0.23657   0.24993
     Eigenvalues ---    0.25000   0.25000   0.25016   0.28586   0.29033
     Eigenvalues ---    0.29054   0.40450   0.41615   0.44656   0.44656
     Eigenvalues ---    0.44657   0.59210
 RFO step:  Lambda=-9.02183494D-02 EMin= 2.01065812D-02
 Quartic linear search produced a step of -0.02981.
 Iteration  1 RMS(Cart)=  0.07410130 RMS(Int)=  0.00484062
 Iteration  2 RMS(Cart)=  0.00444411 RMS(Int)=  0.00014602
 Iteration  3 RMS(Cart)=  0.00000319 RMS(Int)=  0.00014600
 Iteration  4 RMS(Cart)=  0.00000000 RMS(Int)=  0.00014600
 ClnCor:  largest displacement from symmetrization is 5.10D-11 for atom     9.
 Variable       Old X    -DE/DX   Delta X   Delta X   Delta X     New X
                                 (Linear)    (Quad)   (Total)
    R1        2.56530   0.06023   0.00127   0.10037   0.10145   2.66675
    R2        2.56531   0.06022   0.00127   0.10036   0.10144   2.66675
    R3        2.53683   0.08758   0.00167   0.14798   0.14964   2.68648
    R4        3.19996   0.02536   0.00189   0.06034   0.06223   3.26219
    R5        2.53141   0.09865   0.00174   0.16884   0.17078   2.70219
    R6        2.17729  -0.02493   0.01610  -0.23914  -0.22304   1.95425
    R7        2.53141   0.09865   0.00174   0.16885   0.17078   2.70219
    R8        3.20046   0.01823   0.00189   0.04323   0.04512   3.24558
    R9        2.53684   0.08757   0.00167   0.14796   0.14963   2.68647
   R10        2.17728  -0.02492   0.01610  -0.23912  -0.22303   1.95425
   R11        3.19997   0.02536   0.00189   0.06033   0.06222   3.26219
    A1        2.00790   0.02253   0.00120   0.05010   0.05073   2.05864
    A2        2.13631  -0.00194  -0.00058  -0.00711  -0.00787   2.12844
    A3        2.08921  -0.00022   0.00007   0.00074   0.00089   2.09010
    A4        2.05767   0.00216   0.00051   0.00638   0.00697   2.06465
    A5        2.12016  -0.01362  -0.00036  -0.03337  -0.03350   2.08667
    A6        2.09707   0.00596  -0.00004   0.01395   0.01379   2.11086
    A7        2.06595   0.00766   0.00039   0.01943   0.01970   2.08566
    A8        2.04554   0.00859   0.00068   0.03087   0.03199   2.07753
    A9        2.11882  -0.00430  -0.00034  -0.01544  -0.01599   2.10283
   A10        2.11882  -0.00430  -0.00034  -0.01543  -0.01599   2.10283
   A11        2.12016  -0.01362  -0.00036  -0.03337  -0.03349   2.08667
   A12        2.06595   0.00766   0.00039   0.01943   0.01971   2.08566
   A13        2.09708   0.00596  -0.00004   0.01394   0.01379   2.11086
   A14        2.13630  -0.00194  -0.00058  -0.00711  -0.00786   2.12844
   A15        2.08921  -0.00022   0.00007   0.00074   0.00089   2.09010
   A16        2.05768   0.00216   0.00051   0.00637   0.00697   2.06465
    D1        0.00000   0.00000   0.00000  -0.00000   0.00000   0.00000
    D2        3.14159  -0.00000   0.00000  -0.00000   0.00000   3.14159
    D3        0.00000   0.00000   0.00000   0.00000   0.00000   0.00000
    D4        3.14159   0.00000   0.00000   0.00000   0.00000   3.14159
    D5        0.00000  -0.00000   0.00000  -0.00000   0.00000   0.00000
    D6        3.14159  -0.00000   0.00000  -0.00000   0.00000   3.14159
    D7        3.14159   0.00000   0.00000   0.00000   0.00000   3.14159
    D8        0.00000  -0.00000   0.00000  -0.00000   0.00000   0.00000
    D9        0.00000   0.00000   0.00000   0.00000   0.00000   0.00000
   D10        3.14159  -0.00000   0.00000  -0.00000   0.00000   3.14159
   D11        3.14159   0.00000   0.00000   0.00000   0.00000   3.14159
   D12        0.00000   0.00000   0.00000   0.00000   0.00000   0.00000
   D13        0.00000   0.00000   0.00000   0.00000   0.00000   0.00000
   D14        3.14159  -0.00000   0.00000  -0.00000   0.00000   3.14159
   D15        3.14159   0.00000   0.00000   0.00000   0.00000   3.14159
   D16        0.00000  -0.00000   0.00000  -0.00000   0.00000   0.00000
   D17        0.00000  -0.00000   0.00000  -0.00000   0.00000   0.00000
   D18        3.14159  -0.00000   0.00000  -0.00000   0.00000   3.14159
   D19        3.14159   0.00000   0.00000   0.00000   0.00000   3.14159
   D20        0.00000   0.00000   0.00000   0.00000   0.00000   0.00000
         Item               Value     Threshold  Converged?
 Maximum Force            0.098650     0.000450     NO 
 RMS     Force            0.031323     0.000300     NO 
 Maximum Displacement     0.201894     0.001800     NO 
 RMS     Displacement     0.074099     0.001200     NO 
 Predicted change in Energy=-5.587964D-02
 GradGradGradGradGradGradGradGradGradGradGradGradGradGradGradGradGradGrad

                          Input orientation:                          
 ---------------------------------------------------------------------
 Center     Atomic      Atomic             Coordinates (Angstroms)
 Number     Number       Type             X           Y           Z
 ---------------------------------------------------------------------
      1          6           0       -3.183940    0.185713    0.000000
      2          6           0       -1.968638    0.902986    0.000000
      3          6           0       -0.707648    0.246548    0.000000
      4          6           0       -0.656327   -1.182467    0.000000
      5          6           0       -1.880861   -1.920870    0.000000
      6          6           0       -3.119972   -1.224019    0.000000
      7         17           0       -4.578290   -2.147781    0.000000
      8         17           0        0.854078   -2.000042    0.000000
      9          1           0       -1.852149   -2.954617    0.000000
     10         17           0       -1.992596    2.629097    0.000000
     11          1           0        0.173573    0.787751    0.000000
 ---------------------------------------------------------------------
                    Distance matrix (angstroms):
                    1          2          3          4          5
     1  C    0.000000
     2  C    1.411183   0.000000
     3  C    2.477039   1.421622   0.000000
     4  C    2.874150   2.463995   1.429936   0.000000
     5  C    2.477036   2.825220   2.464575   1.429938   0.000000
     6  C    1.411183   2.418619   2.825220   2.463995   1.421618
     7  Cl   2.718347   4.014656   4.551338   4.039013   2.706956
     8  Cl   4.591635   4.049111   2.736084   1.717485   2.736085
     9  H    3.411062   3.859362   3.399609   2.137875   1.034146
    10  Cl   2.718350   1.726277   2.706960   4.039014   4.551339
    11  H    3.411061   2.145308   1.034143   2.137871   3.399607
                    6          7          8          9         10
     6  C    0.000000
     7  Cl   1.726276   0.000000
     8  Cl   4.049109   5.434376   0.000000
     9  H    2.145308   2.843032   2.869648   0.000000
    10  Cl   4.014658   5.431793   5.434380   5.585481   0.000000
    11  H    3.859359   5.585477   2.869648   4.255452   2.843034
                   11
    11  H    0.000000
 Stoichiometry    C6H2Cl3(1-)
 Framework group  CS[SG(C6H2Cl3)]
 Deg. of freedom    19
 Full point group                 CS      NOp   2
 Largest Abelian subgroup         CS      NOp   2
 Largest concise Abelian subgroup C1      NOp   1
                         Standard orientation:                         
 ---------------------------------------------------------------------
 Center     Atomic      Atomic             Coordinates (Angstroms)
 Number     Number       Type             X           Y           Z
 ---------------------------------------------------------------------
      1          6           0        0.000000    1.474424    0.000000
      2          6           0        1.209310    0.747095    0.000000
      3          6           0        1.232287   -0.674341   -0.000000
      4          6           0       -0.000000   -1.399727   -0.000000
      5          6           0       -1.232288   -0.674337   -0.000000
      6          6           0       -1.209309    0.747095    0.000000
      7         17           0       -2.715895    1.589845    0.000000
      8         17           0       -0.000003   -3.117211   -0.000000
      9          1           0       -2.127728   -1.191681   -0.000000
     10         17           0        2.715898    1.589844    0.000000
     11          1           0        2.127724   -1.191683   -0.000000
 ---------------------------------------------------------------------
 Rotational constants (GHZ):           0.8518043           0.8471901           0.4247455
 Standard basis: VSTO-6G (5D, 7F)
 There are    29 symmetry adapted cartesian basis functions of A'  symmetry.
 There are     9 symmetry adapted cartesian basis functions of A"  symmetry.
 There are    29 symmetry adapted basis functions of A'  symmetry.
 There are     9 symmetry adapted basis functions of A"  symmetry.
    38 basis functions,   228 primitive gaussians,    38 cartesian basis functions
    24 alpha electrons       24 beta electrons
       nuclear repulsion energy       240.4459849328 Hartrees.
 Integral buffers will be    131072 words long.
 Regular integral format.
 Two-electron integral symmetry is turned off.
 Do NDO integrals.
 One-electron integrals computed using PRISM.
 NBasis=    38 RedAO= T EigKep=  1.00D+00  NBF=    29     9
 NBsUse=    38 1.00D-06 EigRej= -1.00D+00 NBFU=    29     9
 Initial guess from the checkpoint file:  "geometry_chks/1_35ClBzAnionIntermediate.chk"
 B after Tr=    -0.000000    0.000000   -0.000000
         Rot=    1.000000    0.000000    0.000000    0.000000 Ang=   0.00 deg.
 Initial guess orbital symmetries:
       Occupied  (A') (A') (A') (A') (A') (A') (A') (A') (A') (A')
                 (A') (A") (A') (A') (A") (A") (A') (A') (A') (A")
                 (A') (A") (A") (A')
       Virtual   (A") (A') (A") (A') (A') (A') (A") (A') (A') (A')
                 (A') (A') (A') (A')
 Keep J ints in memory in canonical form, NReq=863588.
 Overlap will be assumed to be unity.
 Requested convergence on RMS density matrix=1.00D-08 within**** cycles.
 Requested convergence on MAX density matrix=1.00D-06.
 Requested convergence on             energy=1.00D-06.
 No special actions if energy rises.
 Fock symm off for IB=2 I1=    1 I=   30 J=   23 Cut=1.00D-07 Err=1.36D-03
 Fock matrix is not symmetric: symmetry in diagonalization turned off.
 SCF Done:  E(RAM1) =  0.355242667027E-01 A.U. after   14 cycles
            NFock= 13  Conv=0.29D-08     -V/T= 1.0003
 Calling FoFJK, ICntrl=      2127 FMM=F ISym2X=1 I1Cent= 0 IOpClX= 0 NMat=1 NMatS=1 NMatT=0.
 ***** Axes restored to original set *****
 -------------------------------------------------------------------
 Center     Atomic                   Forces (Hartrees/Bohr)
 Number     Number              X              Y              Z
 -------------------------------------------------------------------
      1        6           0.015608724   -0.008447328    0.000000000
      2        6           0.000555213   -0.039502900   -0.000000000
      3        6          -0.054150810   -0.040519339    0.000000000
      4        6          -0.044890949    0.024297951   -0.000000000
      5        6           0.004319945    0.067490944    0.000000000
      6        6           0.033376320    0.021135250   -0.000000000
      7       17           0.006296204    0.003128529    0.000000000
      8       17          -0.006196986    0.003354411   -0.000000000
      9        1           0.001883726   -0.049378333   -0.000000000
     10       17           0.000823352   -0.006983245    0.000000000
     11        1           0.042375261    0.025424060   -0.000000000
 -------------------------------------------------------------------
 Cartesian Forces:  Max     0.067490944 RMS     0.024754676

 GradGradGradGradGradGradGradGradGradGradGradGradGradGradGradGradGradGrad
 Berny optimization.
 Using GEDIIS/GDIIS optimizer.
 FormGI is forming the generalized inverse of G from B-inverse, IUseBI=4.
 Internal  Forces:  Max     0.049414406 RMS     0.016498759
 Search for a local minimum.
 Step number   5 out of a maximum of   57
 All quantities printed in internal units (Hartrees-Bohrs-Radians)
 Mixed Optimization -- RFO/linear search
 Update second derivatives using D2CorX and points    4    5
 DE= -1.70D-02 DEPred=-5.59D-02 R= 3.04D-01
 Trust test= 3.04D-01 RLast= 4.91D-01 DXMaxT set to 5.05D-01
 ITU=  0  0  0  1  0
 Use linear search instead of GDIIS.
     Eigenvalues ---    0.02011   0.02011   0.02011   0.02011   0.02011
     Eigenvalues ---    0.02011   0.02011   0.02011   0.06524   0.15999
     Eigenvalues ---    0.16000   0.19334   0.23405   0.23505   0.24996
     Eigenvalues ---    0.25000   0.25000   0.25131   0.28776   0.29033
     Eigenvalues ---    0.29051   0.40937   0.41709   0.44632   0.44656
     Eigenvalues ---    0.44657   0.74798
 RFO step:  Lambda=-9.18326483D-03 EMin= 2.01065811D-02
 Quartic linear search produced a step of -0.38708.
 Iteration  1 RMS(Cart)=  0.04241816 RMS(Int)=  0.00101717
 Iteration  2 RMS(Cart)=  0.00088569 RMS(Int)=  0.00003564
 Iteration  3 RMS(Cart)=  0.00000038 RMS(Int)=  0.00003564
 ClnCor:  largest displacement from symmetrization is 1.22D-10 for atom     9.
 Variable       Old X    -DE/DX   Delta X   Delta X   Delta X     New X
                                 (Linear)    (Quad)   (Total)
    R1        2.66675  -0.03090  -0.03927   0.00874  -0.03049   2.63626
    R2        2.66675  -0.03090  -0.03927   0.00873  -0.03049   2.63626
    R3        2.68648  -0.03206  -0.05792   0.02895  -0.02897   2.65751
    R4        3.26219  -0.00699  -0.02409   0.01778  -0.00631   3.25589
    R5        2.70219  -0.03919  -0.06610   0.02896  -0.03719   2.66500
    R6        1.95425   0.04941   0.08634   0.11848   0.20482   2.15906
    R7        2.70219  -0.03920  -0.06611   0.02896  -0.03719   2.66500
    R8        3.24558  -0.00705  -0.01746   0.00930  -0.00817   3.23741
    R9        2.68647  -0.03205  -0.05792   0.02895  -0.02896   2.65750
   R10        1.95425   0.04941   0.08633   0.11846   0.20479   2.15904
   R11        3.26219  -0.00699  -0.02408   0.01778  -0.00630   3.25588
    A1        2.05864  -0.01064  -0.01964   0.00108  -0.01842   2.04022
    A2        2.12844   0.00833   0.00305   0.01619   0.01928   2.14771
    A3        2.09010  -0.00298  -0.00035  -0.00658  -0.00694   2.08316
    A4        2.06465  -0.00535  -0.00270  -0.00961  -0.01233   2.05231
    A5        2.08667  -0.00850   0.01297  -0.03765  -0.02474   2.06192
    A6        2.11086   0.00475  -0.00534   0.01933   0.01402   2.12488
    A7        2.08566   0.00375  -0.00763   0.01832   0.01072   2.09638
    A8        2.07753   0.01099  -0.01238   0.04184   0.02935   2.10688
    A9        2.10283  -0.00549   0.00619  -0.02092  -0.01468   2.08815
   A10        2.10283  -0.00549   0.00619  -0.02092  -0.01468   2.08815
   A11        2.08667  -0.00850   0.01296  -0.03765  -0.02474   2.06192
   A12        2.08566   0.00375  -0.00763   0.01832   0.01072   2.09638
   A13        2.11086   0.00475  -0.00534   0.01933   0.01402   2.12488
   A14        2.12844   0.00833   0.00304   0.01619   0.01927   2.14771
   A15        2.09010  -0.00298  -0.00035  -0.00657  -0.00694   2.08316
   A16        2.06465  -0.00535  -0.00270  -0.00962  -0.01233   2.05231
    D1       -0.00000  -0.00000   0.00000  -0.00000   0.00000   0.00000
    D2        3.14159  -0.00000   0.00000  -0.00000   0.00000   3.14159
    D3        0.00000   0.00000   0.00000   0.00000  -0.00000   0.00000
    D4        3.14159   0.00000   0.00000   0.00000   0.00000   3.14159
    D5        0.00000   0.00000   0.00000  -0.00000  -0.00000   0.00000
    D6        3.14159  -0.00000   0.00000  -0.00000   0.00000   3.14159
    D7        3.14159   0.00000   0.00000   0.00000   0.00000   3.14159
    D8       -0.00000  -0.00000   0.00000  -0.00000   0.00000   0.00000
    D9       -0.00000  -0.00000   0.00000   0.00000   0.00000   0.00000
   D10        3.14159  -0.00000   0.00000  -0.00000   0.00000   3.14159
   D11        3.14159   0.00000   0.00000   0.00000   0.00000   3.14159
   D12        0.00000   0.00000   0.00000   0.00000  -0.00000   0.00000
   D13        0.00000   0.00000   0.00000   0.00000  -0.00000   0.00000
   D14        3.14159  -0.00000   0.00000  -0.00000   0.00000   3.14159
   D15        3.14159   0.00000   0.00000   0.00000   0.00000   3.14159
   D16       -0.00000  -0.00000   0.00000  -0.00000   0.00000   0.00000
   D17       -0.00000  -0.00000   0.00000  -0.00000   0.00000   0.00000
   D18        3.14159  -0.00000   0.00000  -0.00000   0.00000   3.14159
   D19        3.14159   0.00000   0.00000   0.00000   0.00000   3.14159
   D20        0.00000   0.00000   0.00000   0.00000  -0.00000   0.00000
         Item               Value     Threshold  Converged?
 Maximum Force            0.049414     0.000450     NO 
 RMS     Force            0.016499     0.000300     NO 
 Maximum Displacement     0.181919     0.001800     NO 
 RMS     Displacement     0.043193     0.001200     NO 
 Predicted change in Energy=-1.388600D-02
 GradGradGradGradGradGradGradGradGradGradGradGradGradGradGradGradGradGrad

                          Input orientation:                          
 ---------------------------------------------------------------------
 Center     Atomic      Atomic             Coordinates (Angstroms)
 Number     Number       Type             X           Y           Z
 ---------------------------------------------------------------------
      1          6           0       -3.183868    0.185674    0.000000
      2          6           0       -1.975981    0.883652   -0.000000
      3          6           0       -0.722115    0.246881   -0.000000
      4          6           0       -0.692189   -1.163057    0.000000
      5          6           0       -1.889050   -1.908942    0.000000
      6          6           0       -3.107800   -1.207301    0.000000
      7         17           0       -4.561206   -2.132576    0.000000
      8         17           0        0.814416   -1.978574    0.000000
      9          1           0       -1.852813   -3.050884    0.000000
     10         17           0       -1.995985    2.606477   -0.000000
     11          1           0        0.253820    0.840951   -0.000000
 ---------------------------------------------------------------------
                    Distance matrix (angstroms):
                    1          2          3          4          5
     1  C    0.000000
     2  C    1.395050   0.000000
     3  C    2.462514   1.406292   0.000000
     4  C    2.833291   2.416017   1.410255   0.000000
     5  C    2.462513   2.793947   2.451389   1.410256   0.000000
     6  C    1.395050   2.377625   2.793947   2.416017   1.406290
     7  Cl   2.696543   3.972534   4.516684   3.988642   2.681497
     8  Cl   4.546454   3.997331   2.704363   1.713163   2.704363
     9  H    3.499574   3.936464   3.486221   2.216065   1.142517
    10  Cl   2.696544   1.722940   2.681499   3.988642   4.516685
    11  H    3.499583   2.230209   1.142526   2.216072   3.486230
                    6          7          8          9         10
     6  C    0.000000
     7  Cl   1.722940   0.000000
     8  Cl   3.997329   5.377827   0.000000
     9  H    2.230200   2.859840   2.874710   0.000000
    10  Cl   3.972535   5.388783   5.377829   5.659173   0.000000
    11  H    3.936473   5.659181   2.874716   4.425413   2.859843
                   11
    11  H    0.000000
 Stoichiometry    C6H2Cl3(1-)
 Framework group  CS[SG(C6H2Cl3)]
 Deg. of freedom    19
 Full point group                 CS      NOp   2
 Largest Abelian subgroup         CS      NOp   2
 Largest concise Abelian subgroup C1      NOp   1
                         Standard orientation:                         
 ---------------------------------------------------------------------
 Center     Atomic      Atomic             Coordinates (Angstroms)
 Number     Number       Type             X           Y           Z
 ---------------------------------------------------------------------
      1          6           0        0.000000    1.465609    0.000000
      2          6           0        1.188813    0.735616   -0.000000
      3          6           0        1.225695   -0.670192   -0.000000
      4          6           0       -0.000000   -1.367682   -0.000000
      5          6           0       -1.225695   -0.670191    0.000000
      6          6           0       -1.188812    0.735616    0.000000
      7         17           0       -2.694391    1.573325    0.000000
      8         17           0       -0.000002   -3.080845   -0.000000
      9          1           0       -2.212702   -1.245657    0.000000
     10         17           0        2.694392    1.573324   -0.000000
     11          1           0        2.212710   -1.245663   -0.000000
 ---------------------------------------------------------------------
 Rotational constants (GHZ):           0.8711746           0.8601125           0.4328041
 Standard basis: VSTO-6G (5D, 7F)
 There are    29 symmetry adapted cartesian basis functions of A'  symmetry.
 There are     9 symmetry adapted cartesian basis functions of A"  symmetry.
 There are    29 symmetry adapted basis functions of A'  symmetry.
 There are     9 symmetry adapted basis functions of A"  symmetry.
    38 basis functions,   228 primitive gaussians,    38 cartesian basis functions
    24 alpha electrons       24 beta electrons
       nuclear repulsion energy       241.3013203588 Hartrees.
 Integral buffers will be    131072 words long.
 Regular integral format.
 Two-electron integral symmetry is turned off.
 Do NDO integrals.
 One-electron integrals computed using PRISM.
 NBasis=    38 RedAO= T EigKep=  1.00D+00  NBF=    29     9
 NBsUse=    38 1.00D-06 EigRej= -1.00D+00 NBFU=    29     9
 Initial guess from the checkpoint file:  "geometry_chks/1_35ClBzAnionIntermediate.chk"
 B after Tr=    -0.000000   -0.000000   -0.000000
         Rot=    1.000000    0.000000   -0.000000   -0.000000 Ang=  -0.00 deg.
 Initial guess orbital symmetries:
       Occupied  (A') (A') (A') (A') (A') (A') (A') (A') (A') (A')
                 (A') (A') (A") (A') (A") (A') (A") (A') (A') (A")
                 (A') (A") (A") (A')
[...]
 Fock matrix is not symmetric: symmetry in diagonalization turned off.
 SCF Done:  E(RAM1) =  0.232770466020E-01 A.U. after   11 cycles
            NFock= 10  Conv=0.39D-08     -V/T= 1.0002
 Calling FoFJK, ICntrl=      2127 FMM=F ISym2X=1 I1Cent= 0 IOpClX= 0 NMat=1 NMatS=1 NMatT=0.
 ***** Axes restored to original set *****
 -------------------------------------------------------------------
 Center     Atomic                   Forces (Hartrees/Bohr)
 Number     Number              X              Y              Z
 -------------------------------------------------------------------
      1        6           0.000170696   -0.000092118    0.000000000
      2        6          -0.000412256   -0.000066429   -0.000000000
      3        6           0.000531222    0.000279386    0.000000000
      4        6          -0.000375163    0.000209002    0.000000000
      5        6           0.000055071   -0.000550202    0.000000000
      6        6          -0.000172590    0.000385731   -0.000000000
      7       17           0.000185001    0.000032345   -0.000000000
      8       17           0.000036273   -0.000019473    0.000000000
      9        1          -0.000077601   -0.000090857   -0.000000000
     10       17           0.000074192   -0.000172540   -0.000000000
     11        1          -0.000014846    0.000085155   -0.000000000
 -------------------------------------------------------------------
 Cartesian Forces:  Max     0.000550202 RMS     0.000201133

 GradGradGradGradGradGradGradGradGradGradGradGradGradGradGradGradGradGrad
 Berny optimization.
 Using GEDIIS/GDIIS optimizer.
 FormGI is forming the generalized inverse of G from B-inverse, IUseBI=4.
 Internal  Forces:  Max     0.000281506 RMS     0.000119865
 Search for a local minimum.
 Step number   8 out of a maximum of   57
 All quantities printed in internal units (Hartrees-Bohrs-Radians)
 Mixed Optimization -- En-DIIS/RFO-DIIS
 Swapping is turned off.
 Update second derivatives using D2CorX and points    4    5    6    7    8
 DE= -3.71D-05 DEPred=-3.92D-05 R= 9.46D-01
 TightC=F SS=  1.41D+00  RLast= 1.58D-02 DXNew= 1.4270D+00 4.7391D-02
 Trust test= 9.46D-01 RLast= 1.58D-02 DXMaxT set to 8.49D-01
 ITU=  1  1  1  0  0  0  1  0
     Eigenvalues ---    0.02011   0.02011   0.02011   0.02011   0.02011
     Eigenvalues ---    0.02011   0.02011   0.02011   0.06524   0.15916
     Eigenvalues ---    0.16000   0.18043   0.23526   0.24657   0.25000
     Eigenvalues ---    0.25000   0.25067   0.28515   0.29033   0.29359
     Eigenvalues ---    0.34770   0.40843   0.43944   0.44323   0.44656
     Eigenvalues ---    0.44657   0.79336
 En-DIIS/RFO-DIIS/Sim-DIIS IScMMF=       -3 using points:     8    7
 RFO step:  Lambda=-2.65331383D-06.
 DidBck=F Rises=F RFO-DIIS coefs:    1.02268   -0.02268
 Iteration  1 RMS(Cart)=  0.00051636 RMS(Int)=  0.00000017
 Iteration  2 RMS(Cart)=  0.00000025 RMS(Int)=  0.00000004
 ClnCor:  largest displacement from symmetrization is 4.96D-14 for atom    11.
 Variable       Old X    -DE/DX   Delta X   Delta X   Delta X     New X
                                 (Linear)    (Quad)   (Total)
    R1        2.62206  -0.00016  -0.00001  -0.00047  -0.00048   2.62158
    R2        2.62206  -0.00016  -0.00001  -0.00047  -0.00048   2.62159
    R3        2.64278   0.00009  -0.00000   0.00019   0.00019   2.64297
    R4        3.26145  -0.00017   0.00011  -0.00047  -0.00036   3.26109
    R5        2.64214   0.00019  -0.00008   0.00037   0.00029   2.64243
    R6        2.07493   0.00003  -0.00010  -0.00047  -0.00057   2.07436
    R7        2.64214   0.00020  -0.00008   0.00038   0.00030   2.64244
    R8        3.25070   0.00004   0.00026   0.00032   0.00058   3.25128
    R9        2.64278   0.00010  -0.00000   0.00021   0.00021   2.64298
   R10        2.07478   0.00009  -0.00010   0.00038   0.00027   2.07505
   R11        3.26145  -0.00017   0.00011  -0.00047  -0.00036   3.26109
    A1        2.03357   0.00008  -0.00000   0.00012   0.00011   2.03368
    A2        2.15320   0.00011  -0.00001   0.00052   0.00050   2.15370
    A3        2.08344   0.00006   0.00004   0.00024   0.00028   2.08373
    A4        2.04654  -0.00018  -0.00002  -0.00076  -0.00078   2.04576
    A5        2.05320  -0.00028   0.00001  -0.00126  -0.00126   2.05194
    A6        2.12963   0.00006  -0.00001   0.00013   0.00012   2.12975
    A7        2.10036   0.00022   0.00000   0.00113   0.00113   2.10149
    A8        2.12000   0.00025   0.00002   0.00138   0.00140   2.12141
    A9        2.08159  -0.00012  -0.00001  -0.00069  -0.00070   2.08089
   A10        2.08159  -0.00012  -0.00001  -0.00069  -0.00070   2.08089
   A11        2.05320  -0.00028   0.00001  -0.00128  -0.00127   2.05193
   A12        2.10036   0.00022   0.00000   0.00114   0.00114   2.10150
   A13        2.12963   0.00006  -0.00001   0.00014   0.00013   2.12976
   A14        2.15320   0.00011  -0.00001   0.00052   0.00051   2.15371
   A15        2.08344   0.00006   0.00004   0.00024   0.00028   2.08372
   A16        2.04654  -0.00018  -0.00002  -0.00076  -0.00079   2.04575
    D1        0.00000  -0.00000   0.00000  -0.00000   0.00000   0.00000
    D2        3.14159  -0.00000   0.00000  -0.00000   0.00000   3.14159
    D3        0.00000   0.00000   0.00000   0.00000   0.00000   0.00000
    D4        3.14159   0.00000   0.00000   0.00000   0.00000   3.14159
    D5        0.00000  -0.00000   0.00000  -0.00000   0.00000   0.00000
    D6        3.14159  -0.00000   0.00000  -0.00000   0.00000   3.14159
    D7        3.14159   0.00000   0.00000   0.00000   0.00000   3.14159
    D8        0.00000  -0.00000   0.00000  -0.00000   0.00000   0.00000
    D9        0.00000   0.00000   0.00000   0.00000   0.00000   0.00000
   D10        3.14159  -0.00000   0.00000  -0.00000   0.00000   3.14159
   D11        3.14159   0.00000   0.00000   0.00000   0.00000   3.14159
   D12        0.00000   0.00000   0.00000   0.00000   0.00000   0.00000
   D13        0.00000  -0.00000   0.00000  -0.00000   0.00000   0.00000
   D14        3.14159  -0.00000   0.00000  -0.00000   0.00000   3.14159
   D15        3.14159   0.00000   0.00000   0.00000   0.00000   3.14159
   D16        0.00000  -0.00000   0.00000  -0.00000   0.00000   0.00000
   D17        0.00000  -0.00000   0.00000  -0.00000   0.00000   0.00000
   D18        3.14159  -0.00000   0.00000  -0.00000   0.00000   3.14159
   D19        3.14159   0.00000   0.00000   0.00000   0.00000   3.14159
   D20        0.00000   0.00000   0.00000   0.00000   0.00000   0.00000
         Item               Value     Threshold  Converged?
 Maximum Force            0.000282     0.000450     YES
 RMS     Force            0.000120     0.000300     YES
 Maximum Displacement     0.001424     0.001800     YES
 RMS     Displacement     0.000516     0.001200     YES
 Predicted change in Energy=-1.326657D-06
 Optimization completed.
    -- Stationary point found.
                           ----------------------------
                           !   Optimized Parameters   !
                           ! (Angstroms and Degrees)  !
 --------------------------                            --------------------------
 ! Name  Definition              Value          Derivative Info.                !
 --------------------------------------------------------------------------------
 ! R1    R(1,2)                  1.3875         -DE/DX =   -0.0002              !
 ! R2    R(1,6)                  1.3875         -DE/DX =   -0.0002              !
 ! R3    R(2,3)                  1.3985         -DE/DX =    0.0001              !
 ! R4    R(2,10)                 1.7259         -DE/DX =   -0.0002              !
 ! R5    R(3,4)                  1.3982         -DE/DX =    0.0002              !
 ! R6    R(3,11)                 1.098          -DE/DX =    0.0                 !
 ! R7    R(4,5)                  1.3982         -DE/DX =    0.0002              !
 ! R8    R(4,8)                  1.7202         -DE/DX =    0.0                 !
 ! R9    R(5,6)                  1.3985         -DE/DX =    0.0001              !
 ! R10   R(5,9)                  1.0979         -DE/DX =    0.0001              !
 ! R11   R(6,7)                  1.7259         -DE/DX =   -0.0002              !
 ! A1    A(2,1,6)              116.515          -DE/DX =    0.0001              !
 ! A2    A(1,2,3)              123.3694         -DE/DX =    0.0001              !
 ! A3    A(1,2,10)             119.3725         -DE/DX =    0.0001              !
 ! A4    A(3,2,10)             117.2581         -DE/DX =   -0.0002              !
 ! A5    A(2,3,4)              117.6394         -DE/DX =   -0.0003              !
 ! A6    A(2,3,11)             122.0188         -DE/DX =    0.0001              !
 ! A7    A(4,3,11)             120.3417         -DE/DX =    0.0002              !
 ! A8    A(3,4,5)              121.4673         -DE/DX =    0.0002              !
 ! A9    A(3,4,8)              119.2664         -DE/DX =   -0.0001              !
 ! A10   A(5,4,8)              119.2663         -DE/DX =   -0.0001              !
 ! A11   A(4,5,6)              117.6396         -DE/DX =   -0.0003              !
 ! A12   A(4,5,9)              120.3416         -DE/DX =    0.0002              !
 ! A13   A(6,5,9)              122.0188         -DE/DX =    0.0001              !
 ! A14   A(1,6,5)              123.3693         -DE/DX =    0.0001              !
 ! A15   A(1,6,7)              119.3726         -DE/DX =    0.0001              !
 ! A16   A(5,6,7)              117.2581         -DE/DX =   -0.0002              !
 ! D1    D(6,1,2,3)              0.0            -DE/DX =    0.0                 !
 ! D2    D(6,1,2,10)           180.0            -DE/DX =    0.0                 !
 ! D3    D(2,1,6,5)              0.0            -DE/DX =    0.0                 !
 ! D4    D(2,1,6,7)            180.0            -DE/DX =    0.0                 !
 ! D5    D(1,2,3,4)              0.0            -DE/DX =    0.0                 !
 ! D6    D(1,2,3,11)           180.0            -DE/DX =    0.0                 !
 ! D7    D(10,2,3,4)           180.0            -DE/DX =    0.0                 !
 ! D8    D(10,2,3,11)            0.0            -DE/DX =    0.0                 !
 ! D9    D(2,3,4,5)              0.0            -DE/DX =    0.0                 !
 ! D10   D(2,3,4,8)            180.0            -DE/DX =    0.0                 !
 ! D11   D(11,3,4,5)           180.0            -DE/DX =    0.0                 !
 ! D12   D(11,3,4,8)             0.0            -DE/DX =    0.0                 !
 ! D13   D(3,4,5,6)              0.0            -DE/DX =    0.0                 !
 ! D14   D(3,4,5,9)            180.0            -DE/DX =    0.0                 !
 ! D15   D(8,4,5,6)            180.0            -DE/DX =    0.0                 !
 ! D16   D(8,4,5,9)              0.0            -DE/DX =    0.0                 !
 ! D17   D(4,5,6,1)              0.0            -DE/DX =    0.0                 !
 ! D18   D(4,5,6,7)            180.0            -DE/DX =    0.0                 !
 ! D19   D(9,5,6,1)            180.0            -DE/DX =    0.0                 !
 ! D20   D(9,5,6,7)              0.0            -DE/DX =    0.0                 !
 --------------------------------------------------------------------------------
 GradGradGradGradGradGradGradGradGradGradGradGradGradGradGradGradGradGrad

                          Input orientation:                          
 ---------------------------------------------------------------------
 Center     Atomic      Atomic             Coordinates (Angstroms)
 Number     Number       Type             X           Y           Z
 ---------------------------------------------------------------------
      1          6           0       -3.175862    0.181333    0.000000
      2          6           0       -1.972180    0.871557    0.000000
      3          6           0       -0.723895    0.241015    0.000000
      4          6           0       -0.703400   -1.156994    0.000000
      5          6           0       -1.885117   -1.904253    0.000000
      6          6           0       -3.095601   -1.203880    0.000000
      7         17           0       -4.548138   -2.135986    0.000000
      8         17           0        0.809391   -1.975861    0.000000
      9          1           0       -1.847458   -3.001531    0.000000
     10         17           0       -1.985994    2.597389    0.000000
     11          1           0        0.215483    0.809511    0.000000
 ---------------------------------------------------------------------
                    Distance matrix (angstroms):
                    1          2          3          4          5
     1  C    0.000000
     2  C    1.387537   0.000000
     3  C    2.452693   1.398499   0.000000
     4  C    2.811439   2.392660   1.398160   0.000000
     5  C    2.452691   2.777175   2.439388   1.398159   0.000000
     6  C    1.387537   2.359981   2.777177   2.392660   1.398497
     7  Cl   2.693160   3.959908   4.502774   3.967422   2.673085
     8  Cl   4.531637   3.980569   2.695461   1.720198   2.695459
     9  H    3.448954   3.875096   3.431691   2.170527   1.097924
    10  Cl   2.693160   1.725887   2.673086   3.967422   4.502772
    11  H    3.449032   2.188543   1.098006   2.170597   3.431768
                    6          7          8          9         10
     6  C    0.000000
     7  Cl   1.725887   0.000000
     8  Cl   3.980568   5.359922   0.000000
     9  H    2.188472   2.835990   2.847955   0.000000
    10  Cl   3.959908   5.382325   5.359924   5.600633   0.000000
    11  H    3.875180   5.600718   2.847986   4.333563   2.836019
                   11
    11  H    0.000000
 Stoichiometry    C6H2Cl3(1-)
 Framework group  CS[SG(C6H2Cl3)]
 Deg. of freedom    19
 Full point group                 CS      NOp   2
 Largest Abelian subgroup         CS      NOp   2
 Largest concise Abelian subgroup C1      NOp   1
                         Standard orientation:                         
 ---------------------------------------------------------------------
 Center     Atomic      Atomic             Coordinates (Angstroms)
 Number     Number       Type             X           Y           Z
 ---------------------------------------------------------------------
      1          6           0        1.461147    0.000000    0.000000
      2          6           0        0.731160   -1.179990    0.000000
      3          6           0       -0.666775   -1.219694    0.000000
      4          6           0       -1.350292    0.000001    0.000000
      5          6           0       -0.666773    1.219694    0.000000
      6          6           0        0.731160    1.179991    0.000000
      7         17           0        1.564855    2.691163    0.000000
      8         17           0       -3.070490    0.000002    0.000000
      9          1           0       -1.222228    2.166746    0.000000
     10         17           0        1.564855   -2.691162    0.000000
     11          1           0       -1.222270   -2.166817    0.000000
 ---------------------------------------------------------------------
 Rotational constants (GHZ):           0.8790416           0.8637514           0.4356647

 **********************************************************************

            Population analysis using the SCF Density.

 **********************************************************************

 Orbital symmetries:
       Occupied  (A') (A') (A') (A') (A') (A') (A') (A') (A') (A')
                 (A') (A') (A") (A') (A") (A') (A") (A') (A') (A")
                 (A') (A") (A") (A')
       Virtual   (A") (A") (A') (A') (A') (A") (A') (A') (A') (A')
                 (A') (A') (A') (A')
 The electronic state is 1-A'.
 Alpha  occ. eigenvalues --   -1.28806  -1.23505  -1.21633  -1.18919  -0.98317
 Alpha  occ. eigenvalues --   -0.94867  -0.69535  -0.67765  -0.51577  -0.44276
 Alpha  occ. eigenvalues --   -0.43764  -0.39109  -0.38815  -0.37361  -0.33994
 Alpha  occ. eigenvalues --   -0.32836  -0.32617  -0.29525  -0.28525  -0.27057
 Alpha  occ. eigenvalues --   -0.26539  -0.19081  -0.16843  -0.12479
 Alpha virt. eigenvalues --    0.16733   0.18267   0.18469   0.22079   0.22444
 Alpha virt. eigenvalues --    0.27934   0.28926   0.30191   0.32732   0.32844
 Alpha virt. eigenvalues --    0.34131   0.34907   0.38190   0.39690
          Condensed to atoms (all electrons):
               1          2          3          4          5          6
     1  C    4.347612   0.000000   0.000000   0.000000   0.000000   0.000000
     2  C    0.000000   4.051578   0.000000   0.000000   0.000000   0.000000
     3  C    0.000000   0.000000   4.148161   0.000000   0.000000   0.000000
     4  C    0.000000   0.000000   0.000000   4.120390   0.000000   0.000000
     5  C    0.000000   0.000000   0.000000   0.000000   4.148158   0.000000
     6  C    0.000000   0.000000   0.000000   0.000000   0.000000   4.051579
     7  Cl   0.000000   0.000000   0.000000   0.000000   0.000000   0.000000
     8  Cl   0.000000   0.000000   0.000000   0.000000   0.000000   0.000000
     9  H    0.000000   0.000000   0.000000   0.000000   0.000000   0.000000
    10  Cl   0.000000   0.000000   0.000000   0.000000   0.000000   0.000000
    11  H    0.000000   0.000000   0.000000   0.000000   0.000000   0.000000
               7          8          9         10         11
     1  C    0.000000   0.000000   0.000000   0.000000   0.000000
     2  C    0.000000   0.000000   0.000000   0.000000   0.000000
     3  C    0.000000   0.000000   0.000000   0.000000   0.000000
     4  C    0.000000   0.000000   0.000000   0.000000   0.000000
     5  C    0.000000   0.000000   0.000000   0.000000   0.000000
     6  C    0.000000   0.000000   0.000000   0.000000   0.000000
     7  Cl   7.124457   0.000000   0.000000   0.000000   0.000000
     8  Cl   0.000000   7.114574   0.000000   0.000000   0.000000
     9  H    0.000000   0.000000   0.884519   0.000000   0.000000
    10  Cl   0.000000   0.000000   0.000000   7.124458   0.000000
    11  H    0.000000   0.000000   0.000000   0.000000   0.884516
 Mulliken charges:
               1
     1  C   -0.347612
     2  C   -0.051578
     3  C   -0.148161
     4  C   -0.120390
     5  C   -0.148158
     6  C   -0.051579
     7  Cl  -0.124457
     8  Cl  -0.114574
     9  H    0.115481
    10  Cl  -0.124458
    11  H    0.115484
 Sum of Mulliken charges =  -1.00000
 Mulliken charges with hydrogens summed into heavy atoms:
               1
     1  C   -0.347612
     2  C   -0.051578
     3  C   -0.032676
     4  C   -0.120390
     5  C   -0.032677
     6  C   -0.051579
     7  Cl  -0.124457
     8  Cl  -0.114574
    10  Cl  -0.124458
 Charge=             -1.0000 electrons
 Dipole moment (field-independent basis, Debye):
    X=             -4.5839    Y=             -0.0000    Z=              0.0000  Tot=              4.5839
 N-N= 2.420103252444D+02 E-N=-3.430972788597D+02  KE=-1.141218830385D+02
 Symmetry A'   KE=-8.806001622198D+01
 Symmetry A"   KE=-2.606186681648D+01
 1\1\GINC-SH03-01N23\FOpt\RAM1\ZDO\C6H2Cl3(1-)\JLAPIER\08-Dec-2025\0\\#
  opt am1 SCF(maxcyc=10000)\\Anion Intermediate (removed 2) 1_35\\-1,1\
 C,-3.1758617258,0.1813333942,0.\C,-1.9721801119,0.8715566986,0.\C,-0.7
 238948363,0.2410154872,0.\C,-0.7034001023,-1.1569944014,0.\C,-1.885116
 5114,-1.9042531361,0.\C,-3.0956006859,-1.2038799435,0.\Cl,-4.548138277
 3,-2.135985718,0.\Cl,0.8093913938,-1.9758608486,0.\H,-1.847458343,-3.0
 01531232,0.\Cl,-1.9859935263,2.5973885101,0.\H,0.2154827263,0.80951118
 95,0.\\Version=ES64L-G16RevB.01\State=1-A'\HF=0.023277\RMSD=3.924e-09\
 RMSF=2.011e-04\Dipole=1.5860165,-0.8584855,0.\PG=CS [SG(C6H2Cl3)]\\@


 I WANT IT ALL - RICH, THIN, AND CHOCOLATE.
 Job cpu time:       0 days  0 hours  0 minutes  2.6 seconds.
 Elapsed time:       0 days  0 hours  0 minutes 12.9 seconds.
 File lengths (MBytes):  RWF=     10 Int=      0 D2E=      0 Chk=      2 Scr=      1
 Normal termination of Gaussian 16 at Mon Dec  8 17:08:42 2025.
