 Entering Gaussian System, Link 0=g16
 Initial command:
 /share/software/user/restricted/gaussian/g16.B01/l1.exe "/home/users/jlapier/Chloroaromatics/Gau-5024.inp" -scrdir="/home/users/jlapier/Chloroaromatics/"
 Entering Link 1 = /share/software/user/restricted/gaussian/g16.B01/l1.exe PID=      5025.
  
 Copyright (c) 1988-2017, Gaussian, Inc.  All Rights Reserved.
  
 This is part of the Gaussian(R) 16 program.  It is based on
 the Gaussian(R) 09 system (copyright 2009, Gaussian, Inc.),
 the Gaussian(R) 03 system (copyright 2003, Gaussian, Inc.),
 the Gaussian(R) 98 system (copyright 1998, Gaussian, Inc.),
 the Gaussian(R) 94 system (copyright 1995, Gaussian, Inc.),
 the Gaussian 92(TM) system (copyright 1992, Gaussian, Inc.),
 the Gaussian 90(TM) system (copyright 1990, Gaussian, Inc.),
 the Gaussian 88(TM) system (copyright 1988, Gaussian, Inc.),
 the Gaussian 86(TM) system (copyright 1986, Carnegie Mellon
 University), and the Gaussian 82(TM) system (copyright 1983,
 Carnegie Mellon University). Gaussian is a federally registered
 trademark of Gaussian, Inc.
  
 This software contains proprietary and confidential information,
 including trade secrets, belonging to Gaussian, Inc.
  
 This software is provided under written license and may be
 used, copied, transmitted, or stored only in accord with that
 written license.
  
 The following legend is applicable only to US Government
 contracts under FAR:
  
                    RESTRICTED RIGHTS LEGEND
  
 Use, reproduction and disclosure by the US Government is
 subject to restrictions as set forth in subparagraphs (a)
 and (c) of the Commercial Computer Software - Restricted
 Rights clause in FAR 52.227-19.
  
 Gaussian, Inc.
 340 Quinnipiac St., Bldg. 40, Wallingford CT 06492
  
  
 ---------------------------------------------------------------
 Warning -- This program may not be used in any manner that
 competes with the business of Gaussian, Inc. or will provide
 assistance to any competitor of Gaussian, Inc.  The licensee
 of this program is prohibited from giving any competitor of
 Gaussian, Inc. access to this program.  By using this program,
 the user acknowledges that Gaussian, Inc. is engaged in the
 business of creating and licensing software in the field of
 computational chemistry and represents and warrants to the
 licensee that it is not a competitor of Gaussian, Inc. and that
 it will not use this program in any manner prohibited above.
 ---------------------------------------------------------------
  

 Cite this work as:
 Gaussian 16, Revision B.01,
 M. J. Frisch, G. W. Trucks, H. B. Schlegel, G. E. Scuseria, 
 M. A. Robb, J. R. Cheeseman, G. Scalmani, V. Barone, 
 G. A. Petersson, H. Nakatsuji, X. Li, M. Caricato, A. V. Marenich, 
 J. Bloino, B. G. Janesko, R. Gomperts, B. Mennucci, H. P. Hratchian, 
 J. V. Ortiz, A. F. Izmaylov, J. L. Sonnenberg, D. Williams-Young, 
 F. Ding, F. Lipparini, F. Egidi, J. Goings, B. Peng, A. Petrone, 
 T. Henderson, D. Ranasinghe, V. G. Zakrzewski, J. Gao, N. Rega, 
 G. Zheng, W. Liang, M. Hada, M. Ehara, K. Toyota, R. Fukuda, 
 J. Hasegawa, M. Ishida, T. Nakajima, Y. Honda, O. Kitao, H. Nakai, 
 T. Vreven, K. Throssell, J. A. Montgomery, Jr., J. E. Peralta, 
 F. Ogliaro, M. J. Bearpark, J. J. Heyd, E. N. Brothers, K. N. Kudin, 
 V. N. Staroverov, T. A. Keith, R. Kobayashi, J. Normand, 
 K. Raghavachari, A. P. Rendell, J. C. Burant, S. S. Iyengar, 
 J. Tomasi, M. Cossi, J. M. Millam, M. Klene, C. Adamo, R. Cammi, 
 J. W. Ochterski, R. L. Martin, K. Morokuma, O. Farkas, 
 J. B. Foresman, and D. J. Fox, Gaussian, Inc., Wallingford CT, 2016.
 
 ******************************************
 Gaussian 16:  ES64L-G16RevB.01 20-Dec-2017
                 8-Dec-2025 
 ******************************************
 %mem=2GB
 %nprocshare=1
 Will use up to    1 processors via shared memory.
 %chk=geometry_chks/1_3ClBzAnionIntermediate.chk
 ---------------------------
 # opt am1 SCF(maxcyc=10000)
 ---------------------------
 1/18=20,19=15,26=1,38=1/1,3;
 2/9=110,12=2,17=6,18=5,40=1/2;
 3/5=2,25=1,41=700000,71=1/1,2,3;
 4/35=1/1;
 5/5=2,7=10000,35=1,38=5/2;
 6/7=2,8=2,9=2,10=2,28=1/1;
 7//1,2,3,16;
 1/18=20,19=15,26=1/3(2);
 2/9=110/2;
 99//99;
 2/9=110/2;
 3/5=2,25=1,41=700000,71=1,135=20/1,2,3;
 4/5=5,16=3,35=1/1;
 5/5=2,7=10000,35=1,38=5/2;
 7//1,2,3,16;
 1/18=20,19=15,26=1/3(-5);
 2/9=110/2;
 6/7=2,8=2,9=2,10=2,19=2,28=1/1;
 99/9=1/99;
 ----------------------------------
 Anion Intermediate (removed 2) 1_3
 ----------------------------------
 Symbolic Z-matrix:
 Charge = -1 Multiplicity = 1
 C                    -3.20928   0.19943   0. 
 C                    -2.0115    0.93555   0. 
 C                    -0.77511   0.2663    0. 
 C                    -0.7365   -1.13907   0. 
 C                    -1.93429  -1.87519   0. 
 C                    -3.17067  -1.20594   0. 
 Cl                   -4.67483  -2.13035   0. 
 Cl                    0.81614  -1.97951   0. 
 H                    -1.8858   -3.64003   0. 
 H                    -2.05998   2.7004    0. 
 H                     0.72905   1.19071   0. 
 
 Add virtual bond connecting atoms H9         and C5         Dist= 3.34D+00.
 Add virtual bond connecting atoms H11        and C3         Dist= 3.34D+00.
 Add virtual bond connecting atoms H10        and C2         Dist= 3.34D+00.

 GradGradGradGradGradGradGradGradGradGradGradGradGradGradGradGradGradGrad
 Berny optimization.
 Initialization pass.
                           ----------------------------
                           !    Initial Parameters    !
                           ! (Angstroms and Degrees)  !
 --------------------------                            --------------------------
 ! Name  Definition              Value          Derivative Info.                !
 --------------------------------------------------------------------------------
 ! R1    R(1,2)                  1.4059         estimate D2E/DX2                !
 ! R2    R(1,6)                  1.4059         estimate D2E/DX2                !
 ! R3    R(2,3)                  1.4059         estimate D2E/DX2                !
 ! R4    R(2,10)                 1.7655         estimate D2E/DX2                !
 ! R5    R(3,4)                  1.4059         estimate D2E/DX2                !
 ! R6    R(3,11)                 1.7655         estimate D2E/DX2                !
 ! R7    R(4,5)                  1.4059         estimate D2E/DX2                !
 ! R8    R(4,8)                  1.7655         estimate D2E/DX2                !
 ! R9    R(5,6)                  1.4059         estimate D2E/DX2                !
 ! R10   R(5,9)                  1.7655         estimate D2E/DX2                !
 ! R11   R(6,7)                  1.7655         estimate D2E/DX2                !
 ! A1    A(2,1,6)              119.9999         estimate D2E/DX2                !
 ! A2    A(1,2,3)              120.0            estimate D2E/DX2                !
 ! A3    A(1,2,10)             120.0001         estimate D2E/DX2                !
 ! A4    A(3,2,10)             119.9999         estimate D2E/DX2                !
 ! A5    A(2,3,4)              120.0001         estimate D2E/DX2                !
 ! A6    A(2,3,11)             120.0            estimate D2E/DX2                !
 ! A7    A(4,3,11)             119.9999         estimate D2E/DX2                !
 ! A8    A(3,4,5)              119.9997         estimate D2E/DX2                !
 ! A9    A(3,4,8)              120.0003         estimate D2E/DX2                !
 ! A10   A(5,4,8)              120.0            estimate D2E/DX2                !
 ! A11   A(4,5,6)              120.0            estimate D2E/DX2                !
 ! A12   A(4,5,9)              119.9996         estimate D2E/DX2                !
 ! A13   A(6,5,9)              120.0004         estimate D2E/DX2                !
 ! A14   A(1,6,5)              120.0003         estimate D2E/DX2                !
 ! A15   A(1,6,7)              119.9999         estimate D2E/DX2                !
 ! A16   A(5,6,7)              119.9998         estimate D2E/DX2                !
 ! D1    D(6,1,2,3)              0.0            estimate D2E/DX2                !
 ! D2    D(6,1,2,10)           180.0            estimate D2E/DX2                !
 ! D3    D(2,1,6,5)              0.0            estimate D2E/DX2                !
 ! D4    D(2,1,6,7)            180.0            estimate D2E/DX2                !
 ! D5    D(1,2,3,4)              0.0            estimate D2E/DX2                !
 ! D6    D(1,2,3,11)           180.0            estimate D2E/DX2                !
 ! D7    D(10,2,3,4)           180.0            estimate D2E/DX2                !
 ! D8    D(10,2,3,11)            0.0            estimate D2E/DX2                !
 ! D9    D(2,3,4,5)              0.0            estimate D2E/DX2                !
 ! D10   D(2,3,4,8)            180.0            estimate D2E/DX2                !
 ! D11   D(11,3,4,5)           180.0            estimate D2E/DX2                !
 ! D12   D(11,3,4,8)             0.0            estimate D2E/DX2                !
 ! D13   D(3,4,5,6)              0.0            estimate D2E/DX2                !
 ! D14   D(3,4,5,9)            180.0            estimate D2E/DX2                !
 ! D15   D(8,4,5,6)            180.0            estimate D2E/DX2                !
 ! D16   D(8,4,5,9)              0.0            estimate D2E/DX2                !
 ! D17   D(4,5,6,1)              0.0            estimate D2E/DX2                !
 ! D18   D(4,5,6,7)            180.0            estimate D2E/DX2                !
 ! D19   D(9,5,6,1)            180.0            estimate D2E/DX2                !
 ! D20   D(9,5,6,7)              0.0            estimate D2E/DX2                !
 --------------------------------------------------------------------------------
 Trust Radius=3.00D-01 FncErr=1.00D-07 GrdErr=1.00D-07 EigMax=2.50D+02 EigMin=1.00D-04
 Number of steps in this run=     57 maximum allowed number of steps=    100.
 GradGradGradGradGradGradGradGradGradGradGradGradGradGradGradGradGradGrad

                          Input orientation:                          
 ---------------------------------------------------------------------
 Center     Atomic      Atomic             Coordinates (Angstroms)
 Number     Number       Type             X           Y           Z
 ---------------------------------------------------------------------
      1          6           0       -3.209280    0.199430    0.000000
      2          6           0       -2.011500    0.935550    0.000000
      3          6           0       -0.775110    0.266300    0.000000
      4          6           0       -0.736500   -1.139070    0.000000
      5          6           0       -1.934290   -1.875190    0.000000
      6          6           0       -3.170670   -1.205940    0.000000
      7         17           0       -4.674830   -2.130350    0.000000
      8         17           0        0.816140   -1.979510    0.000000
      9          1           0       -1.885800   -3.640030    0.000000
     10          1           0       -2.059980    2.700400    0.000000
     11          1           0        0.729050    1.190710    0.000000
 ---------------------------------------------------------------------
                    Distance matrix (angstroms):
                    1          2          3          4          5
     1  C    0.000000
     2  C    1.405898   0.000000
     3  C    2.435088   1.405900   0.000000
     4  C    2.811801   2.435092   1.405900   0.000000
     5  C    2.435087   2.811800   2.435093   1.405907   0.000000
     6  C    1.405900   2.435088   2.811796   2.435088   1.405892
     7  Cl   2.752401   4.061166   4.577308   4.061167   2.752393
     8  Cl   4.577312   4.061173   2.752406   1.765511   2.752408
     9  H    4.061164   4.577306   4.061163   2.752397   1.765506
    10  H    2.752406   1.765516   2.752405   4.061173   4.577316
    11  H    4.061167   2.752403   1.765512   2.752401   4.061173
                    6          7          8          9         10
     6  C    0.000000
     7  Cl   1.765512   0.000000
     8  Cl   4.061165   5.493041   0.000000
     9  H    2.752396   3.171407   3.171404   0.000000
    10  H    4.061173   5.493049   5.493052   6.342822   0.000000
    11  H    4.577308   6.342819   3.171416   5.493040   3.171412
                   11
    11  H    0.000000
 Stoichiometry    C6H3Cl2(1-)
 Framework group  CS[SG(C6H3Cl2)]
 Deg. of freedom    19
 Full point group                 CS      NOp   2
 Largest Abelian subgroup         CS      NOp   2
 Largest concise Abelian subgroup C1      NOp   1
                         Standard orientation:                         
 ---------------------------------------------------------------------
 Center     Atomic      Atomic             Coordinates (Angstroms)
 Number     Number       Type             X           Y           Z
 ---------------------------------------------------------------------
      1          6           0       -1.419777    1.255168   -0.000000
      2          6           0       -2.122727    0.037625   -0.000000
      3          6           0       -1.419777   -1.179920    0.000000
      4          6           0       -0.013877   -1.179923    0.000000
      5          6           0        0.689073    0.037630    0.000000
      6          6           0       -0.013877    1.255166   -0.000000
      7         17           0        0.868879    2.784144   -0.000000
      8         17           0        0.868883   -2.708898    0.000000
      9          1           0        2.454579    0.037623    0.000000
     10          1           0       -3.888243    0.037622   -0.000000
     11          1           0       -2.302533   -2.708898    0.000000
 ---------------------------------------------------------------------
 Rotational constants (GHZ):           2.6981790           0.8334472           0.6367576
 Standard basis: VSTO-6G (5D, 7F)
 There are    27 symmetry adapted cartesian basis functions of A'  symmetry.
 There are     8 symmetry adapted cartesian basis functions of A"  symmetry.
 There are    27 symmetry adapted basis functions of A'  symmetry.
 There are     8 symmetry adapted basis functions of A"  symmetry.
    35 basis functions,   210 primitive gaussians,    35 cartesian basis functions
    21 alpha electrons       21 beta electrons
       nuclear repulsion energy       190.6837119152 Hartrees.
 Integral buffers will be    131072 words long.
 Regular integral format.
 Two-electron integral symmetry is turned off.
 Do NDO integrals.
 One-electron integrals computed using PRISM.
 NBasis=    35 RedAO= T EigKep=  1.00D+00  NBF=    27     8
 NBsUse=    35 1.00D-06 EigRej= -1.00D+00 NBFU=    27     8
 Simple Huckel Guess.
 Initial guess orbital symmetries:
       Occupied  (A') (A') (A') (A') (A') (A') (A') (A') (A") (A')
                 (A') (A') (A') (A") (A') (A") (A') (A') (A") (A")
                 (A')
       Virtual   (A') (A") (A') (A") (A') (A") (A') (A') (A') (A')
                 (A') (A') (A') (A')
 The electronic state of the initial guess is 1-A'.
 Keep J ints in memory in canonical form, NReq=862793.
 Overlap will be assumed to be unity.
 Requested convergence on RMS density matrix=1.00D-08 within**** cycles.
 Requested convergence on MAX density matrix=1.00D-06.
 Requested convergence on             energy=1.00D-06.
 No special actions if energy rises.
 Fock symm off for IB=2 I1=    1 I=   28 J=   27 Cut=1.00D-07 Err=8.14D-03
 Fock matrix is not symmetric: symmetry in diagonalization turned off.
 SCF Done:  E(RAM1) =  0.411423034879     A.U. after   16 cycles
            NFock= 15  Conv=0.52D-08     -V/T= 1.0045

 **********************************************************************

            Population analysis using the SCF Density.

 **********************************************************************

 Orbital symmetries:
       Occupied  (A') (A') (A') (A') (A') (A') (A') (A') (A') (A")
                 (A') (A") (A') (A') (A') (A") (A') (A') (A") (A")
                 (A')
       Virtual   (A') (A') (A') (A") (A") (A') (A') (A") (A') (A')
                 (A') (A') (A') (A')
 The electronic state is 1-A'.
 Alpha  occ. eigenvalues --   -1.24471  -1.21297  -1.18163  -0.92694  -0.91271
 Alpha  occ. eigenvalues --   -0.63565  -0.62678  -0.46368  -0.41386  -0.36658
 Alpha  occ. eigenvalues --   -0.36392  -0.32467  -0.30813  -0.30129  -0.27601
 Alpha  occ. eigenvalues --   -0.27555  -0.26332  -0.21396  -0.18602  -0.16492
 Alpha  occ. eigenvalues --   -0.11274
 Alpha virt. eigenvalues --    0.15077   0.16395   0.17636   0.18051   0.18993
 Alpha virt. eigenvalues --    0.20415   0.22346   0.28574   0.32957   0.33127
 Alpha virt. eigenvalues --    0.35091   0.35928   0.38002   0.40726
          Condensed to atoms (all electrons):
               1          2          3          4          5          6
     1  C    4.346002   0.000000   0.000000   0.000000   0.000000   0.000000
     2  C    0.000000   4.126032   0.000000   0.000000   0.000000   0.000000
     3  C    0.000000   0.000000   4.101025   0.000000   0.000000   0.000000
     4  C    0.000000   0.000000   0.000000   4.128735   0.000000   0.000000
     5  C    0.000000   0.000000   0.000000   0.000000   4.106323   0.000000
     6  C    0.000000   0.000000   0.000000   0.000000   0.000000   4.064341
     7  Cl   0.000000   0.000000   0.000000   0.000000   0.000000   0.000000
     8  Cl   0.000000   0.000000   0.000000   0.000000   0.000000   0.000000
     9  H    0.000000   0.000000   0.000000   0.000000   0.000000   0.000000
    10  H    0.000000   0.000000   0.000000   0.000000   0.000000   0.000000
    11  H    0.000000   0.000000   0.000000   0.000000   0.000000   0.000000
               7          8          9         10         11
     1  C    0.000000   0.000000   0.000000   0.000000   0.000000
     2  C    0.000000   0.000000   0.000000   0.000000   0.000000
     3  C    0.000000   0.000000   0.000000   0.000000   0.000000
     4  C    0.000000   0.000000   0.000000   0.000000   0.000000
     5  C    0.000000   0.000000   0.000000   0.000000   0.000000
     6  C    0.000000   0.000000   0.000000   0.000000   0.000000
     7  Cl   7.134630   0.000000   0.000000   0.000000   0.000000
     8  Cl   0.000000   7.128808   0.000000   0.000000   0.000000
     9  H    0.000000   0.000000   0.935273   0.000000   0.000000
    10  H    0.000000   0.000000   0.000000   0.966978   0.000000
    11  H    0.000000   0.000000   0.000000   0.000000   0.961853
 Mulliken charges:
               1
     1  C   -0.346002
     2  C   -0.126032
     3  C   -0.101025
     4  C   -0.128735
     5  C   -0.106323
     6  C   -0.064341
     7  Cl  -0.134630
     8  Cl  -0.128808
     9  H    0.064727
    10  H    0.033022
    11  H    0.038147
 Sum of Mulliken charges =  -1.00000
 Mulliken charges with hydrogens summed into heavy atoms:
               1
     1  C   -0.346002
     2  C   -0.093009
     3  C   -0.062878
     4  C   -0.128735
     5  C   -0.041597
     6  C   -0.064341
     7  Cl  -0.134630
     8  Cl  -0.128808
 Charge=             -1.0000 electrons
 Dipole moment (field-independent basis, Debye):
    X=              3.6655    Y=             -3.3596    Z=              0.0000  Tot=              4.9722
 N-N= 1.906837119152D+02 E-N=-2.676165098355D+02  KE=-9.137596795420D+01
 Symmetry A'   KE=-7.092268472191D+01
 Symmetry A"   KE=-2.045328323229D+01
 Calling FoFJK, ICntrl=      2127 FMM=F ISym2X=1 I1Cent= 0 IOpClX= 0 NMat=1 NMatS=1 NMatT=0.
 ***** Axes restored to original set *****
 -------------------------------------------------------------------
 Center     Atomic                   Forces (Hartrees/Bohr)
 Number     Number              X              Y              Z
 -------------------------------------------------------------------
      1        6           0.019917493    0.009285198   -0.000000000
      2        6           0.008251059    0.044193390   -0.000000000
      3        6           0.047863664    0.062851932   -0.000000000
      4        6           0.005653789   -0.006877290    0.000000000
      5        6          -0.001408105   -0.076016058    0.000000000
      6        6           0.014118443    0.004252732    0.000000000
      7       17           0.023488118    0.012110494    0.000000000
      8       17          -0.023541623    0.012490516   -0.000000000
      9        1          -0.001767661    0.114618157    0.000000000
     10        1           0.003501369   -0.115452592    0.000000000
     11        1          -0.096076546   -0.061456480    0.000000000
 -------------------------------------------------------------------
 Cartesian Forces:  Max     0.115452592 RMS     0.041091414

 GradGradGradGradGradGradGradGradGradGradGradGradGradGradGradGradGradGrad
 Berny optimization.
 FormGI is forming the generalized inverse of G from B-inverse, IUseBI=4.
 Internal  Forces:  Max     0.115505202 RMS     0.032850003
 Search for a local minimum.
 Step number   1 out of a maximum of   57
 All quantities printed in internal units (Hartrees-Bohrs-Radians)
 Mixed Optimization -- RFO/linear search
 Second derivative matrix not updated -- first step.
 ITU=  0
     Eigenvalues ---    0.02011   0.02011   0.02011   0.02011   0.02011
     Eigenvalues ---    0.02011   0.02011   0.02011   0.06524   0.06524
     Eigenvalues ---    0.06524   0.16000   0.16000   0.16000   0.22308
     Eigenvalues ---    0.23491   0.24543   0.25000   0.25000   0.29033
     Eigenvalues ---    0.29033   0.40826   0.41501   0.44656   0.44657
     Eigenvalues ---    0.44657   0.44657
 RFO step:  Lambda=-1.80373831D-01 EMin= 2.01065791D-02
 Linear search not attempted -- first point.
 Maximum step size (   0.300) exceeded in Quadratic search.
    -- Step size scaled by   0.361
 Iteration  1 RMS(Cart)=  0.05107506 RMS(Int)=  0.00006518
 Iteration  2 RMS(Cart)=  0.00011537 RMS(Int)=  0.00001108
 Iteration  3 RMS(Cart)=  0.00000001 RMS(Int)=  0.00001108
 ClnCor:  largest displacement from symmetrization is 1.74D-11 for atom     8.
 Variable       Old X    -DE/DX   Delta X   Delta X   Delta X     New X
                                 (Linear)    (Quad)   (Total)
    R1        2.65676  -0.04383   0.00000  -0.02549  -0.02548   2.63129
    R2        2.65677  -0.02811   0.00000  -0.01606  -0.01606   2.64070
    R3        2.65677  -0.05125   0.00000  -0.02990  -0.02988   2.62688
    R4        3.33634  -0.11551   0.00000  -0.16988  -0.16988   3.16646
    R5        2.65677  -0.03199   0.00000  -0.01857  -0.01857   2.63820
    R6        3.33633  -0.11403   0.00000  -0.16772  -0.16772   3.16862
    R7        2.65678  -0.03611   0.00000  -0.02057  -0.02059   2.63619
    R8        3.33633  -0.02665   0.00000  -0.02045  -0.02045   3.31588
    R9        2.65675  -0.03139   0.00000  -0.01772  -0.01773   2.63902
   R10        3.33632  -0.11462   0.00000  -0.16859  -0.16859   3.16774
   R11        3.33633  -0.02635   0.00000  -0.02022  -0.02022   3.31611
    A1        2.09439  -0.01894   0.00000  -0.01643  -0.01641   2.07799
    A2        2.09439   0.01827   0.00000   0.01529   0.01532   2.10972
    A3        2.09440  -0.00858   0.00000  -0.00706  -0.00708   2.08732
    A4        2.09439  -0.00968   0.00000  -0.00823  -0.00825   2.08615
    A5        2.09440   0.00233   0.00000   0.00107   0.00109   2.09549
    A6        2.09440   0.00226   0.00000   0.00310   0.00309   2.09749
    A7        2.09439  -0.00459   0.00000  -0.00417  -0.00418   2.09021
    A8        2.09439  -0.01112   0.00000  -0.00939  -0.00941   2.08499
    A9        2.09440   0.00593   0.00000   0.00501   0.00501   2.09941
   A10        2.09440   0.00519   0.00000   0.00438   0.00439   2.09879
   A11        2.09439   0.00362   0.00000   0.00401   0.00398   2.09837
   A12        2.09439  -0.00411   0.00000  -0.00445  -0.00443   2.08995
   A13        2.09440   0.00049   0.00000   0.00044   0.00046   2.09486
   A14        2.09440   0.00583   0.00000   0.00544   0.00542   2.09982
   A15        2.09439   0.00039   0.00000   0.00005   0.00006   2.09445
   A16        2.09439  -0.00622   0.00000  -0.00549  -0.00548   2.08891
    D1       -0.00000   0.00000   0.00000   0.00000   0.00000   0.00000
    D2        3.14159   0.00000   0.00000   0.00000   0.00000   3.14159
    D3        0.00000  -0.00000   0.00000  -0.00000  -0.00000   0.00000
    D4        3.14159  -0.00000   0.00000  -0.00000   0.00000   3.14159
    D5       -0.00000  -0.00000   0.00000  -0.00000   0.00000   0.00000
    D6        3.14159   0.00000   0.00000   0.00000   0.00000   3.14159
    D7        3.14159  -0.00000   0.00000  -0.00000   0.00000   3.14159
    D8       -0.00000  -0.00000   0.00000  -0.00000   0.00000   0.00000
    D9        0.00000  -0.00000   0.00000  -0.00000   0.00000   0.00000
   D10        3.14159   0.00000   0.00000   0.00000   0.00000   3.14159
   D11        3.14159  -0.00000   0.00000  -0.00000   0.00000   3.14159
   D12       -0.00000  -0.00000   0.00000  -0.00000   0.00000   0.00000
   D13        0.00000   0.00000   0.00000   0.00000  -0.00000   0.00000
   D14        3.14159   0.00000   0.00000   0.00000   0.00000   3.14159
   D15        3.14159   0.00000   0.00000   0.00000   0.00000   3.14159
   D16        0.00000   0.00000   0.00000   0.00000   0.00000   0.00000
   D17       -0.00000  -0.00000   0.00000  -0.00000   0.00000   0.00000
   D18        3.14159   0.00000   0.00000   0.00000   0.00000   3.14159
   D19        3.14159  -0.00000   0.00000  -0.00000   0.00000   3.14159
   D20        0.00000  -0.00000   0.00000  -0.00000  -0.00000   0.00000
         Item               Value     Threshold  Converged?
 Maximum Force            0.115505     0.000450     NO 
 RMS     Force            0.032850     0.000300     NO 
 Maximum Displacement     0.201901     0.001800     NO 
 RMS     Displacement     0.051065     0.001200     NO 
 Predicted change in Energy=-6.150677D-02
 GradGradGradGradGradGradGradGradGradGradGradGradGradGradGradGradGradGrad

                          Input orientation:                          
 ---------------------------------------------------------------------
 Center     Atomic      Atomic             Coordinates (Angstroms)
 Number     Number       Type             X           Y           Z
 ---------------------------------------------------------------------
      1          6           0       -3.199313    0.204950   -0.000000
      2          6           0       -2.004501    0.919967    0.000000
      3          6           0       -0.779692    0.262558    0.000000
      4          6           0       -0.734913   -1.132797    0.000000
      5          6           0       -1.926907   -1.857511   -0.000000
      6          6           0       -3.154495   -1.191731   -0.000000
      7         17           0       -4.645227   -2.117514   -0.000000
      8         17           0        0.807876   -1.968701    0.000000
      9          1           0       -1.881464   -3.533189   -0.000000
     10          1           0       -2.042607    2.595150    0.000000
     11          1           0        0.648473    1.141118    0.000000
 ---------------------------------------------------------------------
                    Distance matrix (angstroms):
                    1          2          3          4          5
     1  C    0.000000
     2  C    1.392417   0.000000
     3  C    2.420307   1.390087   0.000000
     4  C    2.804075   2.413648   1.396074   0.000000
     5  C    2.423379   2.778561   2.410559   1.395012   0.000000
     6  C    1.397401   2.404528   2.784716   2.420299   1.396508
     7  Cl   2.735783   4.024888   4.539505   4.032396   2.730726
     8  Cl   4.558764   4.031609   2.738411   1.754689   2.737042
     9  H    3.963636   4.454855   3.952417   2.660161   1.676294
    10  H    2.655376   1.675617   2.652534   3.950653   4.454164
    11  H    3.960033   2.662175   1.676759   2.661662   3.952765
                    6          7          8          9         10
     6  C    0.000000
     7  Cl   1.754810   0.000000
     8  Cl   4.037829   5.455133   0.000000
     9  H    2.665151   3.105241   3.111297   0.000000
    10  H    3.946741   5.383571   5.380892   6.130457   0.000000
    11  H    4.461473   6.216264   3.113902   5.315046   3.058778
                   11
    11  H    0.000000
 Stoichiometry    C6H3Cl2(1-)
 Framework group  CS[SG(C6H3Cl2)]
 Deg. of freedom    19
 Full point group                 CS      NOp   2
 Largest Abelian subgroup         CS      NOp   2
 Largest concise Abelian subgroup C1      NOp   1
                         Standard orientation:                         
 ---------------------------------------------------------------------
 Center     Atomic      Atomic             Coordinates (Angstroms)
 Number     Number       Type             X           Y           Z
 ---------------------------------------------------------------------
      1          6           0       -1.328277   -1.347658    0.000000
      2          6           0       -0.153445   -2.095049    0.000000
      3          6           0        1.088866   -1.471348    0.000000
      4          6           0        1.171750   -0.077736    0.000000
      5          6           0       -0.000000    0.679272   -0.000000
      6          6           0       -1.245319    0.047278   -0.000000
      7         17           0       -2.710202    1.013442   -0.000000
      8         17           0        2.736799    0.715707   -0.000000
      9          1           0        0.091205    2.353083   -0.000000
     10          1           0       -0.237302   -3.768567    0.000000
     11          1           0        2.492497   -2.388596    0.000000
 ---------------------------------------------------------------------
 Rotational constants (GHZ):           2.7550068           0.8454894           0.6469467
 Standard basis: VSTO-6G (5D, 7F)
 There are    27 symmetry adapted cartesian basis functions of A'  symmetry.
 There are     8 symmetry adapted cartesian basis functions of A"  symmetry.
 There are    27 symmetry adapted basis functions of A'  symmetry.
 There are     8 symmetry adapted basis functions of A"  symmetry.
    35 basis functions,   210 primitive gaussians,    35 cartesian basis functions
    21 alpha electrons       21 beta electrons
       nuclear repulsion energy       191.8670482690 Hartrees.
 Integral buffers will be    131072 words long.
 Regular integral format.
 Two-electron integral symmetry is turned off.
 Do NDO integrals.
 One-electron integrals computed using PRISM.
 NBasis=    35 RedAO= T EigKep=  1.00D+00  NBF=    27     8
 NBsUse=    35 1.00D-06 EigRej= -1.00D+00 NBFU=    27     8
 Initial guess from the checkpoint file:  "geometry_chks/1_3ClBzAnionIntermediate.chk"
 B after Tr=    -0.000000   -0.000000   -0.000000
         Rot=    0.726262   -0.000000   -0.000000   -0.687418 Ang= -86.85 deg.
 Initial guess orbital symmetries:
       Occupied  (A') (A') (A') (A') (A') (A') (A') (A') (A') (A")
                 (A') (A") (A') (A') (A') (A") (A') (A') (A") (A")
                 (A')
       Virtual   (A') (A') (A') (A") (A") (A') (A') (A") (A') (A')
                 (A') (A') (A') (A')
 Keep J ints in memory in canonical form, NReq=862793.
 Overlap will be assumed to be unity.
 Requested convergence on RMS density matrix=1.00D-08 within**** cycles.
 Requested convergence on MAX density matrix=1.00D-06.
 Requested convergence on             energy=1.00D-06.
 No special actions if energy rises.
 Fock symm off for IB=2 I1=    1 I=   28 J=    6 Cut=1.00D-07 Err=9.44D-04
 Fock matrix is not symmetric: symmetry in diagonalization turned off.
 SCF Done:  E(RAM1) =  0.346418857458     A.U. after   14 cycles
            NFock= 13  Conv=0.32D-08     -V/T= 1.0038
 Calling FoFJK, ICntrl=      2127 FMM=F ISym2X=1 I1Cent= 0 IOpClX= 0 NMat=1 NMatS=1 NMatT=0.
 ***** Axes restored to original set *****
 -------------------------------------------------------------------
 Center     Atomic                   Forces (Hartrees/Bohr)
 Number     Number              X              Y              Z
 -------------------------------------------------------------------
      1        6           0.006548771    0.009562098   -0.000000000
      2        6           0.005731613    0.073827334   -0.000000000
      3        6           0.071331939    0.069959010   -0.000000000
      4        6           0.012384345   -0.009958319    0.000000000
      5        6          -0.001645874   -0.097996080    0.000000000
      6        6           0.005343556    0.000479174   -0.000000000
      7       17           0.017460845    0.008604362    0.000000000
      8       17          -0.018276044    0.009652859   -0.000000000
      9        1          -0.001958895    0.119060493    0.000000000
     10        1           0.003116781   -0.119405132    0.000000000
     11        1          -0.100037037   -0.063785800    0.000000000
 -------------------------------------------------------------------
 Cartesian Forces:  Max     0.119405132 RMS     0.045665484

 GradGradGradGradGradGradGradGradGradGradGradGradGradGradGradGradGradGrad
 Berny optimization.
 Using GEDIIS/GDIIS optimizer.
 FormGI is forming the generalized inverse of G from B-inverse, IUseBI=4.
 Internal  Forces:  Max     0.119445132 RMS     0.031478304
 Search for a local minimum.
 Step number   2 out of a maximum of   57
 All quantities printed in internal units (Hartrees-Bohrs-Radians)
 Mixed Optimization -- RFO/linear search
 Update second derivatives using D2CorX and points    1    2
 DE= -6.50D-02 DEPred=-6.15D-02 R= 1.06D+00
 TightC=F SS=  1.41D+00  RLast= 3.00D-01 DXNew= 5.0454D-01 9.0000D-01
 Trust test= 1.06D+00 RLast= 3.00D-01 DXMaxT set to 5.05D-01
 ITU=  1  0
 Use linear search instead of GDIIS.
 Linear search step of   0.600 exceeds DXMaxT=   0.505 but not scaled.
 Quartic linear search produced a step of  2.00000.
 Iteration  1 RMS(Cart)=  0.06934462 RMS(Int)=  0.03474439
 Iteration  2 RMS(Cart)=  0.03416191 RMS(Int)=  0.00006761
 Iteration  3 RMS(Cart)=  0.00001076 RMS(Int)=  0.00006734
 Iteration  4 RMS(Cart)=  0.00000000 RMS(Int)=  0.00006734
 ClnCor:  largest displacement from symmetrization is 8.14D-09 for atom     8.
 Variable       Old X    -DE/DX   Delta X   Delta X   Delta X     New X
                                 (Linear)    (Quad)   (Total)
    R1        2.63129  -0.02369  -0.05095   0.00000  -0.05086   2.58043
    R2        2.64070  -0.01395  -0.03212   0.00000  -0.03213   2.60857
    R3        2.62688  -0.02993  -0.05977   0.00000  -0.05966   2.56722
    R4        3.16646  -0.11945  -0.33977   0.00000  -0.33977   2.82669
    R5        2.63820  -0.01545  -0.03714   0.00000  -0.03713   2.60107
    R6        3.16862  -0.11863  -0.33544   0.00000  -0.33544   2.83318
    R7        2.63619  -0.01885  -0.04118   0.00000  -0.04127   2.59492
    R8        3.31588  -0.02067  -0.04090   0.00000  -0.04090   3.27498
    R9        2.63902  -0.01645  -0.03546   0.00000  -0.03557   2.60345
   R10        3.16774  -0.11907  -0.33717   0.00000  -0.33717   2.83056
   R11        3.31611  -0.01937  -0.04045   0.00000  -0.04045   3.27566
    A1        2.07799  -0.01488  -0.03282   0.00000  -0.03270   2.04529
    A2        2.10972   0.01416   0.03064   0.00000   0.03083   2.14055
    A3        2.08732  -0.00645  -0.01415   0.00000  -0.01425   2.07307
    A4        2.08615  -0.00771  -0.01649   0.00000  -0.01658   2.06957
    A5        2.09549   0.00133   0.00218   0.00000   0.00228   2.09777
    A6        2.09749   0.00237   0.00618   0.00000   0.00613   2.10362
    A7        2.09021  -0.00370  -0.00836   0.00000  -0.00841   2.08180
    A8        2.08499  -0.00864  -0.01881   0.00000  -0.01890   2.06608
    A9        2.09941   0.00468   0.01003   0.00000   0.01007   2.10949
   A10        2.09879   0.00395   0.00878   0.00000   0.00883   2.10762
   A11        2.09837   0.00298   0.00796   0.00000   0.00776   2.10613
   A12        2.08995  -0.00350  -0.00887   0.00000  -0.00877   2.08118
   A13        2.09486   0.00052   0.00091   0.00000   0.00101   2.09587
   A14        2.09982   0.00504   0.01085   0.00000   0.01073   2.11056
   A15        2.09445   0.00063   0.00012   0.00000   0.00018   2.09463
   A16        2.08891  -0.00567  -0.01097   0.00000  -0.01091   2.07799
    D1        0.00000   0.00000   0.00000   0.00000   0.00000   0.00000
    D2        3.14159   0.00000   0.00000   0.00000   0.00000   3.14159
    D3        0.00000  -0.00000   0.00000   0.00000  -0.00000   0.00000
    D4        3.14159  -0.00000   0.00000   0.00000   0.00000   3.14159
    D5       -0.00000   0.00000   0.00000   0.00000   0.00000   0.00000
    D6        3.14159   0.00000   0.00000   0.00000   0.00000   3.14159
    D7        3.14159  -0.00000   0.00000   0.00000   0.00000   3.14159
    D8        0.00000  -0.00000   0.00000   0.00000   0.00000   0.00000
    D9        0.00000  -0.00000   0.00000   0.00000   0.00000   0.00000
   D10        3.14159  -0.00000   0.00000   0.00000   0.00000   3.14159
   D11        3.14159  -0.00000   0.00000   0.00000   0.00000   3.14159
   D12       -0.00000  -0.00000   0.00000   0.00000   0.00000   0.00000
   D13        0.00000   0.00000   0.00000   0.00000  -0.00000   0.00000
   D14        3.14159   0.00000   0.00000   0.00000   0.00000   3.14159
   D15        3.14159   0.00000   0.00000   0.00000   0.00000   3.14159
   D16        0.00000   0.00000   0.00000   0.00000   0.00000   0.00000
   D17       -0.00000  -0.00000   0.00000   0.00000   0.00000   0.00000
   D18        3.14159   0.00000   0.00000   0.00000   0.00000   3.14159
   D19        3.14159  -0.00000   0.00000   0.00000   0.00000   3.14159
   D20        0.00000   0.00000   0.00000   0.00000  -0.00000   0.00000
         Item               Value     Threshold  Converged?
 Maximum Force            0.119445     0.000450     NO 
 RMS     Force            0.031478     0.000300     NO 
 Maximum Displacement     0.403413     0.001800     NO 
 RMS     Displacement     0.102071     0.001200     NO 
 Predicted change in Energy=-1.279508D-01
 GradGradGradGradGradGradGradGradGradGradGradGradGradGradGradGradGradGrad

                          Input orientation:                          
 ---------------------------------------------------------------------
 Center     Atomic      Atomic             Coordinates (Angstroms)
 Number     Number       Type             X           Y           Z
 ---------------------------------------------------------------------
      1          6           0       -3.178293    0.215981   -0.000000
      2          6           0       -1.990180    0.889025    0.000000
      3          6           0       -0.788740    0.254907    0.000000
      4          6           0       -0.731865   -1.120345    0.000000
      5          6           0       -1.912028   -1.822357   -0.000000
      6          6           0       -3.121826   -1.163259   -0.000000
      7         17           0       -4.586067   -2.090995   -0.000000
      8         17           0        0.791214   -1.947189    0.000000
      9          1           0       -1.872742   -3.319712   -0.000000
     10          1           0       -2.009821    2.384715    0.000000
     11          1           0        0.487578    1.041530    0.000000
 ---------------------------------------------------------------------
                    Distance matrix (angstroms):
                    1          2          3          4          5
     1  C    0.000000
     2  C    1.365504   0.000000
     3  C    2.389870   1.358515   0.000000
     4  C    2.787611   2.370849   1.376428   0.000000
     5  C    2.399636   2.712508   2.361525   1.373173   0.000000
     6  C    1.380396   2.343607   2.730291   2.390346   1.377688
     7  Cl   2.702585   3.952107   4.463513   3.974548   2.687500
     8  Cl   4.520651   3.972437   2.710254   1.733043   2.706122
     9  H    3.769030   4.210374   3.735366   2.477662   1.497870
    10  H    2.463480   1.495819   2.455020   3.730767   4.208209
    11  H    3.757678   2.482447   1.499255   2.482085   3.736303
                    6          7          8          9         10
     6  C    0.000000
     7  Cl   1.733405   0.000000
     8  Cl   3.990793   5.379204   0.000000
     9  H    2.492087   2.978571   2.996744   0.000000
    10  H    3.718155   5.164206   5.158603   5.706073   0.000000
    11  H    4.229527   5.962767   3.004103   4.958986   2.835692
                   11
    11  H    0.000000
 Stoichiometry    C6H3Cl2(1-)
 Framework group  CS[SG(C6H3Cl2)]
 Deg. of freedom    19
 Full point group                 CS      NOp   2
 Largest Abelian subgroup         CS      NOp   2
 Largest concise Abelian subgroup C1      NOp   1
                         Standard orientation:                         
 ---------------------------------------------------------------------
 Center     Atomic      Atomic             Coordinates (Angstroms)
 Number     Number       Type             X           Y           Z
 ---------------------------------------------------------------------
      1          6           0       -1.322344   -1.344444    0.000000
      2          6           0       -0.153366   -2.050200    0.000000
      3          6           0        1.065209   -1.449668   -0.000000
      4          6           0        1.160226   -0.076524   -0.000000
      5          6           0       -0.000000    0.657968    0.000000
      6          6           0       -1.227623    0.032698    0.000000
      7         17           0       -2.665555    1.000710    0.000000
      8         17           0        2.705665    0.707734   -0.000000
      9          1           0        0.080824    2.153656   -0.000000
     10          1           0       -0.214507   -3.544770    0.000000
     11          1           0        2.319206   -2.271408   -0.000000
 ---------------------------------------------------------------------
 Rotational constants (GHZ):           2.8733799           0.8703849           0.6680298
 Standard basis: VSTO-6G (5D, 7F)
 There are    27 symmetry adapted cartesian basis functions of A'  symmetry.
 There are     8 symmetry adapted cartesian basis functions of A"  symmetry.
 There are    27 symmetry adapted basis functions of A'  symmetry.
 There are     8 symmetry adapted basis functions of A"  symmetry.
    35 basis functions,   210 primitive gaussians,    35 cartesian basis functions
    21 alpha electrons       21 beta electrons
       nuclear repulsion energy       194.3487454854 Hartrees.
 Integral buffers will be    131072 words long.
 Regular integral format.
 Two-electron integral symmetry is turned off.
 Do NDO integrals.
 One-electron integrals computed using PRISM.
 NBasis=    35 RedAO= T EigKep=  1.00D+00  NBF=    27     8
 NBsUse=    35 1.00D-06 EigRej= -1.00D+00 NBFU=    27     8
 Initial guess from the checkpoint file:  "geometry_chks/1_3ClBzAnionIntermediate.chk"
 B after Tr=     0.000000    0.000000   -0.000000
         Rot=    1.000000    0.000000   -0.000000    0.000301 Ang=   0.03 deg.
 Initial guess orbital symmetries:
       Occupied  (A') (A') (A') (A') (A') (A') (A') (A') (A') (A")
                 (A') (A") (A') (A') (A') (A") (A') (A') (A") (A")
                 (A')
       Virtual   (A') (A') (A") (A') (A") (A') (A') (A") (A') (A')
                 (A') (A') (A') (A')
 Keep J ints in memory in canonical form, NReq=862793.
 Overlap will be assumed to be unity.
 Requested convergence on RMS density matrix=1.00D-08 within**** cycles.
 Requested convergence on MAX density matrix=1.00D-06.
 Requested convergence on             energy=1.00D-06.
 No special actions if energy rises.
 Fock symm off for IB=2 I1=    1 I=   28 J=    7 Cut=1.00D-07 Err=2.62D-03
 Fock matrix is not symmetric: symmetry in diagonalization turned off.
 SCF Done:  E(RAM1) =  0.223366840377     A.U. after   13 cycles
            NFock= 12  Conv=0.96D-08     -V/T= 1.0024
 Calling FoFJK, ICntrl=      2127 FMM=F ISym2X=1 I1Cent= 0 IOpClX= 0 NMat=1 NMatS=1 NMatT=0.
 ***** Axes restored to original set *****
 -------------------------------------------------------------------
 Center     Atomic                   Forces (Hartrees/Bohr)
 Number     Number              X              Y              Z
 -------------------------------------------------------------------
      1        6          -0.023850841    0.009264291   -0.000000000
      2        6          -0.001511468    0.128953233   -0.000000000
      3        6           0.116601221    0.078674927    0.000000000
      4        6           0.027996607   -0.016956336   -0.000000000
      5        6          -0.002849889   -0.136170517   -0.000000000
      6        6          -0.015214905   -0.006909446   -0.000000000
      7       17           0.004447645    0.000946260    0.000000000
      8       17          -0.006847184    0.003492639   -0.000000000
      9        1          -0.002240704    0.116487655    0.000000000
     10        1           0.001971277   -0.115536618    0.000000000
     11        1          -0.098501758   -0.062246087    0.000000000
 -------------------------------------------------------------------
 Cartesian Forces:  Max     0.136170517 RMS     0.054371481

 GradGradGradGradGradGradGradGradGradGradGradGradGradGradGradGradGradGrad
 Berny optimization.
 Using GEDIIS/GDIIS optimizer.
 FormGI is forming the generalized inverse of G from B-inverse, IUseBI=4.
 Internal  Forces:  Max     0.116513772 RMS     0.030280521
 Search for a local minimum.
 Step number   3 out of a maximum of   57
 All quantities printed in internal units (Hartrees-Bohrs-Radians)
 Mixed Optimization -- RFO/linear search
 Update second derivatives using D2CorX and points    2    3
 ITU=  0  1  0
 Use linear search instead of GDIIS.
 Linear search step of   1.096 exceeds DXMaxT=   0.505 scaled by   0.921
 Quartic linear search produced a step of  1.68179.
 Iteration  1 RMS(Cart)=  0.08554143 RMS(Int)=  0.09289292
 Iteration  2 RMS(Cart)=  0.04960934 RMS(Int)=  0.04236659
 Iteration  3 RMS(Cart)=  0.04168473 RMS(Int)=  0.00020875
 Iteration  4 RMS(Cart)=  0.00001693 RMS(Int)=  0.00020828
 Iteration  5 RMS(Cart)=  0.00000000 RMS(Int)=  0.00020828
 ClnCor:  largest displacement from symmetrization is 1.10D-08 for atom    10.
 Variable       Old X    -DE/DX   Delta X   Delta X   Delta X     New X
                                 (Linear)    (Quad)   (Total)
    R1        2.58043   0.02156  -0.08553   0.00000  -0.08523   2.49520
    R2        2.60857   0.01693  -0.05404   0.00000  -0.05410   2.55447
    R3        2.56722   0.02047  -0.10034   0.00000  -0.10001   2.46721
    R4        2.82669  -0.11555  -0.57142   0.00000  -0.57142   2.25527
    R5        2.60107   0.02237  -0.06244   0.00000  -0.06239   2.53868
    R6        2.83318  -0.11651  -0.56413   0.00000  -0.56413   2.26905
    R7        2.59492   0.02102  -0.06941   0.00000  -0.06970   2.52522
    R8        3.27498  -0.00768  -0.06879   0.00000  -0.06879   3.20619
    R9        2.60345   0.01758  -0.05981   0.00000  -0.06014   2.54331
   R10        2.83056  -0.11651  -0.56706   0.00000  -0.56706   2.26351
   R11        3.27566  -0.00426  -0.06802   0.00000  -0.06802   3.20764
    A1        2.04529  -0.00432  -0.05499   0.00000  -0.05463   1.99065
    A2        2.14055   0.00365   0.05185   0.00000   0.05241   2.19295
    A3        2.07307  -0.00118  -0.02396   0.00000  -0.02424   2.04883
    A4        2.06957  -0.00246  -0.02789   0.00000  -0.02817   2.04140
    A5        2.09777  -0.00181   0.00384   0.00000   0.00417   2.10194
    A6        2.10362   0.00276   0.01031   0.00000   0.01015   2.11377
    A7        2.08180  -0.00095  -0.01415   0.00000  -0.01432   2.06748
    A8        2.06608  -0.00213  -0.03179   0.00000  -0.03206   2.03403
    A9        2.10949   0.00139   0.01694   0.00000   0.01707   2.12656
   A10        2.10762   0.00074   0.01485   0.00000   0.01498   2.12260
   A11        2.10613   0.00115   0.01305   0.00000   0.01243   2.11857
   A12        2.08118  -0.00173  -0.01475   0.00000  -0.01444   2.06674
   A13        2.09587   0.00058   0.00170   0.00000   0.00201   2.09788
   A14        2.11056   0.00346   0.01805   0.00000   0.01768   2.12824
   A15        2.09463   0.00086   0.00030   0.00000   0.00049   2.09512
   A16        2.07799  -0.00432  -0.01835   0.00000  -0.01817   2.05983
    D1       -0.00000   0.00000   0.00000   0.00000   0.00000   0.00000
    D2        3.14159   0.00000   0.00000   0.00000   0.00000   3.14159
    D3        0.00000  -0.00000   0.00000   0.00000   0.00000   0.00000
    D4        3.14159  -0.00000   0.00000   0.00000   0.00000   3.14159
    D5        0.00000   0.00000   0.00000   0.00000   0.00000   0.00000
    D6        3.14159   0.00000   0.00000   0.00000   0.00000   3.14159
    D7        3.14159  -0.00000   0.00000   0.00000   0.00000   3.14159
    D8       -0.00000  -0.00000   0.00000   0.00000   0.00000   0.00000
    D9       -0.00000  -0.00000   0.00000   0.00000   0.00000   0.00000
   D10        3.14159  -0.00000   0.00000   0.00000   0.00000   3.14159
   D11        3.14159  -0.00000   0.00000   0.00000   0.00000   3.14159
   D12        0.00000  -0.00000   0.00000   0.00000   0.00000   0.00000
   D13        0.00000   0.00000   0.00000   0.00000   0.00000   0.00000
   D14        3.14159   0.00000   0.00000   0.00000   0.00000   3.14159
   D15        3.14159   0.00000   0.00000   0.00000   0.00000   3.14159
   D16       -0.00000   0.00000   0.00000   0.00000   0.00000   0.00000
   D17       -0.00000   0.00000   0.00000   0.00000   0.00000   0.00000
   D18        3.14159   0.00000   0.00000   0.00000   0.00000   3.14159
   D19        3.14159  -0.00000   0.00000   0.00000   0.00000   3.14159
   D20        0.00000   0.00000   0.00000   0.00000   0.00000   0.00000
         Item               Value     Threshold  Converged?
 Maximum Force            0.116514     0.000450     NO 
 RMS     Force            0.030281     0.000300     NO 
 Maximum Displacement     0.677275     0.001800     NO 
 RMS     Displacement     0.171463     0.001200     NO 
 Predicted change in Energy=-1.685610D-01
 GradGradGradGradGradGradGradGradGradGradGradGradGradGradGradGradGradGrad

                          Input orientation:                          
 ---------------------------------------------------------------------
 Center     Atomic      Atomic             Coordinates (Angstroms)
 Number     Number       Type             X           Y           Z
 ---------------------------------------------------------------------
      1          6           0       -3.139655    0.234529   -0.000000
      2          6           0       -1.965078    0.837715    0.000000
      3          6           0       -0.803561    0.241518    0.000000
      4          6           0       -0.727139   -1.099721    0.000000
      5          6           0       -1.886698   -1.763867    0.000000
      6          6           0       -3.065939   -1.115229   -0.000000
      7         17           0       -4.486793   -2.043867   -0.000000
      8         17           0        0.762740   -1.911416    0.000000
      9          1           0       -1.857713   -2.961313   -0.000000
     10          1           0       -1.960756    2.031144    0.000000
     11          1           0        0.217822    0.872807    0.000000
 ---------------------------------------------------------------------
                    Distance matrix (angstroms):
                    1          2          3          4          5
     1  C    0.000000
     2  C    1.320403   0.000000
     3  C    2.336105   1.305593   0.000000
     4  C    2.756893   2.299163   1.343414   0.000000
     5  C    2.358706   2.602763   2.279200   1.336288   0.000000
     6  C    1.351770   2.241849   2.638014   2.338851   1.345861
     7  Cl   2.646860   3.829172   4.334649   3.876391   2.615128
     8  Cl   4.453512   3.872817   2.662409   1.696641   2.653543
     9  H    3.443369   3.800545   3.371849   2.178009   1.197797
    10  H    2.148867   1.193437   2.131165   3.365134   3.795734
    11  H    3.417609   2.183182   1.200728   2.187194   3.373582
                    6          7          8          9         10
     6  C    0.000000
     7  Cl   1.697408   0.000000
     8  Cl   3.910588   5.251204   0.000000
     9  H    2.206318   2.784559   2.822952   0.000000
    10  H    3.334830   4.794432   4.791786   4.993521   0.000000
    11  H    3.838668   5.535376   2.837046   4.359854   2.467376
                   11
    11  H    0.000000
 Stoichiometry    C6H3Cl2(1-)
 Framework group  CS[SG(C6H3Cl2)]
 Deg. of freedom    19
 Full point group                 CS      NOp   2
 Largest Abelian subgroup         CS      NOp   2
 Largest concise Abelian subgroup C1      NOp   1
                         Standard orientation:                         
 ---------------------------------------------------------------------
 Center     Atomic      Atomic             Coordinates (Angstroms)
 Number     Number       Type             X           Y           Z
 ---------------------------------------------------------------------
      1          6           0       -1.309162   -1.338843   -0.000000
      2          6           0       -0.152174   -1.975117    0.000000
      3          6           0        1.025793   -1.412120    0.000000
      4          6           0        1.140245   -0.073591    0.000000
      5          6           0        0.000000    0.623194   -0.000000
      6          6           0       -1.197173    0.008280   -0.000000
      7         17           0       -2.591103    0.976864   -0.000000
      8         17           0        2.652558    0.695499    0.000000
      9          1           0        0.062953    1.819335   -0.000000
     10          1           0       -0.181720   -3.168188    0.000000
     11          1           0        2.028851   -2.072139    0.000000
 ---------------------------------------------------------------------
 Rotational constants (GHZ):           3.0873592           0.9148326           0.7057175
 Standard basis: VSTO-6G (5D, 7F)
 There are    27 symmetry adapted cartesian basis functions of A'  symmetry.
 There are     8 symmetry adapted cartesian basis functions of A"  symmetry.
 There are    27 symmetry adapted basis functions of A'  symmetry.
 There are     8 symmetry adapted basis functions of A"  symmetry.
    35 basis functions,   210 primitive gaussians,    35 cartesian basis functions
    21 alpha electrons       21 beta electrons
       nuclear repulsion energy       198.9335940185 Hartrees.
 Integral buffers will be    131072 words long.
 Regular integral format.
 Two-electron integral symmetry is turned off.
 Do NDO integrals.
 One-electron integrals computed using PRISM.
 NBasis=    35 RedAO= T EigKep=  1.00D+00  NBF=    27     8
 NBsUse=    35 1.00D-06 EigRej= -1.00D+00 NBFU=    27     8
 Initial guess from the checkpoint file:  "geometry_chks/1_3ClBzAnionIntermediate.chk"
 B after Tr=    -0.000000    0.000000   -0.000000
         Rot=    1.000000   -0.000000    0.000000    0.000229 Ang=   0.03 deg.
 Initial guess orbital symmetries:
       Occupied  (A') (A') (A') (A') (A') (A') (A') (A') (A') (A")
                 (A') (A') (A") (A') (A') (A") (A') (A') (A") (A")
                 (A')
       Virtual   (A') (A") (A") (A') (A') (A') (A') (A") (A') (A')
                 (A') (A') (A') (A')
 Keep J ints in memory in canonical form, NReq=862793.
 Overlap will be assumed to be unity.
 Requested convergence on RMS density matrix=1.00D-08 within**** cycles.
 Requested convergence on MAX density matrix=1.00D-06.
 Requested convergence on             energy=1.00D-06.
 No special actions if energy rises.
 Fock symm off for IB=2 I1=    1 I=   28 J=   23 Cut=1.00D-07 Err=1.93D-03
 Fock matrix is not symmetric: symmetry in diagonalization turned off.
 SCF Done:  E(RAM1) =  0.981331184629E-01 A.U. after   14 cycles
            NFock= 13  Conv=0.46D-08     -V/T= 1.0011
 Calling FoFJK, ICntrl=      2127 FMM=F ISym2X=1 I1Cent= 0 IOpClX= 0 NMat=1 NMatS=1 NMatT=0.
 ***** Axes restored to original set *****
 -------------------------------------------------------------------
 Center     Atomic                   Forces (Hartrees/Bohr)
 Number     Number              X              Y              Z
 -------------------------------------------------------------------
      1        6          -0.089473078    0.005816564   -0.000000000
      2        6          -0.023066718    0.179974072   -0.000000000
      3        6           0.166940636    0.061219603    0.000000000
      4        6           0.063147997   -0.032253446   -0.000000000
      5        6          -0.008092064   -0.155571453   -0.000000000
      6        6          -0.060069678   -0.017335988    0.000000000
      7       17          -0.020698141   -0.013948967    0.000000000
      8       17           0.015470722   -0.008536494    0.000000000
      9        1          -0.001980705    0.047431462    0.000000000
     10        1          -0.000303301   -0.041702406    0.000000000
     11        1          -0.041875671   -0.025092948    0.000000000
 -------------------------------------------------------------------
 Cartesian Forces:  Max     0.179974072 RMS     0.058541649

 GradGradGradGradGradGradGradGradGradGradGradGradGradGradGradGradGradGrad
 Berny optimization.
 Using GEDIIS/GDIIS optimizer.
 FormGI is forming the generalized inverse of G from B-inverse, IUseBI=4.
 Internal  Forces:  Max     0.133715699 RMS     0.040213027
 Search for a local minimum.
 Step number   4 out of a maximum of   57
 All quantities printed in internal units (Hartrees-Bohrs-Radians)
 Mixed Optimization -- RFO/linear search
 Update second derivatives using D2CorX and points    3    4
 ITU=  0  0  1  0
 Use linear search instead of GDIIS.
     Eigenvalues ---    0.02011   0.02011   0.02011   0.02011   0.02011
     Eigenvalues ---    0.02011   0.02011   0.02011   0.06511   0.06524
     Eigenvalues ---    0.08878   0.15998   0.16000   0.16001   0.22317
     Eigenvalues ---    0.23551   0.24664   0.24992   0.25000   0.28830
     Eigenvalues ---    0.29046   0.40275   0.41474   0.44653   0.44657
     Eigenvalues ---    0.44657   0.65628
 RFO step:  Lambda=-1.41330672D-01 EMin= 2.01065832D-02
 Quartic linear search produced a step of  0.08616.
 Maximum step size (   0.505) exceeded in Quadratic search.
    -- Step size scaled by   0.879
 Iteration  1 RMS(Cart)=  0.06046133 RMS(Int)=  0.01293100
 Iteration  2 RMS(Cart)=  0.01255152 RMS(Int)=  0.00023598
 Iteration  3 RMS(Cart)=  0.00001347 RMS(Int)=  0.00023578
 Iteration  4 RMS(Cart)=  0.00000000 RMS(Int)=  0.00023578
 ClnCor:  largest displacement from symmetrization is 8.54D-09 for atom    11.
 Variable       Old X    -DE/DX   Delta X   Delta X   Delta X     New X
                                 (Linear)    (Quad)   (Total)
    R1        2.49520   0.11498  -0.00734   0.15676   0.14962   2.64482
    R2        2.55447   0.07692  -0.00466   0.10353   0.09866   2.65313
    R3        2.46721   0.13372  -0.00862   0.18236   0.17414   2.64135
    R4        2.25527  -0.04170  -0.04923  -0.18493  -0.23417   2.02110
    R5        2.53868   0.10233  -0.00538   0.14006   0.13489   2.67357
    R6        2.26905  -0.04881  -0.04861  -0.21126  -0.25986   2.00919
    R7        2.52522   0.10704  -0.00601   0.14457   0.13837   2.66359
    R8        3.20619   0.01767  -0.00593   0.03377   0.02784   3.23402
    R9        2.54331   0.09016  -0.00518   0.12052   0.11494   2.65825
   R10        2.26351  -0.04747  -0.04886  -0.20627  -0.25512   2.00838
   R11        3.20764   0.02496  -0.00586   0.04716   0.04130   3.24894
    A1        1.99065   0.02082  -0.00471   0.04216   0.03743   2.02808
    A2        2.19295  -0.02150   0.00452  -0.04096  -0.03586   2.15709
    A3        2.04883   0.01058  -0.00209   0.02021   0.01783   2.06666
    A4        2.04140   0.01092  -0.00243   0.02075   0.01803   2.05943
    A5        2.10194  -0.01135   0.00036  -0.01725  -0.01628   2.08566
    A6        2.11377   0.00492   0.00087   0.00661   0.00717   2.12094
    A7        2.06748   0.00644  -0.00123   0.01065   0.00911   2.07659
    A8        2.03403   0.01353  -0.00276   0.02907   0.02633   2.06036
    A9        2.12656  -0.00661   0.00147  -0.01423  -0.01277   2.11379
   A10        2.12260  -0.00691   0.00129  -0.01484  -0.01356   2.10904
   A11        2.11857  -0.00325   0.00107  -0.01146  -0.01098   2.10758
   A12        2.06674   0.00257  -0.00124   0.00817   0.00723   2.07397
   A13        2.09788   0.00068   0.00017   0.00329   0.00376   2.10163
   A14        2.12824   0.00177   0.00152  -0.00155  -0.00063   2.12760
   A15        2.09512  -0.00032   0.00004   0.00193   0.00227   2.09740
   A16        2.05983  -0.00145  -0.00157  -0.00038  -0.00164   2.05818
    D1        0.00000   0.00000   0.00000   0.00000   0.00000   0.00000
    D2        3.14159   0.00000   0.00000   0.00000   0.00000   3.14159
    D3       -0.00000  -0.00000   0.00000  -0.00000   0.00000   0.00000
    D4        3.14159  -0.00000   0.00000  -0.00000   0.00000   3.14159
    D5       -0.00000   0.00000   0.00000   0.00000   0.00000   0.00000
    D6        3.14159   0.00000   0.00000   0.00000   0.00000   3.14159
    D7        3.14159  -0.00000   0.00000  -0.00000   0.00000   3.14159
    D8        0.00000  -0.00000   0.00000  -0.00000   0.00000   0.00000
    D9        0.00000  -0.00000   0.00000  -0.00000  -0.00000   0.00000
   D10        3.14159   0.00000   0.00000   0.00000   0.00000   3.14159
   D11        3.14159  -0.00000   0.00000  -0.00000   0.00000   3.14159
   D12       -0.00000   0.00000   0.00000  -0.00000   0.00000   0.00000
   D13       -0.00000   0.00000   0.00000   0.00000   0.00000   0.00000
   D14        3.14159   0.00000   0.00000   0.00000   0.00000   3.14159
   D15        3.14159  -0.00000   0.00000  -0.00000   0.00000   3.14159
   D16       -0.00000  -0.00000   0.00000  -0.00000   0.00000   0.00000
   D17        0.00000   0.00000   0.00000   0.00000   0.00000   0.00000
   D18        3.14159   0.00000   0.00000   0.00000   0.00000   3.14159
   D19        3.14159  -0.00000   0.00000  -0.00000   0.00000   3.14159
   D20       -0.00000  -0.00000   0.00000  -0.00000   0.00000   0.00000
         Item               Value     Threshold  Converged?
 Maximum Force            0.133716     0.000450     NO 
 RMS     Force            0.040213     0.000300     NO 
 Maximum Displacement     0.186729     0.001800     NO 
 RMS     Displacement     0.063577     0.001200     NO 
 Predicted change in Energy=-9.200133D-02
 GradGradGradGradGradGradGradGradGradGradGradGradGradGradGradGradGradGrad

                          Input orientation:                          
 ---------------------------------------------------------------------
 Center     Atomic      Atomic             Coordinates (Angstroms)
 Number     Number       Type             X           Y           Z
 ---------------------------------------------------------------------
      1          6           0       -3.185698    0.256963   -0.000000
      2          6           0       -1.962175    0.936528    0.000000
      3          6           0       -0.720779    0.294168    0.000000
      4          6           0       -0.667949   -1.119639    0.000000
      5          6           0       -1.886279   -1.828430    0.000000
      6          6           0       -3.115941   -1.145279   -0.000000
      7         17           0       -4.557511   -2.082159   -0.000000
      8         17           0        0.829265   -1.948582    0.000000
      9          1           0       -1.861055   -2.890922   -0.000000
     10          1           0       -1.974075    2.005984    0.000000
     11          1           0        0.189427    0.843669    0.000000
 ---------------------------------------------------------------------
                    Distance matrix (angstroms):
                    1          2          3          4          5
     1  C    0.000000
     2  C    1.399578   0.000000
     3  C    2.465199   1.397744   0.000000
     4  C    2.869511   2.429577   1.414794   0.000000
     5  C    2.457103   2.766000   2.421531   1.409509   0.000000
     6  C    1.403976   2.380146   2.794424   2.448126   1.406685
     7  Cl   2.711708   3.980985   4.513030   4.006886   2.683255
     8  Cl   4.580869   4.014473   2.726273   1.711372   2.718201
     9  H    3.415239   3.828785   3.383050   2.135637   1.062791
    10  H    2.127699   1.069522   2.121571   3.387548   3.835419
    11  H    3.425740   2.153605   1.063216   2.142352   3.383589
                    6          7          8          9         10
     6  C    0.000000
     7  Cl   1.719264   0.000000
     8  Cl   4.026157   5.388432   0.000000
     9  H    2.149885   2.815133   2.850584   0.000000
    10  H    3.351763   4.836016   4.847402   4.898209   0.000000
    11  H    3.857638   5.576190   2.864621   4.260475   2.455956
                   11
    11  H    0.000000
 Stoichiometry    C6H3Cl2(1-)
 Framework group  CS[SG(C6H3Cl2)]
 Deg. of freedom    19
 Full point group                 CS      NOp   2
 Largest Abelian subgroup         CS      NOp   2
 Largest concise Abelian subgroup C1      NOp   1
                         Standard orientation:                         
 ---------------------------------------------------------------------
 Center     Atomic      Atomic             Coordinates (Angstroms)
 Number     Number       Type             X           Y           Z
 ---------------------------------------------------------------------
      1          6           0       -1.359761   -1.371238   -0.000000
      2          6           0       -0.156604   -2.086242   -0.000000
      3          6           0        1.103020   -1.480406    0.000000
      4          6           0        1.197113   -0.068745    0.000000
      5          6           0       -0.000000    0.675321   -0.000000
      6          6           0       -1.249086    0.028369   -0.000000
      7         17           0       -2.662683    1.006945   -0.000000
      8         17           0        2.717895    0.716123    0.000000
      9          1           0        0.056240    1.736623   -0.000000
     10          1           0       -0.199729   -3.154894   -0.000000
     11          1           0        1.996793   -2.056252    0.000000
 ---------------------------------------------------------------------
 Rotational constants (GHZ):           2.8749471           0.8643931           0.6645783
 Standard basis: VSTO-6G (5D, 7F)
 There are    27 symmetry adapted cartesian basis functions of A'  symmetry.
 There are     8 symmetry adapted cartesian basis functions of A"  symmetry.
 There are    27 symmetry adapted basis functions of A'  symmetry.
 There are     8 symmetry adapted basis functions of A"  symmetry.
    35 basis functions,   210 primitive gaussians,    35 cartesian basis functions
    21 alpha electrons       21 beta electrons
       nuclear repulsion energy       195.5549783866 Hartrees.
 Integral buffers will be    131072 words long.
 Regular integral format.
 Two-electron integral symmetry is turned off.
 Do NDO integrals.
 One-electron integrals computed using PRISM.
 NBasis=    35 RedAO= T EigKep=  1.00D+00  NBF=    27     8
 NBsUse=    35 1.00D-06 EigRej= -1.00D+00 NBFU=    27     8
 Initial guess from the checkpoint file:  "geometry_chks/1_3ClBzAnionIntermediate.chk"
 B after Tr=    -0.000000    0.000000    0.000000
         Rot=    1.000000    0.000000    0.000000    0.000024 Ang=   0.00 deg.
 Initial guess orbital symmetries:
       Occupied  (A') (A') (A') (A') (A') (A') (A') (A') (A') (A')
                 (A") (A') (A') (A") (A') (A") (A') (A') (A") (A")
                 (A')
       Virtual   (A") (A') (A") (A') (A') (A') (A") (A') (A') (A')
                 (A') (A') (A') (A')
 Keep J ints in memory in canonical form, NReq=862793.
 Overlap will be assumed to be unity.
 Requested convergence on RMS density matrix=1.00D-08 within**** cycles.
 Requested convergence on MAX density matrix=1.00D-06.
 Requested convergence on             energy=1.00D-06.
 No special actions if energy rises.
 Fock symm off for IB=2 I1=    1 I=   28 J=    4 Cut=1.00D-07 Err=7.94D-03
 Fock matrix is not symmetric: symmetry in diagonalization turned off.
 SCF Done:  E(RAM1) =  0.488758819900E-01 A.U. after   13 cycles
            NFock= 12  Conv=0.84D-08     -V/T= 1.0005
 Calling FoFJK, ICntrl=      2127 FMM=F ISym2X=1 I1Cent= 0 IOpClX= 0 NMat=1 NMatS=1 NMatT=0.
 ***** Axes restored to original set *****
 -------------------------------------------------------------------
 Center     Atomic                   Forces (Hartrees/Bohr)
 Number     Number              X              Y              Z
 -------------------------------------------------------------------
      1        6           0.003504092   -0.013174626   -0.000000000
      2        6           0.000274322   -0.024399477   -0.000000000
      3        6          -0.018416165   -0.027361054   -0.000000000
      4        6          -0.029666691    0.018572423   -0.000000000
      5        6           0.003359360    0.020860386    0.000000000
      6        6           0.019974245    0.017885728   -0.000000000
      7       17          -0.000782141   -0.000990820    0.000000000
      8       17          -0.000106938   -0.000134602    0.000000000
      9        1           0.000726194   -0.027669611    0.000000000
     10        1          -0.000534197    0.022183959    0.000000000
     11        1           0.021667918    0.014227694    0.000000000
 -------------------------------------------------------------------
 Cartesian Forces:  Max     0.029666691 RMS     0.013697486

 GradGradGradGradGradGradGradGradGradGradGradGradGradGradGradGradGradGrad
 Berny optimization.
 Using GEDIIS/GDIIS optimizer.
 FormGI is forming the generalized inverse of G from B-inverse, IUseBI=4.
 Internal  Forces:  Max     0.027679052 RMS     0.008466628
 Search for a local minimum.
 Step number   5 out of a maximum of   57
 All quantities printed in internal units (Hartrees-Bohrs-Radians)
 Mixed Optimization -- RFO/linear search
 Update second derivatives using D2CorX and points    4    5
 DE= -4.93D-02 DEPred=-9.20D-02 R= 5.35D-01
 TightC=F SS=  1.41D+00  RLast= 5.55D-01 DXNew= 8.4853D-01 1.6646D+00
 Trust test= 5.35D-01 RLast= 5.55D-01 DXMaxT set to 8.49D-01
 ITU=  1  0  0  1  0
 Use linear search instead of GDIIS.
     Eigenvalues ---    0.02011   0.02011   0.02011   0.02011   0.02011
     Eigenvalues ---    0.02011   0.02011   0.02011   0.06524   0.06534
     Eigenvalues ---    0.15993   0.15999   0.16000   0.17843   0.22312
     Eigenvalues ---    0.23550   0.24659   0.24991   0.25000   0.28868
     Eigenvalues ---    0.29043   0.40643   0.41634   0.44640   0.44655
     Eigenvalues ---    0.44669   0.73564
 RFO step:  Lambda=-6.86592651D-03 EMin= 2.01065824D-02
 Quartic linear search produced a step of -0.17756.
 Iteration  1 RMS(Cart)=  0.03826219 RMS(Int)=  0.00020659
 Iteration  2 RMS(Cart)=  0.00030922 RMS(Int)=  0.00005648
 Iteration  3 RMS(Cart)=  0.00000005 RMS(Int)=  0.00005648
 ClnCor:  largest displacement from symmetrization is 6.01D-10 for atom     8.
 Variable       Old X    -DE/DX   Delta X   Delta X   Delta X     New X
                                 (Linear)    (Quad)   (Total)
    R1        2.64482  -0.00600  -0.02657   0.03602   0.00937   2.65419
    R2        2.65313  -0.01346  -0.01752   0.00667  -0.01085   2.64228
    R3        2.64135  -0.00645  -0.03092   0.04142   0.01042   2.65177
    R4        2.02110   0.02219   0.04158   0.04334   0.08492   2.10602
    R5        2.67357  -0.01524  -0.02395   0.01294  -0.01101   2.66257
    R6        2.00919   0.02590   0.04614   0.07820   0.12434   2.13353
    R7        2.66359  -0.01566  -0.02457   0.01295  -0.01154   2.65204
    R8        3.23402  -0.00003  -0.00494   0.01183   0.00688   3.24091
    R9        2.65825  -0.01248  -0.02041   0.01194  -0.00839   2.64986
   R10        2.00838   0.02768   0.04530   0.09976   0.14506   2.15344
   R11        3.24894   0.00120  -0.00733   0.01915   0.01182   3.26076
    A1        2.02808   0.00022  -0.00665   0.01557   0.00881   2.03689
    A2        2.15709  -0.00501   0.00637  -0.02722  -0.02101   2.13609
    A3        2.06666   0.00221  -0.00317   0.01246   0.00937   2.07603
    A4        2.05943   0.00279  -0.00320   0.01476   0.01163   2.07107
    A5        2.08566  -0.00347   0.00289  -0.01476  -0.01194   2.07372
    A6        2.12094   0.00075  -0.00127   0.00214   0.00090   2.12184
    A7        2.07659   0.00272  -0.00162   0.01262   0.01104   2.08763
    A8        2.06036   0.01216  -0.00467   0.04798   0.04339   2.10375
    A9        2.11379  -0.00581   0.00227  -0.02302  -0.02079   2.09300
   A10        2.10904  -0.00635   0.00241  -0.02496  -0.02260   2.08644
   A11        2.10758  -0.01116   0.00195  -0.04402  -0.04190   2.06569
   A12        2.07397   0.00551  -0.00128   0.02218   0.02082   2.09478
   A13        2.10163   0.00565  -0.00067   0.02183   0.02108   2.12272
   A14        2.12760   0.00726   0.00011   0.02244   0.02264   2.15024
   A15        2.09740  -0.00297  -0.00040  -0.00872  -0.00916   2.08823
   A16        2.05818  -0.00429   0.00029  -0.01372  -0.01347   2.04471
    D1        0.00000   0.00000   0.00000   0.00000   0.00000   0.00000
    D2        3.14159   0.00000   0.00000   0.00000   0.00000   3.14159
    D3       -0.00000   0.00000   0.00000  -0.00000   0.00000   0.00000
    D4        3.14159  -0.00000   0.00000  -0.00000   0.00000   3.14159
    D5       -0.00000  -0.00000   0.00000  -0.00000   0.00000   0.00000
    D6        3.14159   0.00000   0.00000   0.00000   0.00000   3.14159
    D7        3.14159  -0.00000   0.00000  -0.00000   0.00000   3.14159
    D8        0.00000  -0.00000   0.00000  -0.00000   0.00000   0.00000
    D9        0.00000  -0.00000   0.00000  -0.00000   0.00000   0.00000
   D10        3.14159   0.00000   0.00000   0.00000   0.00000   3.14159
   D11        3.14159  -0.00000   0.00000  -0.00000   0.00000   3.14159
   D12       -0.00000  -0.00000   0.00000  -0.00000   0.00000   0.00000
   D13        0.00000   0.00000   0.00000   0.00000  -0.00000   0.00000
   D14        3.14159   0.00000   0.00000   0.00000   0.00000   3.14159
   D15        3.14159   0.00000   0.00000   0.00000   0.00000   3.14159
   D16       -0.00000   0.00000   0.00000   0.00000   0.00000   0.00000
   D17        0.00000  -0.00000   0.00000  -0.00000  -0.00000   0.00000
   D18        3.14159  -0.00000   0.00000  -0.00000   0.00000   3.14159
   D19        3.14159  -0.00000   0.00000  -0.00000   0.00000   3.14159
   D20       -0.00000  -0.00000   0.00000  -0.00000   0.00000   0.00000
         Item               Value     Threshold  Converged?
 Maximum Force            0.027679     0.000450     NO 
 RMS     Force            0.008467     0.000300     NO 
 Maximum Displacement     0.180955     0.001800     NO 
 RMS     Displacement     0.038186     0.001200     NO 
 Predicted change in Energy=-5.886681D-03
 GradGradGradGradGradGradGradGradGradGradGradGradGradGradGradGradGradGrad

                          Input orientation:                          
 ---------------------------------------------------------------------
 Center     Atomic      Atomic             Coordinates (Angstroms)
 Number     Number       Type             X           Y           Z
 ---------------------------------------------------------------------
      1          6           0       -3.183244    0.250223   -0.000000
      2          6           0       -1.965385    0.949898    0.000000
      3          6           0       -0.723329    0.296880    0.000000
      4          6           0       -0.696728   -1.111838    0.000000
      5          6           0       -1.891815   -1.847570   -0.000000
      6          6           0       -3.105862   -1.145870   -0.000000
      7         17           0       -4.555959   -2.081089   -0.000000
      8         17           0        0.805600   -1.939055    0.000000
      9          1           0       -1.860089   -2.986679   -0.000000
     10          1           0       -1.983473    2.064210    0.000000
     11          1           0        0.247516    0.873191    0.000000
 ---------------------------------------------------------------------
                    Distance matrix (angstroms):
                    1          2          3          4          5
     1  C    0.000000
     2  C    1.404538   0.000000
     3  C    2.460357   1.403259   0.000000
     4  C    2.835132   2.420795   1.408969   0.000000
     5  C    2.463437   2.798435   2.442135   1.403401   0.000000
     6  C    1.398236   2.385987   2.785317   2.409374   1.402246
     7  Cl   2.705432   3.987225   4.510409   3.979084   2.674359
     8  Cl   4.550144   4.003050   2.708695   1.715015   2.698966
     9  H    3.496895   3.937985   3.474763   2.206453   1.139551
    10  H    2.174856   1.114459   2.170580   3.426805   3.912854
    11  H    3.486861   2.214229   1.129015   2.198167   3.461109
                    6          7          8          9         10
     6  C    0.000000
     7  Cl   1.725519   0.000000
     8  Cl   3.991075   5.363440   0.000000
     9  H    2.222730   2.843908   2.864160   0.000000
    10  H    3.400643   4.878647   4.879043   5.052396   0.000000
    11  H    3.914301   5.639250   2.867087   4.397794   2.528999
                   11
    11  H    0.000000
 Stoichiometry    C6H3Cl2(1-)
 Framework group  CS[SG(C6H3Cl2)]
 Deg. of freedom    19
 Full point group                 CS      NOp   2
 Largest Abelian subgroup         CS      NOp   2
 Largest concise Abelian subgroup C1      NOp   1
                         Standard orientation:                         
 ---------------------------------------------------------------------
 Center     Atomic      Atomic             Coordinates (Angstroms)
 Number     Number       Type             X           Y           Z
 ---------------------------------------------------------------------
      1          6           0       -1.346756   -1.366145   -0.000000
      2          6           0       -0.147933   -2.097958    0.000000
      3          6           0        1.111048   -1.478199    0.000000
      4          6           0        1.175100   -0.070687    0.000000
      5          6           0        0.000000    0.696564   -0.000000
      6          6           0       -1.232277    0.027396   -0.000000
      7         17           0       -2.656992    1.000845   -0.000000
      8         17           0        2.698894    0.716288    0.000000
      9          1           0        0.062006    1.834427   -0.000000
     10          1           0       -0.195647   -3.211395    0.000000
     11          1           0        2.066225   -2.080123    0.000000
 ---------------------------------------------------------------------
 Rotational constants (GHZ):           2.8584961           0.8728515           0.6686707
 Standard basis: VSTO-6G (5D, 7F)
 There are    27 symmetry adapted cartesian basis functions of A'  symmetry.
 There are     8 symmetry adapted cartesian basis functions of A"  symmetry.
 There are    27 symmetry adapted basis functions of A'  symmetry.
 There are     8 symmetry adapted basis functions of A"  symmetry.
    35 basis functions,   210 primitive gaussians,    35 cartesian basis functions
    21 alpha electrons       21 beta electrons
       nuclear repulsion energy       195.3242203944 Hartrees.
 Integral buffers will be    131072 words long.
 Regular integral format.
 Two-electron integral symmetry is turned off.
 Do NDO integrals.
 One-electron integrals computed using PRISM.
 NBasis=    35 RedAO= T EigKep=  1.00D+00  NBF=    27     8
 NBsUse=    35 1.00D-06 EigRej= -1.00D+00 NBFU=    27     8
 Initial guess from the checkpoint file:  "geometry_chks/1_3ClBzAnionIntermediate.chk"
 B after Tr=     0.000000   -0.000000   -0.000000
         Rot=    0.999999   -0.000000   -0.000000   -0.001026 Ang=  -0.12 deg.
 Initial guess orbital symmetries:
       Occupied  (A') (A') (A') (A') (A') (A') (A') (A') (A') (A')
[...]
 SCF Done:  E(RAM1) =  0.444007694657E-01 A.U. after   11 cycles
            NFock= 10  Conv=0.40D-08     -V/T= 1.0005
 Calling FoFJK, ICntrl=      2127 FMM=F ISym2X=1 I1Cent= 0 IOpClX= 0 NMat=1 NMatS=1 NMatT=0.
 ***** Axes restored to original set *****
 -------------------------------------------------------------------
 Center     Atomic                   Forces (Hartrees/Bohr)
 Number     Number              X              Y              Z
 -------------------------------------------------------------------
      1        6           0.000243114    0.000027130   -0.000000000
      2        6          -0.000121901   -0.000322299   -0.000000000
      3        6          -0.000155933    0.000047486   -0.000000000
      4        6           0.000258024    0.000119404   -0.000000000
      5        6           0.000068759   -0.000507146   -0.000000000
      6        6          -0.000394176    0.000243208    0.000000000
      7       17          -0.000018119   -0.000002990   -0.000000000
      8       17           0.000102101   -0.000032398    0.000000000
      9        1          -0.000009204    0.000258297    0.000000000
     10        1           0.000018580    0.000149775    0.000000000
     11        1           0.000008754    0.000019532    0.000000000
 -------------------------------------------------------------------
 Cartesian Forces:  Max     0.000507146 RMS     0.000161834

 GradGradGradGradGradGradGradGradGradGradGradGradGradGradGradGradGradGrad
 Berny optimization.
 Using GEDIIS/GDIIS optimizer.
 FormGI is forming the generalized inverse of G from B-inverse, IUseBI=4.
 Internal  Forces:  Max     0.000363671 RMS     0.000095880
 Search for a local minimum.
 Step number  10 out of a maximum of   57
 All quantities printed in internal units (Hartrees-Bohrs-Radians)
 Mixed Optimization -- En-DIIS/RFO-DIIS
 Swapping is turned off.
 Update second derivatives using D2CorX and points    4    5    6    8    7
                                                      9   10
 DE= -1.66D-05 DEPred=-1.84D-05 R= 8.98D-01
 TightC=F SS=  1.41D+00  RLast= 1.03D-02 DXNew= 7.1352D-01 3.0888D-02
 Trust test= 8.98D-01 RLast= 1.03D-02 DXMaxT set to 4.24D-01
 ITU=  1  1 -1  1  0  1  0  0  1  0
     Eigenvalues ---    0.02011   0.02011   0.02011   0.02011   0.02011
     Eigenvalues ---    0.02011   0.02011   0.02011   0.06531   0.15315
     Eigenvalues ---    0.15959   0.16001   0.16933   0.22183   0.24274
     Eigenvalues ---    0.24841   0.25023   0.28394   0.29165   0.33834
     Eigenvalues ---    0.35093   0.41258   0.43408   0.44598   0.44653
     Eigenvalues ---    0.54327   0.82561
 En-DIIS/RFO-DIIS/Sim-DIIS IScMMF=       -3 using points:    10    9
 RFO step:  Lambda=-1.07728260D-06.
 DidBck=F Rises=F RFO-DIIS coefs:    0.93639    0.06361
 Iteration  1 RMS(Cart)=  0.00031800 RMS(Int)=  0.00000004
 Iteration  2 RMS(Cart)=  0.00000004 RMS(Int)=  0.00000003
 ClnCor:  largest displacement from symmetrization is 2.29D-11 for atom     8.
 Variable       Old X    -DE/DX   Delta X   Delta X   Delta X     New X
                                 (Linear)    (Quad)   (Total)
    R1        2.63536  -0.00020  -0.00017  -0.00026  -0.00043   2.63493
    R2        2.62177  -0.00009   0.00002  -0.00025  -0.00023   2.62154
    R3        2.63721  -0.00008  -0.00016  -0.00006  -0.00021   2.63700
    R4        2.07681   0.00015   0.00007   0.00011   0.00017   2.07699
    R5        2.64331   0.00001   0.00004  -0.00009  -0.00004   2.64326
    R6        2.07560   0.00002   0.00016   0.00086   0.00102   2.07662
    R7        2.63913   0.00028   0.00017   0.00031   0.00048   2.63961
    R8        3.25822   0.00011   0.00016   0.00001   0.00018   3.25840
    R9        2.64353   0.00036   0.00017   0.00048   0.00065   2.64418
   R10        2.07534  -0.00026   0.00014  -0.00166  -0.00151   2.07383
   R11        3.27188   0.00002   0.00005  -0.00007  -0.00002   3.27186
    A1        2.03944   0.00008  -0.00007   0.00022   0.00015   2.03960
    A2        2.13156   0.00010   0.00018   0.00002   0.00019   2.13176
    A3        2.07807  -0.00003  -0.00012   0.00017   0.00005   2.07811
    A4        2.07356  -0.00007  -0.00005  -0.00019  -0.00024   2.07332
    A5        2.07269   0.00006   0.00010   0.00001   0.00010   2.07279
    A6        2.11759  -0.00004  -0.00005  -0.00007  -0.00012   2.11747
    A7        2.09291  -0.00002  -0.00005   0.00007   0.00002   2.09293
    A8        2.11644  -0.00012  -0.00026   0.00005  -0.00021   2.11623
    A9        2.08599   0.00003   0.00010  -0.00010   0.00000   2.08599
   A10        2.08075   0.00009   0.00016   0.00005   0.00021   2.08096
   A11        2.04686  -0.00003   0.00014  -0.00019  -0.00005   2.04681
   A12        2.10387   0.00002  -0.00008   0.00013   0.00005   2.10392
   A13        2.13246   0.00001  -0.00006   0.00006   0.00001   2.13246
   A14        2.15938  -0.00009  -0.00009  -0.00010  -0.00019   2.15919
   A15        2.08534   0.00003  -0.00006   0.00015   0.00010   2.08544
   A16        2.03847   0.00006   0.00014  -0.00005   0.00009   2.03856
    D1       -0.00000   0.00000   0.00000   0.00000   0.00000   0.00000
    D2        3.14159   0.00000   0.00000   0.00000   0.00000   3.14159
    D3        0.00000  -0.00000   0.00000  -0.00000  -0.00000   0.00000
    D4        3.14159  -0.00000   0.00000  -0.00000   0.00000   3.14159
    D5        0.00000  -0.00000   0.00000  -0.00000  -0.00000   0.00000
    D6        3.14159   0.00000   0.00000   0.00000   0.00000   3.14159
    D7        3.14159  -0.00000   0.00000  -0.00000   0.00000   3.14159
    D8        0.00000  -0.00000   0.00000  -0.00000   0.00000   0.00000
    D9       -0.00000  -0.00000   0.00000  -0.00000   0.00000   0.00000
   D10        3.14159   0.00000   0.00000   0.00000   0.00000   3.14159
   D11        3.14159  -0.00000   0.00000  -0.00000   0.00000   3.14159
   D12       -0.00000  -0.00000   0.00000  -0.00000   0.00000   0.00000
   D13        0.00000   0.00000   0.00000   0.00000  -0.00000   0.00000
   D14        3.14159   0.00000   0.00000   0.00000   0.00000   3.14159
   D15        3.14159   0.00000   0.00000   0.00000   0.00000   3.14159
   D16       -0.00000   0.00000   0.00000   0.00000   0.00000   0.00000
   D17       -0.00000  -0.00000   0.00000  -0.00000   0.00000   0.00000
   D18        3.14159  -0.00000   0.00000  -0.00000   0.00000   3.14159
   D19        3.14159  -0.00000   0.00000  -0.00000   0.00000   3.14159
   D20       -0.00000  -0.00000   0.00000  -0.00000   0.00000   0.00000
         Item               Value     Threshold  Converged?
 Maximum Force            0.000364     0.000450     YES
 RMS     Force            0.000096     0.000300     YES
 Maximum Displacement     0.001025     0.001800     YES
 RMS     Displacement     0.000318     0.001200     YES
 Predicted change in Energy=-5.386445D-07
 Optimization completed.
    -- Stationary point found.
                           ----------------------------
                           !   Optimized Parameters   !
                           ! (Angstroms and Degrees)  !
 --------------------------                            --------------------------
 ! Name  Definition              Value          Derivative Info.                !
 --------------------------------------------------------------------------------
 ! R1    R(1,2)                  1.3946         -DE/DX =   -0.0002              !
 ! R2    R(1,6)                  1.3874         -DE/DX =   -0.0001              !
 ! R3    R(2,3)                  1.3956         -DE/DX =   -0.0001              !
 ! R4    R(2,10)                 1.099          -DE/DX =    0.0001              !
 ! R5    R(3,4)                  1.3988         -DE/DX =    0.0                 !
 ! R6    R(3,11)                 1.0984         -DE/DX =    0.0                 !
 ! R7    R(4,5)                  1.3966         -DE/DX =    0.0003              !
 ! R8    R(4,8)                  1.7242         -DE/DX =    0.0001              !
 ! R9    R(5,6)                  1.3989         -DE/DX =    0.0004              !
 ! R10   R(5,9)                  1.0982         -DE/DX =   -0.0003              !
 ! R11   R(6,7)                  1.7314         -DE/DX =    0.0                 !
 ! A1    A(2,1,6)              116.8515         -DE/DX =    0.0001              !
 ! A2    A(1,2,3)              122.1295         -DE/DX =    0.0001              !
 ! A3    A(1,2,10)             119.0644         -DE/DX =    0.0                 !
 ! A4    A(3,2,10)             118.806          -DE/DX =   -0.0001              !
 ! A5    A(2,3,4)              118.7561         -DE/DX =    0.0001              !
 ! A6    A(2,3,11)             121.3291         -DE/DX =    0.0                 !
 ! A7    A(4,3,11)             119.9148         -DE/DX =    0.0                 !
 ! A8    A(3,4,5)              121.2632         -DE/DX =   -0.0001              !
 ! A9    A(3,4,8)              119.5184         -DE/DX =    0.0                 !
 ! A10   A(5,4,8)              119.2183         -DE/DX =    0.0001              !
 ! A11   A(4,5,6)              117.2764         -DE/DX =    0.0                 !
 ! A12   A(4,5,9)              120.5429         -DE/DX =    0.0                 !
 ! A13   A(6,5,9)              122.1807         -DE/DX =    0.0                 !
 ! A14   A(1,6,5)              123.7232         -DE/DX =   -0.0001              !
 ! A15   A(1,6,7)              119.4813         -DE/DX =    0.0                 !
 ! A16   A(5,6,7)              116.7955         -DE/DX =    0.0001              !
 ! D1    D(6,1,2,3)              0.0            -DE/DX =    0.0                 !
 ! D2    D(6,1,2,10)           180.0            -DE/DX =    0.0                 !
 ! D3    D(2,1,6,5)              0.0            -DE/DX =    0.0                 !
 ! D4    D(2,1,6,7)            180.0            -DE/DX =    0.0                 !
 ! D5    D(1,2,3,4)              0.0            -DE/DX =    0.0                 !
 ! D6    D(1,2,3,11)           180.0            -DE/DX =    0.0                 !
 ! D7    D(10,2,3,4)           180.0            -DE/DX =    0.0                 !
 ! D8    D(10,2,3,11)            0.0            -DE/DX =    0.0                 !
 ! D9    D(2,3,4,5)              0.0            -DE/DX =    0.0                 !
 ! D10   D(2,3,4,8)            180.0            -DE/DX =    0.0                 !
 ! D11   D(11,3,4,5)           180.0            -DE/DX =    0.0                 !
 ! D12   D(11,3,4,8)             0.0            -DE/DX =    0.0                 !
 ! D13   D(3,4,5,6)              0.0            -DE/DX =    0.0                 !
 ! D14   D(3,4,5,9)            180.0            -DE/DX =    0.0                 !
 ! D15   D(8,4,5,6)            180.0            -DE/DX =    0.0                 !
 ! D16   D(8,4,5,9)              0.0            -DE/DX =    0.0                 !
 ! D17   D(4,5,6,1)              0.0            -DE/DX =    0.0                 !
 ! D18   D(4,5,6,7)            180.0            -DE/DX =    0.0                 !
 ! D19   D(9,5,6,1)            180.0            -DE/DX =    0.0                 !
 ! D20   D(9,5,6,7)              0.0            -DE/DX =    0.0                 !
 --------------------------------------------------------------------------------
 GradGradGradGradGradGradGradGradGradGradGradGradGradGradGradGradGradGrad

                          Input orientation:                          
 ---------------------------------------------------------------------
 Center     Atomic      Atomic             Coordinates (Angstroms)
 Number     Number       Type             X           Y           Z
 ---------------------------------------------------------------------
      1          6           0       -3.169444    0.245738   -0.000000
      2          6           0       -1.961829    0.943239    0.000000
      3          6           0       -0.728037    0.291073    0.000000
      4          6           0       -0.706168   -1.107534    0.000000
      5          6           0       -1.888468   -1.850888   -0.000000
      6          6           0       -3.092998   -1.139536   -0.000000
      7         17           0       -4.550973   -2.073383   -0.000000
      8         17           0        0.807305   -1.933482    0.000000
      9          1           0       -1.857495   -2.948674   -0.000000
     10          1           0       -1.979968    2.042091    0.000000
     11          1           0        0.215306    0.853655    0.000000
 ---------------------------------------------------------------------
                    Distance matrix (angstroms):
                    1          2          3          4          5
     1  C    0.000000
     2  C    1.394575   0.000000
     3  C    2.441828   1.395552   0.000000
     4  C    2.810529   2.404653   1.398778   0.000000
     5  C    2.456978   2.795090   2.436103   1.396570   0.000000
     6  C    1.387382   2.370125   2.763998   2.387045   1.398898
     7  Cl   2.699435   3.975384   4.495053   3.964264   2.671786
     8  Cl   4.534703   3.992947   2.702946   1.724178   2.697038
     9  H    3.453329   3.893311   3.430981   2.171485   1.098223
    10  H    2.154468   1.099001   2.152532   3.397455   3.894053
    11  H    3.438909   2.178978   1.098360   2.166881   3.426429
                    6          7          8          9         10
     6  C    0.000000
     7  Cl   1.731405   0.000000
     8  Cl   3.980291   5.360104   0.000000
     9  H    2.190765   2.832130   2.851626   0.000000
    10  H    3.370694   4.852545   4.855313   4.992267   0.000000
    11  H    3.862342   5.593297   2.849314   4.330613   2.496319
                   11
    11  H    0.000000
 Stoichiometry    C6H3Cl2(1-)
 Framework group  CS[SG(C6H3Cl2)]
 Deg. of freedom    19
 Full point group                 CS      NOp   2
 Largest Abelian subgroup         CS      NOp   2
 Largest concise Abelian subgroup C1      NOp   1
                         Standard orientation:                         
 ---------------------------------------------------------------------
 Center     Atomic      Atomic             Coordinates (Angstroms)
 Number     Number       Type             X           Y           Z
 ---------------------------------------------------------------------
      1          6           0       -1.334224   -1.361033    0.000000
      2          6           0       -0.144859   -2.089217    0.000000
      3          6           0        1.105223   -1.468846   -0.000000
      4          6           0        1.162885   -0.071257   -0.000000
      5          6           0       -0.000000    0.702117    0.000000
      6          6           0       -1.222344    0.021830    0.000000
      7         17           0       -2.655938    0.992692    0.000000
      8         17           0        2.697003    0.715680   -0.000000
      9          1           0        0.059063    1.798750   -0.000000
     10          1           0       -0.191119   -3.187244    0.000000
     11          1           0        2.033856   -2.055390   -0.000000
 ---------------------------------------------------------------------
 Rotational constants (GHZ):           2.8870511           0.8758414           0.6719827

 **********************************************************************

            Population analysis using the SCF Density.

 **********************************************************************

 Orbital symmetries:
       Occupied  (A') (A') (A') (A') (A') (A') (A') (A') (A') (A')
                 (A") (A') (A') (A") (A') (A') (A") (A') (A") (A")
                 (A')
       Virtual   (A") (A") (A') (A') (A") (A') (A') (A') (A') (A')
                 (A') (A') (A') (A')
 The electronic state is 1-A'.
 Alpha  occ. eigenvalues --   -1.27043  -1.21899  -1.18676  -0.97716  -0.93274
 Alpha  occ. eigenvalues --   -0.68044  -0.65643  -0.49719  -0.42034  -0.41545
 Alpha  occ. eigenvalues --   -0.37038  -0.36790  -0.34644  -0.32383  -0.30955
 Alpha  occ. eigenvalues --   -0.27668  -0.27165  -0.25688  -0.18447  -0.15664
 Alpha  occ. eigenvalues --   -0.10871
 Alpha virt. eigenvalues --    0.18467   0.19688   0.20003   0.23486   0.29672
 Alpha virt. eigenvalues --    0.30021   0.30920   0.32926   0.34478   0.35070
 Alpha virt. eigenvalues --    0.35910   0.36857   0.40339   0.41786
          Condensed to atoms (all electrons):
               1          2          3          4          5          6
     1  C    4.371942   0.000000   0.000000   0.000000   0.000000   0.000000
     2  C    0.000000   4.149455   0.000000   0.000000   0.000000   0.000000
     3  C    0.000000   0.000000   4.157911   0.000000   0.000000   0.000000
     4  C    0.000000   0.000000   0.000000   4.127088   0.000000   0.000000
     5  C    0.000000   0.000000   0.000000   0.000000   4.148361   0.000000
     6  C    0.000000   0.000000   0.000000   0.000000   0.000000   4.060951
     7  Cl   0.000000   0.000000   0.000000   0.000000   0.000000   0.000000
     8  Cl   0.000000   0.000000   0.000000   0.000000   0.000000   0.000000
     9  H    0.000000   0.000000   0.000000   0.000000   0.000000   0.000000
    10  H    0.000000   0.000000   0.000000   0.000000   0.000000   0.000000
    11  H    0.000000   0.000000   0.000000   0.000000   0.000000   0.000000
               7          8          9         10         11
     1  C    0.000000   0.000000   0.000000   0.000000   0.000000
     2  C    0.000000   0.000000   0.000000   0.000000   0.000000
     3  C    0.000000   0.000000   0.000000   0.000000   0.000000
     4  C    0.000000   0.000000   0.000000   0.000000   0.000000
     5  C    0.000000   0.000000   0.000000   0.000000   0.000000
     6  C    0.000000   0.000000   0.000000   0.000000   0.000000
     7  Cl   7.145466   0.000000   0.000000   0.000000   0.000000
     8  Cl   0.000000   7.132819   0.000000   0.000000   0.000000
     9  H    0.000000   0.000000   0.890227   0.000000   0.000000
    10  H    0.000000   0.000000   0.000000   0.909960   0.000000
    11  H    0.000000   0.000000   0.000000   0.000000   0.905820
 Mulliken charges:
               1
     1  C   -0.371942
     2  C   -0.149455
     3  C   -0.157911
     4  C   -0.127088
     5  C   -0.148361
     6  C   -0.060951
     7  Cl  -0.145466
     8  Cl  -0.132819
     9  H    0.109773
    10  H    0.090040
    11  H    0.094180
 Sum of Mulliken charges =  -1.00000
 Mulliken charges with hydrogens summed into heavy atoms:
               1
     1  C   -0.371942
     2  C   -0.059415
     3  C   -0.063731
     4  C   -0.127088
     5  C   -0.038587
     6  C   -0.060951
     7  Cl  -0.145466
     8  Cl  -0.132819
 Charge=             -1.0000 electrons
 Dipole moment (field-independent basis, Debye):
    X=              4.1403    Y=              3.1454    Z=              0.0000  Tot=              5.1996
 N-N= 1.958456750820D+02 E-N=-2.769513731779D+02  KE=-9.219302206220D+01
 Symmetry A'   KE=-7.173831120000D+01
 Symmetry A"   KE=-2.045471086221D+01
 1\1\GINC-SH03-01N56\FOpt\RAM1\ZDO\C6H3Cl2(1-)\JLAPIER\08-Dec-2025\0\\#
  opt am1 SCF(maxcyc=10000)\\Anion Intermediate (removed 2) 1_3\\-1,1\C
 ,-3.1694435916,0.2457384495,0.\C,-1.9618294008,0.9432393023,0.\C,-0.72
 80366197,0.291072837,0.\C,-0.7061681124,-1.1075339746,0.\C,-1.88846797
 95,-1.8508876165,0.\C,-3.0929983418,-1.1395356109,0.\Cl,-4.550973499,-
 2.0733829192,0.\Cl,0.807304567,-1.9334818704,0.\H,-1.8574949659,-2.948
 6737058,0.\H,-1.9799681926,2.0420905377,0.\H,0.2153061363,0.8536545709
 ,0.\\Version=ES64L-G16RevB.01\State=1-A'\HF=0.0444008\RMSD=4.047e-09\R
 MSF=1.618e-04\Dipole=1.5966929,-1.2788034,0.\PG=CS [SG(C6H3Cl2)]\\@


 A politician is a person who can make waves and then
 make you think he's the only one who can save the ship.
 -- Ivern Ball
 Job cpu time:       0 days  0 hours  0 minutes  3.1 seconds.
 Elapsed time:       0 days  0 hours  0 minutes 12.2 seconds.
 File lengths (MBytes):  RWF=     10 Int=      0 D2E=      0 Chk=      2 Scr=      1
 Normal termination of Gaussian 16 at Mon Dec  8 17:08:40 2025.
