 Entering Gaussian System, Link 0=g16
 Initial command:
 /share/software/user/restricted/gaussian/g16.B01/l1.exe "/home/users/jlapier/Chloroaromatics/Gau-22261.inp" -scrdir="/home/users/jlapier/Chloroaromatics/"
 Entering Link 1 = /share/software/user/restricted/gaussian/g16.B01/l1.exe PID=     22268.
  
 Copyright (c) 1988-2017, Gaussian, Inc.  All Rights Reserved.
  
 This is part of the Gaussian(R) 16 program.  It is based on
 the Gaussian(R) 09 system (copyright 2009, Gaussian, Inc.),
 the Gaussian(R) 03 system (copyright 2003, Gaussian, Inc.),
 the Gaussian(R) 98 system (copyright 1998, Gaussian, Inc.),
 the Gaussian(R) 94 system (copyright 1995, Gaussian, Inc.),
 the Gaussian 92(TM) system (copyright 1992, Gaussian, Inc.),
 the Gaussian 90(TM) system (copyright 1990, Gaussian, Inc.),
 the Gaussian 88(TM) system (copyright 1988, Gaussian, Inc.),
 the Gaussian 86(TM) system (copyright 1986, Carnegie Mellon
 University), and the Gaussian 82(TM) system (copyright 1983,
 Carnegie Mellon University). Gaussian is a federally registered
 trademark of Gaussian, Inc.
  
 This software contains proprietary and confidential information,
 including trade secrets, belonging to Gaussian, Inc.
  
 This software is provided under written license and may be
 used, copied, transmitted, or stored only in accord with that
 written license.
  
 The following legend is applicable only to US Government
 contracts under FAR:
  
                    RESTRICTED RIGHTS LEGEND
  
 Use, reproduction and disclosure by the US Government is
 subject to restrictions as set forth in subparagraphs (a)
 and (c) of the Commercial Computer Software - Restricted
 Rights clause in FAR 52.227-19.
  
 Gaussian, Inc.
 340 Quinnipiac St., Bldg. 40, Wallingford CT 06492
  
  
 ---------------------------------------------------------------
 Warning -- This program may not be used in any manner that
 competes with the business of Gaussian, Inc. or will provide
 assistance to any competitor of Gaussian, Inc.  The licensee
 of this program is prohibited from giving any competitor of
 Gaussian, Inc. access to this program.  By using this program,
 the user acknowledges that Gaussian, Inc. is engaged in the
 business of creating and licensing software in the field of
 computational chemistry and represents and warrants to the
 licensee that it is not a competitor of Gaussian, Inc. and that
 it will not use this program in any manner prohibited above.
 ---------------------------------------------------------------
  

 Cite this work as:
 Gaussian 16, Revision B.01,
 M. J. Frisch, G. W. Trucks, H. B. Schlegel, G. E. Scuseria, 
 M. A. Robb, J. R. Cheeseman, G. Scalmani, V. Barone, 
 G. A. Petersson, H. Nakatsuji, X. Li, M. Caricato, A. V. Marenich, 
 J. Bloino, B. G. Janesko, R. Gomperts, B. Mennucci, H. P. Hratchian, 
 J. V. Ortiz, A. F. Izmaylov, J. L. Sonnenberg, D. Williams-Young, 
 F. Ding, F. Lipparini, F. Egidi, J. Goings, B. Peng, A. Petrone, 
 T. Henderson, D. Ranasinghe, V. G. Zakrzewski, J. Gao, N. Rega, 
 G. Zheng, W. Liang, M. Hada, M. Ehara, K. Toyota, R. Fukuda, 
 J. Hasegawa, M. Ishida, T. Nakajima, Y. Honda, O. Kitao, H. Nakai, 
 T. Vreven, K. Throssell, J. A. Montgomery, Jr., J. E. Peralta, 
 F. Ogliaro, M. J. Bearpark, J. J. Heyd, E. N. Brothers, K. N. Kudin, 
 V. N. Staroverov, T. A. Keith, R. Kobayashi, J. Normand, 
 K. Raghavachari, A. P. Rendell, J. C. Burant, S. S. Iyengar, 
 J. Tomasi, M. Cossi, J. M. Millam, M. Klene, C. Adamo, R. Cammi, 
 J. W. Ochterski, R. L. Martin, K. Morokuma, O. Farkas, 
 J. B. Foresman, and D. J. Fox, Gaussian, Inc., Wallingford CT, 2016.
 
 ******************************************
 Gaussian 16:  ES64L-G16RevB.01 20-Dec-2017
                 8-Dec-2025 
 ******************************************
 %mem=2GB
 %nprocshare=1
 Will use up to    1 processors via shared memory.
 %chk=geometry_chks/1_45ClBzAnionIntermediate.chk
 ---------------------------
 # opt am1 SCF(maxcyc=10000)
 ---------------------------
 1/18=20,19=15,26=1,38=1/1,3;
 2/9=110,12=2,17=6,18=5,40=1/2;
 3/5=2,25=1,41=700000,71=1/1,2,3;
 4/35=1/1;
 5/5=2,7=10000,35=1,38=5/2;
 6/7=2,8=2,9=2,10=2,28=1/1;
 7//1,2,3,16;
 1/18=20,19=15,26=1/3(2);
 2/9=110/2;
 99//99;
 2/9=110/2;
 3/5=2,25=1,41=700000,71=1,135=20/1,2,3;
 4/5=5,16=3,35=1/1;
 5/5=2,7=10000,35=1,38=5/2;
 7//1,2,3,16;
 1/18=20,19=15,26=1/3(-5);
 2/9=110/2;
 6/7=2,8=2,9=2,10=2,19=2,28=1/1;
 99/9=1/99;
 -----------------------------------
 Anion Intermediate (removed 2) 1_45
 -----------------------------------
 Symbolic Z-matrix:
 Charge = -1 Multiplicity = 1
 C                    -3.20928   0.19943   0. 
 C                    -2.0115    0.93555   0. 
 C                    -0.77511   0.2663    0. 
 C                    -0.7365   -1.13907   0. 
 C                    -1.93429  -1.87519   0. 
 C                    -3.17067  -1.20594   0. 
 Cl                   -4.67483  -2.13035   0. 
 H                     0.81614  -1.97951   0. 
 Cl                   -1.8858   -3.64003   0. 
 Cl                   -2.05998   2.7004    0. 
 H                     0.72905   1.19071   0. 
 
 Add virtual bond connecting atoms H8         and C4         Dist= 3.34D+00.
 Add virtual bond connecting atoms H11        and C3         Dist= 3.34D+00.

 GradGradGradGradGradGradGradGradGradGradGradGradGradGradGradGradGradGrad
 Berny optimization.
 Initialization pass.
                           ----------------------------
                           !    Initial Parameters    !
                           ! (Angstroms and Degrees)  !
 --------------------------                            --------------------------
 ! Name  Definition              Value          Derivative Info.                !
 --------------------------------------------------------------------------------
 ! R1    R(1,2)                  1.4059         estimate D2E/DX2                !
 ! R2    R(1,6)                  1.4059         estimate D2E/DX2                !
 ! R3    R(2,3)                  1.4059         estimate D2E/DX2                !
 ! R4    R(2,10)                 1.7655         estimate D2E/DX2                !
 ! R5    R(3,4)                  1.4059         estimate D2E/DX2                !
 ! R6    R(3,11)                 1.7655         estimate D2E/DX2                !
 ! R7    R(4,5)                  1.4059         estimate D2E/DX2                !
 ! R8    R(4,8)                  1.7655         estimate D2E/DX2                !
 ! R9    R(5,6)                  1.4059         estimate D2E/DX2                !
 ! R10   R(5,9)                  1.7655         estimate D2E/DX2                !
 ! R11   R(6,7)                  1.7655         estimate D2E/DX2                !
 ! A1    A(2,1,6)              119.9999         estimate D2E/DX2                !
 ! A2    A(1,2,3)              120.0            estimate D2E/DX2                !
 ! A3    A(1,2,10)             120.0001         estimate D2E/DX2                !
 ! A4    A(3,2,10)             119.9999         estimate D2E/DX2                !
 ! A5    A(2,3,4)              120.0001         estimate D2E/DX2                !
 ! A6    A(2,3,11)             120.0            estimate D2E/DX2                !
 ! A7    A(4,3,11)             119.9999         estimate D2E/DX2                !
 ! A8    A(3,4,5)              119.9997         estimate D2E/DX2                !
 ! A9    A(3,4,8)              120.0003         estimate D2E/DX2                !
 ! A10   A(5,4,8)              120.0            estimate D2E/DX2                !
 ! A11   A(4,5,6)              120.0            estimate D2E/DX2                !
 ! A12   A(4,5,9)              119.9996         estimate D2E/DX2                !
 ! A13   A(6,5,9)              120.0004         estimate D2E/DX2                !
 ! A14   A(1,6,5)              120.0003         estimate D2E/DX2                !
 ! A15   A(1,6,7)              119.9999         estimate D2E/DX2                !
 ! A16   A(5,6,7)              119.9998         estimate D2E/DX2                !
 ! D1    D(6,1,2,3)              0.0            estimate D2E/DX2                !
 ! D2    D(6,1,2,10)           180.0            estimate D2E/DX2                !
 ! D3    D(2,1,6,5)              0.0            estimate D2E/DX2                !
 ! D4    D(2,1,6,7)            180.0            estimate D2E/DX2                !
 ! D5    D(1,2,3,4)              0.0            estimate D2E/DX2                !
 ! D6    D(1,2,3,11)           180.0            estimate D2E/DX2                !
 ! D7    D(10,2,3,4)           180.0            estimate D2E/DX2                !
 ! D8    D(10,2,3,11)            0.0            estimate D2E/DX2                !
 ! D9    D(2,3,4,5)              0.0            estimate D2E/DX2                !
 ! D10   D(2,3,4,8)            180.0            estimate D2E/DX2                !
 ! D11   D(11,3,4,5)           180.0            estimate D2E/DX2                !
 ! D12   D(11,3,4,8)             0.0            estimate D2E/DX2                !
 ! D13   D(3,4,5,6)              0.0            estimate D2E/DX2                !
 ! D14   D(3,4,5,9)            180.0            estimate D2E/DX2                !
 ! D15   D(8,4,5,6)            180.0            estimate D2E/DX2                !
 ! D16   D(8,4,5,9)              0.0            estimate D2E/DX2                !
 ! D17   D(4,5,6,1)              0.0            estimate D2E/DX2                !
 ! D18   D(4,5,6,7)            180.0            estimate D2E/DX2                !
 ! D19   D(9,5,6,1)            180.0            estimate D2E/DX2                !
 ! D20   D(9,5,6,7)              0.0            estimate D2E/DX2                !
 --------------------------------------------------------------------------------
 Trust Radius=3.00D-01 FncErr=1.00D-07 GrdErr=1.00D-07 EigMax=2.50D+02 EigMin=1.00D-04
 Number of steps in this run=     57 maximum allowed number of steps=    100.
 GradGradGradGradGradGradGradGradGradGradGradGradGradGradGradGradGradGrad

                          Input orientation:                          
 ---------------------------------------------------------------------
 Center     Atomic      Atomic             Coordinates (Angstroms)
 Number     Number       Type             X           Y           Z
 ---------------------------------------------------------------------
      1          6           0       -3.209280    0.199430    0.000000
      2          6           0       -2.011500    0.935550    0.000000
      3          6           0       -0.775110    0.266300    0.000000
      4          6           0       -0.736500   -1.139070    0.000000
      5          6           0       -1.934290   -1.875190    0.000000
      6          6           0       -3.170670   -1.205940    0.000000
      7         17           0       -4.674830   -2.130350    0.000000
      8          1           0        0.816140   -1.979510    0.000000
      9         17           0       -1.885800   -3.640030    0.000000
     10         17           0       -2.059980    2.700400    0.000000
     11          1           0        0.729050    1.190710    0.000000
 ---------------------------------------------------------------------
                    Distance matrix (angstroms):
                    1          2          3          4          5
     1  C    0.000000
     2  C    1.405898   0.000000
     3  C    2.435088   1.405900   0.000000
     4  C    2.811801   2.435092   1.405900   0.000000
     5  C    2.435087   2.811800   2.435093   1.405907   0.000000
     6  C    1.405900   2.435088   2.811796   2.435088   1.405892
     7  Cl   2.752401   4.061166   4.577308   4.061167   2.752393
     8  H    4.577312   4.061173   2.752406   1.765511   2.752408
     9  Cl   4.061164   4.577306   4.061163   2.752397   1.765506
    10  Cl   2.752406   1.765516   2.752405   4.061173   4.577316
    11  H    4.061167   2.752403   1.765512   2.752401   4.061173
                    6          7          8          9         10
     6  C    0.000000
     7  Cl   1.765512   0.000000
     8  H    4.061165   5.493041   0.000000
     9  Cl   2.752396   3.171407   3.171404   0.000000
    10  Cl   4.061173   5.493049   5.493052   6.342822   0.000000
    11  H    4.577308   6.342819   3.171416   5.493040   3.171412
                   11
    11  H    0.000000
 Stoichiometry    C6H2Cl3(1-)
 Framework group  CS[SG(C6H2Cl3)]
 Deg. of freedom    19
 Full point group                 CS      NOp   2
 Largest Abelian subgroup         CS      NOp   2
 Largest concise Abelian subgroup C1      NOp   1
                         Standard orientation:                         
 ---------------------------------------------------------------------
 Center     Atomic      Atomic             Coordinates (Angstroms)
 Number     Number       Type             X           Y           Z
 ---------------------------------------------------------------------
      1          6           0        1.248404    0.150625    0.000000
      2          6           0        1.248404   -1.255273    0.000000
      3          6           0        0.030858   -1.958222    0.000000
      4          6           0       -1.186688   -1.255273    0.000000
      5          6           0       -1.186683    0.150634    0.000000
      6          6           0        0.030858    0.853574    0.000000
      7         17           0        0.030859    2.619086    0.000000
      8          1           0       -2.715669   -2.138023    0.000000
      9         17           0       -2.715659    1.033382    0.000000
     10         17           0        2.777383   -2.138034    0.000000
     11          1           0        0.030856   -3.723734    0.000000
 ---------------------------------------------------------------------
 Rotational constants (GHZ):           1.8217158           0.5760403           0.4376516
 Standard basis: VSTO-6G (5D, 7F)
 There are    29 symmetry adapted cartesian basis functions of A'  symmetry.
 There are     9 symmetry adapted cartesian basis functions of A"  symmetry.
 There are    29 symmetry adapted basis functions of A'  symmetry.
 There are     9 symmetry adapted basis functions of A"  symmetry.
    38 basis functions,   228 primitive gaussians,    38 cartesian basis functions
    24 alpha electrons       24 beta electrons
       nuclear repulsion energy       238.8630659919 Hartrees.
 Integral buffers will be    131072 words long.
 Regular integral format.
 Two-electron integral symmetry is turned off.
 Do NDO integrals.
 One-electron integrals computed using PRISM.
 NBasis=    38 RedAO= T EigKep=  1.00D+00  NBF=    29     9
 NBsUse=    38 1.00D-06 EigRej= -1.00D+00 NBFU=    29     9
 Simple Huckel Guess.
 Initial guess orbital symmetries:
       Occupied  (A') (A') (A') (A') (A') (A') (A') (A') (A') (A")
                 (A') (A') (A') (A") (A') (A") (A') (A") (A') (A')
                 (A') (A") (A") (A')
       Virtual   (A') (A") (A") (A') (A") (A') (A') (A') (A') (A')
                 (A') (A') (A') (A')
 The electronic state of the initial guess is 1-A'.
 Keep J ints in memory in canonical form, NReq=863588.
 Overlap will be assumed to be unity.
 Requested convergence on RMS density matrix=1.00D-08 within**** cycles.
 Requested convergence on MAX density matrix=1.00D-06.
 Requested convergence on             energy=1.00D-06.
 No special actions if energy rises.
 Fock symm off for IB=2 I1=    1 I=   30 J=   29 Cut=1.00D-07 Err=9.39D-03
 Fock matrix is not symmetric: symmetry in diagonalization turned off.
 SCF Done:  E(RAM1) =  0.274423047437     A.U. after   17 cycles
            NFock= 16  Conv=0.45D-08     -V/T= 1.0024

 **********************************************************************

            Population analysis using the SCF Density.

 **********************************************************************

 Orbital symmetries:
       Occupied  (A') (A') (A') (A') (A') (A') (A') (A') (A') (A')
                 (A') (A") (A') (A") (A") (A') (A') (A') (A") (A')
                 (A') (A") (A") (A')
       Virtual   (A') (A') (A") (A') (A") (A') (A') (A") (A') (A')
                 (A') (A') (A') (A')
 The electronic state is 1-A'.
 Alpha  occ. eigenvalues --   -1.25953  -1.22025  -1.20798  -1.18419  -0.95356
 Alpha  occ. eigenvalues --   -0.91990  -0.67245  -0.64367  -0.46575  -0.43634
 Alpha  occ. eigenvalues --   -0.43540  -0.38097  -0.36220  -0.33378  -0.31467
 Alpha  occ. eigenvalues --   -0.30868  -0.29605  -0.27895  -0.27641  -0.26684
 Alpha  occ. eigenvalues --   -0.25477  -0.18900  -0.17295  -0.12527
 Alpha virt. eigenvalues --    0.13816   0.15743   0.16018   0.18382   0.18622
 Alpha virt. eigenvalues --    0.20588   0.21949   0.27177   0.31710   0.32146
 Alpha virt. eigenvalues --    0.33757   0.34637   0.36688   0.39004
          Condensed to atoms (all electrons):
               1          2          3          4          5          6
     1  C    4.333116   0.000000   0.000000   0.000000   0.000000   0.000000
     2  C    0.000000   4.053183   0.000000   0.000000   0.000000   0.000000
     3  C    0.000000   0.000000   4.108650   0.000000   0.000000   0.000000
     4  C    0.000000   0.000000   0.000000   4.187082   0.000000   0.000000
     5  C    0.000000   0.000000   0.000000   0.000000   4.041690   0.000000
     6  C    0.000000   0.000000   0.000000   0.000000   0.000000   4.053139
     7  Cl   0.000000   0.000000   0.000000   0.000000   0.000000   0.000000
     8  H    0.000000   0.000000   0.000000   0.000000   0.000000   0.000000
     9  Cl   0.000000   0.000000   0.000000   0.000000   0.000000   0.000000
    10  Cl   0.000000   0.000000   0.000000   0.000000   0.000000   0.000000
    11  H    0.000000   0.000000   0.000000   0.000000   0.000000   0.000000
               7          8          9         10         11
     1  C    0.000000   0.000000   0.000000   0.000000   0.000000
     2  C    0.000000   0.000000   0.000000   0.000000   0.000000
     3  C    0.000000   0.000000   0.000000   0.000000   0.000000
     4  C    0.000000   0.000000   0.000000   0.000000   0.000000
     5  C    0.000000   0.000000   0.000000   0.000000   0.000000
     6  C    0.000000   0.000000   0.000000   0.000000   0.000000
     7  Cl   7.108435   0.000000   0.000000   0.000000   0.000000
     8  H    0.000000   0.916407   0.000000   0.000000   0.000000
     9  Cl   0.000000   0.000000   7.123780   0.000000   0.000000
    10  Cl   0.000000   0.000000   0.000000   7.125465   0.000000
    11  H    0.000000   0.000000   0.000000   0.000000   0.949053
 Mulliken charges:
               1
     1  C   -0.333116
     2  C   -0.053183
     3  C   -0.108650
     4  C   -0.187082
     5  C   -0.041690
     6  C   -0.053139
     7  Cl  -0.108435
     8  H    0.083593
     9  Cl  -0.123780
    10  Cl  -0.125465
    11  H    0.050947
 Sum of Mulliken charges =  -1.00000
 Mulliken charges with hydrogens summed into heavy atoms:
               1
     1  C   -0.333116
     2  C   -0.053183
     3  C   -0.057703
     4  C   -0.103489
     5  C   -0.041690
     6  C   -0.053139
     7  Cl  -0.108435
     9  Cl  -0.123780
    10  Cl  -0.125465
 Charge=             -1.0000 electrons
 Dipole moment (field-independent basis, Debye):
    X=             -3.7685    Y=             -1.1634    Z=              0.0000  Tot=              3.9440
 N-N= 2.388630659919D+02 E-N=-3.377054879932D+02  KE=-1.135527037512D+02
 Symmetry A'   KE=-8.749638757141D+01
 Symmetry A"   KE=-2.605631617982D+01
 Calling FoFJK, ICntrl=      2127 FMM=F ISym2X=1 I1Cent= 0 IOpClX= 0 NMat=1 NMatS=1 NMatT=0.
 ***** Axes restored to original set *****
 -------------------------------------------------------------------
 Center     Atomic                   Forces (Hartrees/Bohr)
 Number     Number              X              Y              Z
 -------------------------------------------------------------------
      1        6           0.010555614   -0.006126210   -0.000000000
      2        6           0.004612560   -0.011702504    0.000000000
      3        6           0.070714085    0.024108367    0.000000000
      4        6           0.070062624   -0.016064554   -0.000000000
      5        6           0.015327820   -0.015194144    0.000000000
      6        6          -0.000712315    0.017752049   -0.000000000
      7       17           0.023698121    0.015925829   -0.000000000
      8        1          -0.104169768    0.055575757   -0.000000000
      9       17           0.004568876    0.024091745   -0.000000000
     10       17           0.002395538   -0.027628558   -0.000000000
     11        1          -0.097053154   -0.060737777   -0.000000000
 -------------------------------------------------------------------
 Cartesian Forces:  Max     0.104169768 RMS     0.035278611

 GradGradGradGradGradGradGradGradGradGradGradGradGradGradGradGradGradGrad
 Berny optimization.
 FormGI is forming the generalized inverse of G from B-inverse, IUseBI=4.
 Internal  Forces:  Max     0.118065646 RMS     0.028001435
 Search for a local minimum.
 Step number   1 out of a maximum of   57
 All quantities printed in internal units (Hartrees-Bohrs-Radians)
 Mixed Optimization -- RFO/linear search
 Second derivative matrix not updated -- first step.
 ITU=  0
     Eigenvalues ---    0.02011   0.02011   0.02011   0.02011   0.02011
     Eigenvalues ---    0.02011   0.02011   0.02011   0.06524   0.06524
     Eigenvalues ---    0.16000   0.16000   0.22472   0.24476   0.25000
     Eigenvalues ---    0.25000   0.25000   0.25000   0.29033   0.29033
     Eigenvalues ---    0.29034   0.41073   0.41424   0.44656   0.44657
     Eigenvalues ---    0.44657   0.44657
 RFO step:  Lambda=-1.46295500D-01 EMin= 2.01065791D-02
 Linear search not attempted -- first point.
 Maximum step size (   0.300) exceeded in Quadratic search.
    -- Step size scaled by   0.375
 Iteration  1 RMS(Cart)=  0.04750153 RMS(Int)=  0.00142669
 Iteration  2 RMS(Cart)=  0.00133194 RMS(Int)=  0.00000778
 Iteration  3 RMS(Cart)=  0.00000014 RMS(Int)=  0.00000778
 ClnCor:  largest displacement from symmetrization is 3.79D-11 for atom    11.
 Variable       Old X    -DE/DX   Delta X   Delta X   Delta X     New X
                                 (Linear)    (Quad)   (Total)
    R1        2.65676  -0.02840   0.00000  -0.01785  -0.01785   2.63891
    R2        2.65677  -0.02775   0.00000  -0.01700  -0.01701   2.63975
    R3        2.65677  -0.03195   0.00000  -0.02065  -0.02063   2.63613
    R4        3.33634  -0.02768   0.00000  -0.02378  -0.02378   3.31256
    R5        2.65677  -0.05406   0.00000  -0.03475  -0.03474   2.62203
    R6        3.33633  -0.11449   0.00000  -0.20296  -0.20296   3.13337
    R7        2.65678  -0.03621   0.00000  -0.02302  -0.02302   2.63376
    R8        3.33633  -0.11807   0.00000  -0.20931  -0.20931   3.12703
    R9        2.65675  -0.00932   0.00000  -0.00546  -0.00547   2.65128
   R10        3.33632  -0.02396   0.00000  -0.02058  -0.02058   3.31575
   R11        3.33633  -0.02853   0.00000  -0.02450  -0.02450   3.31183
    A1        2.09439  -0.01466   0.00000  -0.01259  -0.01260   2.08179
    A2        2.09439   0.00665   0.00000   0.00563   0.00564   2.10004
    A3        2.09440  -0.00060   0.00000  -0.00023  -0.00024   2.09416
    A4        2.09439  -0.00605   0.00000  -0.00540  -0.00540   2.08899
    A5        2.09440   0.00501   0.00000   0.00332   0.00334   2.09774
    A6        2.09440  -0.00096   0.00000   0.00024   0.00023   2.09463
    A7        2.09439  -0.00406   0.00000  -0.00356  -0.00357   2.09082
    A8        2.09439   0.00518   0.00000   0.00403   0.00404   2.09843
    A9        2.09440  -0.00140   0.00000  -0.00056  -0.00056   2.09384
   A10        2.09440  -0.00378   0.00000  -0.00347  -0.00348   2.09092
   A11        2.09439  -0.00900   0.00000  -0.00818  -0.00819   2.08620
   A12        2.09439  -0.00422   0.00000  -0.00416  -0.00416   2.09023
   A13        2.09440   0.01322   0.00000   0.01234   0.01235   2.10675
   A14        2.09440   0.00681   0.00000   0.00779   0.00777   2.10217
   A15        2.09439  -0.00534   0.00000  -0.00573  -0.00572   2.08868
   A16        2.09439  -0.00147   0.00000  -0.00207  -0.00206   2.09234
    D1        0.00000   0.00000   0.00000   0.00000   0.00000   0.00000
    D2        3.14159  -0.00000   0.00000  -0.00000   0.00000   3.14159
    D3        0.00000  -0.00000   0.00000  -0.00000   0.00000   0.00000
    D4        3.14159   0.00000   0.00000   0.00000   0.00000   3.14159
    D5        0.00000   0.00000   0.00000   0.00000   0.00000   0.00000
    D6        3.14159  -0.00000   0.00000  -0.00000   0.00000   3.14159
    D7        3.14159   0.00000   0.00000   0.00000   0.00000   3.14159
    D8        0.00000  -0.00000   0.00000  -0.00000   0.00000   0.00000
    D9        0.00000  -0.00000   0.00000  -0.00000   0.00000   0.00000
   D10        3.14159  -0.00000   0.00000  -0.00000   0.00000   3.14159
   D11        3.14159   0.00000   0.00000   0.00000   0.00000   3.14159
   D12        0.00000   0.00000   0.00000   0.00000   0.00000   0.00000
   D13        0.00000   0.00000   0.00000   0.00000   0.00000   0.00000
   D14        3.14159  -0.00000   0.00000  -0.00000   0.00000   3.14159
   D15        3.14159   0.00000   0.00000   0.00000   0.00000   3.14159
   D16        0.00000   0.00000   0.00000   0.00000   0.00000   0.00000
   D17        0.00000  -0.00000   0.00000  -0.00000   0.00000   0.00000
   D18        3.14159  -0.00000   0.00000  -0.00000   0.00000   3.14159
   D19        3.14159   0.00000   0.00000   0.00000   0.00000   3.14159
   D20        0.00000   0.00000   0.00000   0.00000   0.00000   0.00000
         Item               Value     Threshold  Converged?
 Maximum Force            0.118066     0.000450     NO 
 RMS     Force            0.028001     0.000300     NO 
 Maximum Displacement     0.173606     0.001800     NO 
 RMS     Displacement     0.048606     0.001200     NO 
 Predicted change in Energy=-5.115849D-02
 GradGradGradGradGradGradGradGradGradGradGradGradGradGradGradGradGradGrad

                          Input orientation:                          
 ---------------------------------------------------------------------
 Center     Atomic      Atomic             Coordinates (Angstroms)
 Number     Number       Type             X           Y           Z
 ---------------------------------------------------------------------
      1          6           0       -3.192245    0.200134    0.000000
      2          6           0       -1.996645    0.921673    0.000000
      3          6           0       -0.771478    0.254637    0.000000
      4          6           0       -0.732117   -1.132323    0.000000
      5          6           0       -1.915907   -1.867926    0.000000
      6          6           0       -3.147565   -1.196048    0.000000
      7         17           0       -4.641773   -2.111887    0.000000
      8          1           0        0.724272   -1.917901    0.000000
      9         17           0       -1.851755   -3.621370    0.000000
     10         17           0       -2.031043    2.674269    0.000000
     11          1           0        0.643486    1.119044    0.000000
 ---------------------------------------------------------------------
                    Distance matrix (angstroms):
                    1          2          3          4          5
     1  C    0.000000
     2  C    1.396452   0.000000
     3  C    2.421381   1.394981   0.000000
     4  C    2.797798   2.412039   1.387518   0.000000
     5  C    2.430208   2.790767   2.411429   1.393725   0.000000
     6  C    1.396897   2.410262   2.783933   2.416289   1.402997
     7  Cl   2.728840   4.024821   4.536476   4.030503   2.736761
     8  H    4.452548   3.932756   2.637648   1.654751   2.640652
     9  Cl   4.049791   4.545353   4.023733   2.729276   1.754618
    10  Cl   2.733082   1.752933   2.727842   4.022108   4.543653
    11  H    3.944265   2.647498   1.658108   2.638358   3.933507
                    6          7          8          9         10
     6  C    0.000000
     7  Cl   1.752545   0.000000
     8  H    3.938552   5.369550   0.000000
     9  Cl   2.749784   3.172182   3.088320   0.000000
    10  Cl   4.028148   5.451898   5.355351   6.298191   0.000000
    11  H    4.442040   6.194584   3.038020   5.357028   3.093837
                   11
    11  H    0.000000
 Stoichiometry    C6H2Cl3(1-)
 Framework group  CS[SG(C6H2Cl3)]
 Deg. of freedom    19
 Full point group                 CS      NOp   2
 Largest Abelian subgroup         CS      NOp   2
 Largest concise Abelian subgroup C1      NOp   1
                         Standard orientation:                         
 ---------------------------------------------------------------------
 Center     Atomic      Atomic             Coordinates (Angstroms)
 Number     Number       Type             X           Y           Z
 ---------------------------------------------------------------------
      1          6           0        1.241927    0.209646    0.000000
      2          6           0        1.291476   -1.185927    0.000000
      3          6           0        0.113090   -1.932505    0.000000
      4          6           0       -1.118192   -1.292856    0.000000
      5          6           0       -1.185771    0.099230    0.000000
      6          6           0        0.000000    0.849129    0.000000
      7         17           0       -0.074239    2.600102    0.000000
      8          1           0       -2.512550   -2.183903    0.000000
      9         17           0       -2.749396    0.895321    0.000000
     10         17           0        2.839898   -2.007610    0.000000
     11          1           0        0.180892   -3.589226    0.000000
 ---------------------------------------------------------------------
 Rotational constants (GHZ):           1.8430770           0.5854722           0.4443271
 Standard basis: VSTO-6G (5D, 7F)
 There are    29 symmetry adapted cartesian basis functions of A'  symmetry.
 There are     9 symmetry adapted cartesian basis functions of A"  symmetry.
 There are    29 symmetry adapted basis functions of A'  symmetry.
 There are     9 symmetry adapted basis functions of A"  symmetry.
    38 basis functions,   228 primitive gaussians,    38 cartesian basis functions
    24 alpha electrons       24 beta electrons
       nuclear repulsion energy       240.1935195275 Hartrees.
 Integral buffers will be    131072 words long.
 Regular integral format.
 Two-electron integral symmetry is turned off.
 Do NDO integrals.
 One-electron integrals computed using PRISM.
 NBasis=    38 RedAO= T EigKep=  1.00D+00  NBF=    29     9
 NBsUse=    38 1.00D-06 EigRej= -1.00D+00 NBFU=    29     9
 Initial guess from the checkpoint file:  "geometry_chks/1_45ClBzAnionIntermediate.chk"
 B after Tr=     0.000000   -0.000000    0.000000
         Rot=    0.999766   -0.000000   -0.000000   -0.021636 Ang=  -2.48 deg.
 Initial guess orbital symmetries:
       Occupied  (A') (A') (A') (A') (A') (A') (A') (A') (A') (A')
                 (A') (A") (A') (A") (A") (A') (A') (A') (A") (A')
                 (A') (A") (A") (A')
       Virtual   (A') (A') (A") (A') (A") (A') (A') (A") (A') (A')
                 (A') (A') (A') (A')
 Keep J ints in memory in canonical form, NReq=863588.
 Overlap will be assumed to be unity.
 Requested convergence on RMS density matrix=1.00D-08 within**** cycles.
 Requested convergence on MAX density matrix=1.00D-06.
 Requested convergence on             energy=1.00D-06.
 No special actions if energy rises.
 Fock symm off for IB=2 I1=    1 I=   30 J=    8 Cut=1.00D-07 Err=1.02D-03
 Fock matrix is not symmetric: symmetry in diagonalization turned off.
 SCF Done:  E(RAM1) =  0.219832150252     A.U. after   14 cycles
            NFock= 13  Conv=0.34D-08     -V/T= 1.0019
 Calling FoFJK, ICntrl=      2127 FMM=F ISym2X=1 I1Cent= 0 IOpClX= 0 NMat=1 NMatS=1 NMatT=0.
 ***** Axes restored to original set *****
 -------------------------------------------------------------------
 Center     Atomic                   Forces (Hartrees/Bohr)
 Number     Number              X              Y              Z
 -------------------------------------------------------------------
      1        6           0.003275645   -0.003336474    0.000000000
      2        6           0.000857774   -0.001361022    0.000000000
      3        6           0.089959725    0.043777170    0.000000000
      4        6           0.091680028   -0.034377733    0.000000000
      5        6           0.006797237   -0.020313150    0.000000000
      6        6          -0.005133767    0.010420865   -0.000000000
      7       17           0.017253974    0.011423478   -0.000000000
      8        1          -0.108253888    0.057668797   -0.000000000
      9       17           0.003370997    0.018812288   -0.000000000
     10       17           0.001793110   -0.019628122   -0.000000000
     11        1          -0.101600836   -0.063086098   -0.000000000
 -------------------------------------------------------------------
 Cartesian Forces:  Max     0.108253888 RMS     0.039213323

 GradGradGradGradGradGradGradGradGradGradGradGradGradGradGradGradGradGrad
 Berny optimization.
 Using GEDIIS/GDIIS optimizer.
 FormGI is forming the generalized inverse of G from B-inverse, IUseBI=4.
 Internal  Forces:  Max     0.122654754 RMS     0.026342865
 Search for a local minimum.
 Step number   2 out of a maximum of   57
 All quantities printed in internal units (Hartrees-Bohrs-Radians)
 Mixed Optimization -- RFO/linear search
 Update second derivatives using D2CorX and points    1    2
 DE= -5.46D-02 DEPred=-5.12D-02 R= 1.07D+00
 TightC=F SS=  1.41D+00  RLast= 3.00D-01 DXNew= 5.0454D-01 9.0000D-01
 Trust test= 1.07D+00 RLast= 3.00D-01 DXMaxT set to 5.05D-01
 ITU=  1  0
 Use linear search instead of GDIIS.
 Linear search step of   0.600 exceeds DXMaxT=   0.505 but not scaled.
 Quartic linear search produced a step of  2.00000.
 Iteration  1 RMS(Cart)=  0.05981293 RMS(Int)=  0.04381402
 Iteration  2 RMS(Cart)=  0.03827929 RMS(Int)=  0.00285435
 Iteration  3 RMS(Cart)=  0.00268039 RMS(Int)=  0.00004793
 Iteration  4 RMS(Cart)=  0.00000007 RMS(Int)=  0.00004793
 ClnCor:  largest displacement from symmetrization is 8.88D-16 for atom     9.
 Variable       Old X    -DE/DX   Delta X   Delta X   Delta X     New X
                                 (Linear)    (Quad)   (Total)
    R1        2.63891  -0.01414  -0.03570   0.00000  -0.03570   2.60322
    R2        2.63975  -0.01466  -0.03403   0.00000  -0.03410   2.60566
    R3        2.63613  -0.01524  -0.04127   0.00000  -0.04120   2.59493
    R4        3.31256  -0.01966  -0.04755   0.00000  -0.04755   3.26501
    R5        2.62203  -0.02877  -0.06947   0.00000  -0.06941   2.55262
    R6        3.13337  -0.11959  -0.40593   0.00000  -0.40593   2.72744
    R7        2.63376  -0.01649  -0.04604   0.00000  -0.04604   2.58772
    R8        3.12703  -0.12265  -0.41861   0.00000  -0.41861   2.70841
    R9        2.65128  -0.00179  -0.01094   0.00000  -0.01101   2.64027
   R10        3.31575  -0.01868  -0.04115   0.00000  -0.04115   3.27460
   R11        3.31183  -0.02068  -0.04900   0.00000  -0.04900   3.26283
    A1        2.08179  -0.00881  -0.02521   0.00000  -0.02530   2.05650
    A2        2.10004   0.00437   0.01129   0.00000   0.01137   2.11141
    A3        2.09416   0.00015  -0.00048   0.00000  -0.00052   2.09364
    A4        2.08899  -0.00452  -0.01081   0.00000  -0.01085   2.07814
    A5        2.09774   0.00249   0.00668   0.00000   0.00682   2.10456
    A6        2.09463   0.00012   0.00046   0.00000   0.00039   2.09502
    A7        2.09082  -0.00261  -0.00714   0.00000  -0.00721   2.08361
    A8        2.09843   0.00362   0.00808   0.00000   0.00815   2.10657
    A9        2.09384  -0.00081  -0.00112   0.00000  -0.00116   2.09268
   A10        2.09092  -0.00280  -0.00695   0.00000  -0.00699   2.08393
   A11        2.08620  -0.00688  -0.01638   0.00000  -0.01645   2.06975
   A12        2.09023  -0.00329  -0.00832   0.00000  -0.00828   2.08195
   A13        2.10675   0.01016   0.02470   0.00000   0.02473   2.13149
   A14        2.10217   0.00521   0.01555   0.00000   0.01541   2.11759
   A15        2.08868  -0.00380  -0.01144   0.00000  -0.01137   2.07731
   A16        2.09234  -0.00141  -0.00411   0.00000  -0.00404   2.08829
    D1        0.00000  -0.00000   0.00000   0.00000   0.00000   0.00000
    D2        3.14159  -0.00000   0.00000   0.00000   0.00000   3.14159
    D3        0.00000   0.00000   0.00000   0.00000   0.00000   0.00000
    D4        3.14159   0.00000   0.00000   0.00000   0.00000   3.14159
    D5        0.00000  -0.00000   0.00000   0.00000   0.00000   0.00000
    D6        3.14159  -0.00000   0.00000   0.00000   0.00000   3.14159
    D7        3.14159   0.00000   0.00000   0.00000   0.00000   3.14159
    D8        0.00000  -0.00000   0.00000   0.00000   0.00000   0.00000
    D9        0.00000   0.00000   0.00000   0.00000   0.00000   0.00000
   D10        3.14159  -0.00000   0.00000   0.00000   0.00000   3.14159
   D11        3.14159   0.00000   0.00000   0.00000   0.00000   3.14159
   D12        0.00000   0.00000   0.00000   0.00000   0.00000   0.00000
   D13        0.00000   0.00000   0.00000   0.00000   0.00000   0.00000
   D14        3.14159  -0.00000   0.00000   0.00000   0.00000   3.14159
   D15        3.14159   0.00000   0.00000   0.00000   0.00000   3.14159
   D16        0.00000  -0.00000   0.00000   0.00000   0.00000   0.00000
   D17        0.00000  -0.00000   0.00000   0.00000   0.00000   0.00000
   D18        3.14159  -0.00000   0.00000   0.00000   0.00000   3.14159
   D19        3.14159   0.00000   0.00000   0.00000   0.00000   3.14159
   D20        0.00000   0.00000   0.00000   0.00000   0.00000   0.00000
         Item               Value     Threshold  Converged?
 Maximum Force            0.122655     0.000450     NO 
 RMS     Force            0.026343     0.000300     NO 
 Maximum Displacement     0.347765     0.001800     NO 
 RMS     Displacement     0.097160     0.001200     NO 
 Predicted change in Energy=-1.061624D-01
 GradGradGradGradGradGradGradGradGradGradGradGradGradGradGradGradGradGrad

                          Input orientation:                          
 ---------------------------------------------------------------------
 Center     Atomic      Atomic             Coordinates (Angstroms)
 Number     Number       Type             X           Y           Z
 ---------------------------------------------------------------------
      1          6           0       -3.157643    0.201422    0.000000
      2          6           0       -1.966730    0.893814    0.000000
      3          6           0       -0.764001    0.231193    0.000000
      4          6           0       -0.723209   -1.118981    0.000000
      5          6           0       -1.879036   -1.853292    0.000000
      6          6           0       -3.101223   -1.176277    0.000000
      7         17           0       -4.575509   -2.074983    0.000000
      8          1           0        0.540243   -1.795619    0.000000
      9         17           0       -1.784074   -3.583529    0.000000
     10         17           0       -1.973271    2.621571    0.000000
     11          1           0        0.471684    0.976980    0.000000
 ---------------------------------------------------------------------
                    Distance matrix (angstroms):
                    1          2          3          4          5
     1  C    0.000000
     2  C    1.377563   0.000000
     3  C    2.393827   1.373180   0.000000
     4  C    2.769463   2.365943   1.350790   0.000000
     5  C    2.420058   2.748506   2.363976   1.369361   0.000000
     6  C    1.378854   2.360583   2.728293   2.378704   1.397172
     7  Cl   2.681858   3.952150   4.454890   3.969150   2.705571
     8  H    4.202681   3.676678   2.410191   1.433231   2.419966
     9  Cl   4.026480   4.481068   3.948754   2.683176   1.732841
    10  Cl   2.694412   1.727769   2.678850   3.943904   4.475855
    11  H    3.711267   2.439831   1.443299   2.412638   3.679175
                    6          7          8          9         10
     6  C    0.000000
     7  Cl   1.726613   0.000000
     8  H    3.693759   5.123374   0.000000
     9  Cl   2.744038   3.172983   2.932417   0.000000
    10  Cl   3.961808   5.369289   5.082255   6.207984   0.000000
    11  H    4.171592   5.898189   2.773447   5.087896   2.946605
                   11
    11  H    0.000000
 Stoichiometry    C6H2Cl3(1-)
 Framework group  CS[SG(C6H2Cl3)]
 Deg. of freedom    19
 Full point group                 CS      NOp   2
 Largest Abelian subgroup         CS      NOp   2
 Largest concise Abelian subgroup C1      NOp   1
                         Standard orientation:                         
 ---------------------------------------------------------------------
 Center     Atomic      Atomic             Coordinates (Angstroms)
 Number     Number       Type             X           Y           Z
 ---------------------------------------------------------------------
      1          6           0        1.240678    0.237531    0.000000
      2          6           0        1.287768   -1.139227    0.000000
      3          6           0        0.135256   -1.885780    0.000000
      4          6           0       -1.073779   -1.283395    0.000000
      5          6           0       -1.174394    0.082265    0.000000
      6          6           0        0.000000    0.839158    0.000000
      7         17           0       -0.094917    2.563160    0.000000
      8          1           0       -2.267350   -2.076828    0.000000
      9         17           0       -2.743945    0.816600    0.000000
     10         17           0        2.813329   -1.950305    0.000000
     11          1           0        0.208229   -3.327233    0.000000
 ---------------------------------------------------------------------
 Rotational constants (GHZ):           1.8861100           0.6051383           0.4581468
 Standard basis: VSTO-6G (5D, 7F)
 There are    29 symmetry adapted cartesian basis functions of A'  symmetry.
 There are     9 symmetry adapted cartesian basis functions of A"  symmetry.
 There are    29 symmetry adapted basis functions of A'  symmetry.
 There are     9 symmetry adapted basis functions of A"  symmetry.
    38 basis functions,   228 primitive gaussians,    38 cartesian basis functions
    24 alpha electrons       24 beta electrons
       nuclear repulsion energy       242.9829036211 Hartrees.
 Integral buffers will be    131072 words long.
 Regular integral format.
 Two-electron integral symmetry is turned off.
 Do NDO integrals.
 One-electron integrals computed using PRISM.
 NBasis=    38 RedAO= T EigKep=  1.00D+00  NBF=    29     9
 NBsUse=    38 1.00D-06 EigRej= -1.00D+00 NBFU=    29     9
 Initial guess from the checkpoint file:  "geometry_chks/1_45ClBzAnionIntermediate.chk"
 B after Tr=     0.000000   -0.000000    0.000000
         Rot=    0.999974   -0.000000   -0.000000   -0.007218 Ang=  -0.83 deg.
 Initial guess orbital symmetries:
       Occupied  (A') (A') (A') (A') (A') (A') (A') (A') (A') (A')
                 (A') (A") (A') (A") (A") (A') (A') (A') (A") (A')
                 (A') (A") (A") (A')
       Virtual   (A') (A") (A') (A') (A") (A') (A') (A") (A') (A')
                 (A') (A') (A') (A')
 Keep J ints in memory in canonical form, NReq=863588.
 Overlap will be assumed to be unity.
 Requested convergence on RMS density matrix=1.00D-08 within**** cycles.
 Requested convergence on MAX density matrix=1.00D-06.
 Requested convergence on             energy=1.00D-06.
 No special actions if energy rises.
 Fock symm off for IB=2 I1=    1 I=   30 J=    6 Cut=1.00D-07 Err=2.55D-03
 Fock matrix is not symmetric: symmetry in diagonalization turned off.
 SCF Done:  E(RAM1) =  0.119954189367     A.U. after   14 cycles
            NFock= 13  Conv=0.34D-08     -V/T= 1.0011
 Calling FoFJK, ICntrl=      2127 FMM=F ISym2X=1 I1Cent= 0 IOpClX= 0 NMat=1 NMatS=1 NMatT=0.
 ***** Axes restored to original set *****
 -------------------------------------------------------------------
 Center     Atomic                   Forces (Hartrees/Bohr)
 Number     Number              X              Y              Z
 -------------------------------------------------------------------
      1        6          -0.013127762    0.003410392    0.000000000
      2        6          -0.009420072    0.021695421   -0.000000000
      3        6           0.117751045    0.082688610    0.000000000
      4        6           0.123588848   -0.070473876    0.000000000
      5        6          -0.014522324   -0.032731217   -0.000000000
      6        6          -0.014536047   -0.005794932    0.000000000
      7       17           0.003169345    0.001647066   -0.000000000
      8        1          -0.099234993    0.052842859   -0.000000000
      9       17           0.000929833    0.007009470    0.000000000
     10       17           0.000720408   -0.002055604   -0.000000000
     11        1          -0.095318282   -0.058238189   -0.000000000
 -------------------------------------------------------------------
 Cartesian Forces:  Max     0.123588848 RMS     0.045526783

 GradGradGradGradGradGradGradGradGradGradGradGradGradGradGradGradGradGrad
 Berny optimization.
 Using GEDIIS/GDIIS optimizer.
 FormGI is forming the generalized inverse of G from B-inverse, IUseBI=4.
 Internal  Forces:  Max     0.112427224 RMS     0.024618012
 Search for a local minimum.
 Step number   3 out of a maximum of   57
 All quantities printed in internal units (Hartrees-Bohrs-Radians)
 Mixed Optimization -- RFO/linear search
 Update second derivatives using D2CorX and points    2    3
 ITU=  0  1  0
 Use linear search instead of GDIIS.
 Linear search step of   0.778 exceeds DXMaxT=   0.505 but not scaled.
 Quartic linear search produced a step of  1.29607.
 Iteration  1 RMS(Cart)=  0.06788762 RMS(Int)=  0.06899778
 Iteration  2 RMS(Cart)=  0.03824498 RMS(Int)=  0.02777149
 Iteration  3 RMS(Cart)=  0.02577987 RMS(Int)=  0.00010008
 Iteration  4 RMS(Cart)=  0.00000633 RMS(Int)=  0.00009995
 Iteration  5 RMS(Cart)=  0.00000000 RMS(Int)=  0.00009995
 ClnCor:  largest displacement from symmetrization is 8.88D-16 for atom     7.
 Variable       Old X    -DE/DX   Delta X   Delta X   Delta X     New X
                                 (Linear)    (Quad)   (Total)
    R1        2.60322   0.01695  -0.04626   0.00000  -0.04625   2.55697
    R2        2.60566   0.01434  -0.04419   0.00000  -0.04434   2.56132
    R3        2.59493   0.02341  -0.05339   0.00000  -0.05324   2.54169
    R4        3.26501  -0.00206  -0.06163   0.00000  -0.06163   3.20338
    R5        2.55262   0.03312  -0.08995   0.00000  -0.08981   2.46281
    R6        2.72744  -0.11170  -0.52611   0.00000  -0.52611   2.20133
    R7        2.58772   0.02929  -0.05967   0.00000  -0.05968   2.52804
    R8        2.70841  -0.11243  -0.54255   0.00000  -0.54255   2.16586
    R9        2.64027   0.01479  -0.01427   0.00000  -0.01442   2.62585
   R10        3.27460  -0.00695  -0.05334   0.00000  -0.05334   3.22126
   R11        3.26283  -0.00356  -0.06351   0.00000  -0.06351   3.19931
    A1        2.05650   0.00528  -0.03279   0.00000  -0.03297   2.02352
    A2        2.11141  -0.00057   0.01473   0.00000   0.01490   2.12630
    A3        2.09364   0.00145  -0.00067   0.00000  -0.00075   2.09288
    A4        2.07814  -0.00088  -0.01406   0.00000  -0.01414   2.06400
    A5        2.10456  -0.00438   0.00884   0.00000   0.00913   2.11369
    A6        2.09502   0.00302   0.00051   0.00000   0.00036   2.09537
    A7        2.08361   0.00136  -0.00935   0.00000  -0.00949   2.07412
    A8        2.10657  -0.00105   0.01056   0.00000   0.01070   2.11728
    A9        2.09268   0.00088  -0.00150   0.00000  -0.00158   2.09110
   A10        2.08393   0.00016  -0.00906   0.00000  -0.00913   2.07480
   A11        2.06975  -0.00185  -0.02132   0.00000  -0.02146   2.04829
   A12        2.08195  -0.00123  -0.01073   0.00000  -0.01066   2.07128
   A13        2.13149   0.00307   0.03206   0.00000   0.03213   2.16361
   A14        2.11759   0.00257   0.01998   0.00000   0.01970   2.13729
   A15        2.07731  -0.00089  -0.01474   0.00000  -0.01460   2.06271
   A16        2.08829  -0.00168  -0.00524   0.00000  -0.00510   2.08319
    D1        0.00000  -0.00000   0.00000   0.00000   0.00000   0.00000
    D2        3.14159  -0.00000   0.00000   0.00000   0.00000   3.14159
    D3        0.00000   0.00000   0.00000   0.00000   0.00000   0.00000
    D4        3.14159   0.00000   0.00000   0.00000   0.00000   3.14159
    D5        0.00000   0.00000   0.00000   0.00000   0.00000   0.00000
    D6        3.14159  -0.00000   0.00000   0.00000   0.00000   3.14159
    D7        3.14159   0.00000   0.00000   0.00000   0.00000   3.14159
    D8        0.00000   0.00000   0.00000   0.00000   0.00000   0.00000
    D9        0.00000   0.00000   0.00000   0.00000   0.00000   0.00000
   D10        3.14159  -0.00000   0.00000   0.00000   0.00000   3.14159
   D11        3.14159   0.00000   0.00000   0.00000   0.00000   3.14159
   D12        0.00000   0.00000   0.00000   0.00000   0.00000   0.00000
   D13        0.00000  -0.00000   0.00000   0.00000   0.00000   0.00000
   D14        3.14159  -0.00000   0.00000   0.00000   0.00000   3.14159
   D15        3.14159   0.00000   0.00000   0.00000   0.00000   3.14159
   D16        0.00000   0.00000   0.00000   0.00000   0.00000   0.00000
   D17        0.00000   0.00000   0.00000   0.00000   0.00000   0.00000
   D18        3.14159  -0.00000   0.00000   0.00000   0.00000   3.14159
   D19        3.14159   0.00000   0.00000   0.00000   0.00000   3.14159
   D20        0.00000  -0.00000   0.00000   0.00000   0.00000   0.00000
         Item               Value     Threshold  Converged?
 Maximum Force            0.112427     0.000450     NO 
 RMS     Force            0.024618     0.000300     NO 
 Maximum Displacement     0.451859     0.001800     NO 
 RMS     Displacement     0.125819     0.001200     NO 
 Predicted change in Energy=-9.535731D-02
 GradGradGradGradGradGradGradGradGradGradGradGradGradGradGradGradGradGrad

                          Input orientation:                          
 ---------------------------------------------------------------------
 Center     Atomic      Atomic             Coordinates (Angstroms)
 Number     Number       Type             X           Y           Z
 ---------------------------------------------------------------------
      1          6           0       -3.111728    0.202860    0.000000
      2          6           0       -1.927545    0.857508    0.000000
      3          6           0       -0.753881    0.200582    0.000000
      4          6           0       -0.711379   -1.101989    0.000000
      5          6           0       -1.831044   -1.834117    0.000000
      6          6           0       -3.040893   -1.150679    0.000000
      7         17           0       -4.489331   -2.027199    0.000000
      8          1           0        0.301129   -1.639047    0.000000
      9         17           0       -1.697181   -3.533470    0.000000
     10         17           0       -1.898599    2.552415    0.000000
     11          1           0        0.247680    0.795437    0.000000
 ---------------------------------------------------------------------
                    Distance matrix (angstroms):
                    1          2          3          4          5
     1  C    0.000000
     2  C    1.353090   0.000000
     3  C    2.357848   1.345005   0.000000
     4  C    2.732088   2.306229   1.303265   0.000000
     5  C    2.406123   2.693355   2.302234   1.337782   0.000000
     6  C    1.355391   2.296162   2.656375   2.330022   1.389540
     7  Cl   2.621251   3.858015   4.349321   3.889593   2.665290
     8  H    3.878171   3.346606   2.120679   1.146125   2.141078
     9  Cl   3.995136   4.397017   3.851359   2.623720   1.704617
    10  Cl   2.644256   1.695154   2.615626   3.842416   4.387052
    11  H    3.411271   2.176111   1.164894   2.126034   3.351962
                    6          7          8          9         10
     6  C    0.000000
     7  Cl   1.693003   0.000000
     8  H    3.377516   4.806159   0.000000
     9  Cl   2.735554   3.172531   2.753558   0.000000
    10  Cl   3.875273   5.261631   4.733620   6.089218   0.000000
    11  H    3.821267   5.514213   2.435070   4.745727   2.773714
                   11
    11  H    0.000000
 Stoichiometry    C6H2Cl3(1-)
 Framework group  CS[SG(C6H2Cl3)]
 Deg. of freedom    19
 Full point group                 CS      NOp   2
 Largest Abelian subgroup         CS      NOp   2
 Largest concise Abelian subgroup C1      NOp   1
                         Standard orientation:                         
 ---------------------------------------------------------------------
 Center     Atomic      Atomic             Coordinates (Angstroms)
 Number     Number       Type             X           Y           Z
 ---------------------------------------------------------------------
      1          6           0        1.237458    0.273330    0.000000
      2          6           0        1.281403   -1.079046    0.000000
      3          6           0        0.162282   -1.825108    0.000000
      4          6           0       -1.016899   -1.270101    0.000000
      5          6           0       -1.159197    0.060091    0.000000
      6          6           0        0.000000    0.826305    0.000000
      7         17           0       -0.121231    2.514963    0.000000
      8          1           0       -1.955937   -1.927223    0.000000
      9         17           0       -2.733262    0.714339    0.000000
     10         17           0        2.777408   -1.876239    0.000000
     11          1           0        0.236103   -2.987660    0.000000
 ---------------------------------------------------------------------
 Rotational constants (GHZ):           1.9423971           0.6323301           0.4770355
 Standard basis: VSTO-6G (5D, 7F)
 There are    29 symmetry adapted cartesian basis functions of A'  symmetry.
 There are     9 symmetry adapted cartesian basis functions of A"  symmetry.
 There are    29 symmetry adapted basis functions of A'  symmetry.
 There are     9 symmetry adapted basis functions of A"  symmetry.
    38 basis functions,   228 primitive gaussians,    38 cartesian basis functions
    24 alpha electrons       24 beta electrons
       nuclear repulsion energy       246.8996285899 Hartrees.
 Integral buffers will be    131072 words long.
 Regular integral format.
 Two-electron integral symmetry is turned off.
 Do NDO integrals.
 One-electron integrals computed using PRISM.
 NBasis=    38 RedAO= T EigKep=  1.00D+00  NBF=    29     9
 NBsUse=    38 1.00D-06 EigRej= -1.00D+00 NBFU=    29     9
 Initial guess from the checkpoint file:  "geometry_chks/1_45ClBzAnionIntermediate.chk"
 B after Tr=     0.000000    0.000000    0.000000
         Rot=    0.999955   -0.000000   -0.000000   -0.009512 Ang=  -1.09 deg.
 Initial guess orbital symmetries:
       Occupied  (A') (A') (A') (A') (A') (A') (A') (A') (A') (A')
                 (A') (A") (A') (A") (A') (A") (A') (A') (A") (A')
                 (A') (A") (A") (A')
       Virtual   (A") (A') (A") (A') (A') (A') (A') (A") (A') (A')
                 (A') (A') (A') (A')
 Keep J ints in memory in canonical form, NReq=863588.
 Overlap will be assumed to be unity.
 Requested convergence on RMS density matrix=1.00D-08 within**** cycles.
 Requested convergence on MAX density matrix=1.00D-06.
 Requested convergence on             energy=1.00D-06.
 No special actions if energy rises.
 Fock symm off for IB=2 I1=    1 I=   30 J=    1 Cut=1.00D-07 Err=7.36D-03
 Fock matrix is not symmetric: symmetry in diagonalization turned off.
 SCF Done:  E(RAM1) =  0.554639032937E-01 A.U. after   13 cycles
            NFock= 12  Conv=0.83D-08     -V/T= 1.0005
 Calling FoFJK, ICntrl=      2127 FMM=F ISym2X=1 I1Cent= 0 IOpClX= 0 NMat=1 NMatS=1 NMatT=0.
 ***** Axes restored to original set *****
 -------------------------------------------------------------------
 Center     Atomic                   Forces (Hartrees/Bohr)
 Number     Number              X              Y              Z
 -------------------------------------------------------------------
      1        6          -0.038570582    0.014844611    0.000000000
      2        6          -0.029575676    0.056755845    0.000000000
      3        6           0.104445687    0.119333177    0.000000000
      4        6           0.110242082   -0.102042538    0.000000000
      5        6          -0.052626172   -0.054443762    0.000000000
      6        6          -0.027511024   -0.029965901    0.000000000
      7       17          -0.017624037   -0.012661025   -0.000000000
      8        1          -0.019004833    0.010668546   -0.000000000
      9       17          -0.002275053   -0.011065107   -0.000000000
     10       17          -0.000389901    0.024223417   -0.000000000
     11        1          -0.027110491   -0.015647262   -0.000000000
 -------------------------------------------------------------------
 Cartesian Forces:  Max     0.119333177 RMS     0.043882770

 GradGradGradGradGradGradGradGradGradGradGradGradGradGradGradGradGradGrad
 Berny optimization.
 Using GEDIIS/GDIIS optimizer.
 FormGI is forming the generalized inverse of G from B-inverse, IUseBI=4.
 Internal  Forces:  Max     0.140771374 RMS     0.032966083
 Search for a local minimum.
 Step number   4 out of a maximum of   57
 All quantities printed in internal units (Hartrees-Bohrs-Radians)
 Mixed Optimization -- RFO/linear search
 Update second derivatives using D2CorX and points    3    4
 ITU=  0  0  1  0
 Use linear search instead of GDIIS.
     Eigenvalues ---    0.02011   0.02011   0.02011   0.02011   0.02011
     Eigenvalues ---    0.02011   0.02011   0.02011   0.06507   0.11557
     Eigenvalues ---    0.16000   0.16000   0.22441   0.24458   0.24944
     Eigenvalues ---    0.25000   0.25000   0.25027   0.28472   0.29033
     Eigenvalues ---    0.29056   0.40846   0.41637   0.44633   0.44656
     Eigenvalues ---    0.44657   0.61268
 RFO step:  Lambda=-9.68546297D-02 EMin= 2.01065854D-02
 Quartic linear search produced a step of -0.03440.
 Maximum step size (   0.505) exceeded in Quadratic search.
    -- Step size scaled by   0.974
 Iteration  1 RMS(Cart)=  0.06967260 RMS(Int)=  0.00866692
 Iteration  2 RMS(Cart)=  0.00719916 RMS(Int)=  0.00038000
 Iteration  3 RMS(Cart)=  0.00000630 RMS(Int)=  0.00037997
 Iteration  4 RMS(Cart)=  0.00000000 RMS(Int)=  0.00037997
 ClnCor:  largest displacement from symmetrization is 1.75D-12 for atom     8.
 Variable       Old X    -DE/DX   Delta X   Delta X   Delta X     New X
                                 (Linear)    (Quad)   (Total)
    R1        2.55697   0.06262   0.00159   0.09917   0.10073   2.65770
    R2        2.56132   0.05812   0.00153   0.08881   0.08978   2.65110
    R3        2.54169   0.08560   0.00183   0.13937   0.14171   2.68341
    R4        3.20338   0.02421   0.00212   0.05358   0.05570   3.25908
    R5        2.46281   0.14077   0.00309   0.22759   0.23123   2.69404
    R6        2.20133  -0.03130   0.01810  -0.26818  -0.25008   1.95125
    R7        2.52804   0.10347   0.00205   0.16709   0.16918   2.69722
    R8        2.16586  -0.02179   0.01866  -0.22296  -0.20430   1.96157
    R9        2.62585   0.03956   0.00050   0.06086   0.06084   2.68669
   R10        3.22126   0.01085   0.00183   0.02349   0.02532   3.24658
   R11        3.19931   0.02163   0.00218   0.04783   0.05001   3.24933
    A1        2.02352   0.02915   0.00113   0.05806   0.05835   2.08187
    A2        2.12630  -0.00776  -0.00051  -0.01605  -0.01603   2.11027
    A3        2.09288   0.00260   0.00003   0.00518   0.00494   2.09783
    A4        2.06400   0.00517   0.00049   0.01087   0.01109   2.07509
    A5        2.11369  -0.01793  -0.00031  -0.03319  -0.03236   2.08133
    A6        2.09537   0.00853  -0.00001   0.01556   0.01498   2.11035
    A7        2.07412   0.00939   0.00033   0.01763   0.01738   2.09150
    A8        2.11728  -0.01097  -0.00037  -0.01598  -0.01569   2.10158
    A9        2.09110   0.00492   0.00005   0.00628   0.00601   2.09711
   A10        2.07480   0.00605   0.00031   0.00970   0.00968   2.08449
   A11        2.04829   0.00643   0.00074   0.01528   0.01557   2.06386
   A12        2.07128   0.00184   0.00037   0.00444   0.00503   2.07632
   A13        2.16361  -0.00827  -0.00111  -0.01972  -0.02060   2.14301
   A14        2.13729   0.00109  -0.00068  -0.00812  -0.00984   2.12745
   A15        2.06271   0.00219   0.00050   0.01084   0.01186   2.07457
   A16        2.08319  -0.00328   0.00018  -0.00272  -0.00203   2.08116
    D1        0.00000   0.00000   0.00000   0.00000   0.00000   0.00000
    D2        3.14159  -0.00000   0.00000  -0.00000   0.00000   3.14159
    D3        0.00000   0.00000   0.00000   0.00000   0.00000   0.00000
    D4        3.14159   0.00000   0.00000   0.00000   0.00000   3.14159
    D5        0.00000  -0.00000   0.00000  -0.00000   0.00000   0.00000
    D6        3.14159  -0.00000   0.00000  -0.00000   0.00000   3.14159
    D7        3.14159   0.00000   0.00000   0.00000   0.00000   3.14159
    D8        0.00000   0.00000   0.00000   0.00000   0.00000   0.00000
    D9        0.00000   0.00000   0.00000   0.00000   0.00000   0.00000
   D10        3.14159  -0.00000   0.00000  -0.00000   0.00000   3.14159
   D11        3.14159   0.00000   0.00000   0.00000   0.00000   3.14159
   D12        0.00000  -0.00000   0.00000  -0.00000   0.00000   0.00000
   D13        0.00000   0.00000   0.00000   0.00000   0.00000   0.00000
   D14        3.14159  -0.00000   0.00000  -0.00000   0.00000   3.14159
   D15        3.14159   0.00000   0.00000   0.00000   0.00000   3.14159
   D16        0.00000   0.00000   0.00000   0.00000   0.00000   0.00000
   D17        0.00000  -0.00000   0.00000  -0.00000   0.00000   0.00000
   D18        3.14159  -0.00000   0.00000  -0.00000   0.00000   3.14159
   D19        3.14159   0.00000   0.00000   0.00000   0.00000   3.14159
   D20        0.00000  -0.00000   0.00000  -0.00000   0.00000   0.00000
         Item               Value     Threshold  Converged?
 Maximum Force            0.140771     0.000450     NO 
 RMS     Force            0.032966     0.000300     NO 
 Maximum Displacement     0.211277     0.001800     NO 
 RMS     Displacement     0.072658     0.001200     NO 
 Predicted change in Energy=-6.001988D-02
 GradGradGradGradGradGradGradGradGradGradGradGradGradGradGradGradGradGrad

                          Input orientation:                          
 ---------------------------------------------------------------------
 Center     Atomic      Atomic             Coordinates (Angstroms)
 Number     Number       Type             X           Y           Z
 ---------------------------------------------------------------------
      1          6           0       -3.112657    0.211292    0.000000
      2          6           0       -1.909684    0.939852    0.000000
      3          6           0       -0.654621    0.275617    0.000000
      4          6           0       -0.620742   -1.149608    0.000000
      5          6           0       -1.834148   -1.901178    0.000000
      6          6           0       -3.065703   -1.190824    0.000000
      7         17           0       -4.542933   -2.070805    0.000000
      8          1           0        0.288931   -1.649581    0.000000
      9         17           0       -1.749942   -3.617129    0.000000
     10         17           0       -1.939900    2.664218    0.000000
     11          1           0        0.228629    0.810448    0.000000
 ---------------------------------------------------------------------
                    Distance matrix (angstroms):
                    1          2          3          4          5
     1  C    0.000000
     2  C    1.406394   0.000000
     3  C    2.458877   1.419997   0.000000
     4  C    2.839311   2.455039   1.425627   0.000000
     5  C    2.469233   2.842034   2.475827   1.427310   0.000000
     6  C    1.402902   2.424080   2.822014   2.445309   1.421735
     7  Cl   2.693262   3.999757   4.541439   4.028919   2.714091
     8  H    3.877324   3.396921   2.143986   1.038016   2.137935
     9  Cl   4.063718   4.559780   4.043909   2.713624   1.718016
    10  Cl   2.718861   1.724631   2.712445   4.035523   4.566621
    11  H    3.394580   2.142225   1.032557   2.136176   3.407046
                    6          7          8          9         10
     6  C    0.000000
     7  Cl   1.719469   0.000000
     8  H    3.385857   4.850189   0.000000
     9  Cl   2.760106   3.192478   2.833417   0.000000
    10  Cl   4.016066   5.403353   4.855569   6.284219   0.000000
    11  H    3.854570   5.573995   2.460768   4.849555   2.852890
                   11
    11  H    0.000000
 Stoichiometry    C6H2Cl3(1-)
 Framework group  CS[SG(C6H2Cl3)]
 Deg. of freedom    19
 Full point group                 CS      NOp   2
 Largest Abelian subgroup         CS      NOp   2
 Largest concise Abelian subgroup C1      NOp   1
                         Standard orientation:                         
 ---------------------------------------------------------------------
 Center     Atomic      Atomic             Coordinates (Angstroms)
 Number     Number       Type             X           Y           Z
 ---------------------------------------------------------------------
      1          6           0        1.248018    0.210757    0.000000
      2          6           0        1.299680   -1.194687    0.000000
      3          6           0        0.108972   -1.968383    0.000000
      4          6           0       -1.152881   -1.304952    0.000000
      5          6           0       -1.219576    0.120799    0.000000
      6          6           0        0.000000    0.851527    0.000000
      7         17           0       -0.050615    2.570251    0.000000
      8          1           0       -2.032104   -1.856716    0.000000
      9         17           0       -2.759942    0.881624    0.000000
     10         17           0        2.821145   -2.006781    0.000000
     11          1           0        0.146821   -3.000246    0.000000
 ---------------------------------------------------------------------
 Rotational constants (GHZ):           1.8626691           0.5908609           0.4485693
 Standard basis: VSTO-6G (5D, 7F)
 There are    29 symmetry adapted cartesian basis functions of A'  symmetry.
 There are     9 symmetry adapted cartesian basis functions of A"  symmetry.
 There are    29 symmetry adapted basis functions of A'  symmetry.
 There are     9 symmetry adapted basis functions of A"  symmetry.
    38 basis functions,   228 primitive gaussians,    38 cartesian basis functions
    24 alpha electrons       24 beta electrons
       nuclear repulsion energy       242.3610871938 Hartrees.
 Integral buffers will be    131072 words long.
 Regular integral format.
 Two-electron integral symmetry is turned off.
 Do NDO integrals.
 One-electron integrals computed using PRISM.
 NBasis=    38 RedAO= T EigKep=  1.00D+00  NBF=    29     9
 NBsUse=    38 1.00D-06 EigRej= -1.00D+00 NBFU=    29     9
 Initial guess from the checkpoint file:  "geometry_chks/1_45ClBzAnionIntermediate.chk"
 B after Tr=     0.000000    0.000000    0.000000
         Rot=    0.999844    0.000000    0.000000    0.017635 Ang=   2.02 deg.
 Initial guess orbital symmetries:
       Occupied  (A') (A') (A') (A') (A') (A') (A') (A') (A') (A')
                 (A') (A") (A') (A') (A") (A') (A") (A') (A") (A')
                 (A') (A") (A") (A')
       Virtual   (A") (A') (A") (A') (A') (A') (A") (A') (A') (A')
                 (A') (A') (A') (A')
 Keep J ints in memory in canonical form, NReq=863588.
 Overlap will be assumed to be unity.
 Requested convergence on RMS density matrix=1.00D-08 within**** cycles.
 Requested convergence on MAX density matrix=1.00D-06.
 Requested convergence on             energy=1.00D-06.
 No special actions if energy rises.
 Fock symm off for IB=2 I1=    1 I=   30 J=   22 Cut=1.00D-07 Err=7.82D-04
 Fock matrix is not symmetric: symmetry in diagonalization turned off.
 SCF Done:  E(RAM1) =  0.343897346389E-01 A.U. after   14 cycles
            NFock= 13  Conv=0.87D-08     -V/T= 1.0003
 Calling FoFJK, ICntrl=      2127 FMM=F ISym2X=1 I1Cent= 0 IOpClX= 0 NMat=1 NMatS=1 NMatT=0.
 ***** Axes restored to original set *****
 -------------------------------------------------------------------
 Center     Atomic                   Forces (Hartrees/Bohr)
 Number     Number              X              Y              Z
 -------------------------------------------------------------------
      1        6           0.014890666   -0.004966451    0.000000000
      2        6           0.000763917   -0.036540141    0.000000000
      3        6          -0.063846648   -0.040501691    0.000000000
      4        6          -0.064175418    0.032744281    0.000000000
      5        6           0.001519775    0.035002607    0.000000000
      6        6           0.023581471    0.009827216   -0.000000000
      7       17           0.002423356    0.001575702   -0.000000000
      8        1           0.039448746   -0.020181111   -0.000000000
      9       17           0.000836630    0.004814786   -0.000000000
     10       17           0.000547657   -0.006100973   -0.000000000
     11        1           0.044009848    0.024325775   -0.000000000
 -------------------------------------------------------------------
 Cartesian Forces:  Max     0.064175418 RMS     0.023951731

 GradGradGradGradGradGradGradGradGradGradGradGradGradGradGradGradGradGrad
 Berny optimization.
 Using GEDIIS/GDIIS optimizer.
 FormGI is forming the generalized inverse of G from B-inverse, IUseBI=4.
 Internal  Forces:  Max     0.050245998 RMS     0.014861837
 Search for a local minimum.
 Step number   5 out of a maximum of   57
 All quantities printed in internal units (Hartrees-Bohrs-Radians)
 Mixed Optimization -- RFO/linear search
 Update second derivatives using D2CorX and points    4    5
 DE= -2.11D-02 DEPred=-6.00D-02 R= 3.51D-01
 Trust test= 3.51D-01 RLast= 4.91D-01 DXMaxT set to 5.05D-01
 ITU=  0  0  0  1  0
 Use linear search instead of GDIIS.
     Eigenvalues ---    0.02011   0.02011   0.02011   0.02011   0.02011
     Eigenvalues ---    0.02011   0.02011   0.02011   0.06549   0.15996
     Eigenvalues ---    0.16000   0.19465   0.22473   0.24424   0.24977
     Eigenvalues ---    0.24999   0.25001   0.25156   0.28632   0.29026
     Eigenvalues ---    0.29060   0.41059   0.41576   0.44584   0.44656
     Eigenvalues ---    0.44673   0.74644
 RFO step:  Lambda=-9.01237947D-03 EMin= 2.01065839D-02
 Quartic linear search produced a step of -0.35778.
 Iteration  1 RMS(Cart)=  0.03703969 RMS(Int)=  0.00463783
 Iteration  2 RMS(Cart)=  0.00438842 RMS(Int)=  0.00013242
 Iteration  3 RMS(Cart)=  0.00000036 RMS(Int)=  0.00013242
 ClnCor:  largest displacement from symmetrization is 1.95D-11 for atom    10.
 Variable       Old X    -DE/DX   Delta X   Delta X   Delta X     New X
                                 (Linear)    (Quad)   (Total)
    R1        2.65770  -0.02766  -0.03604   0.00952  -0.02651   2.63119
    R2        2.65110  -0.02759  -0.03212   0.00426  -0.02766   2.62344
    R3        2.68341  -0.02686  -0.05070   0.02810  -0.02278   2.66062
    R4        3.25908  -0.00611  -0.01993   0.01514  -0.00479   3.25429
    R5        2.69404  -0.03604  -0.08273   0.05480  -0.02813   2.66592
    R6        1.95125   0.05025   0.08947   0.14230   0.23177   2.18302
    R7        2.69722  -0.03337  -0.06053   0.03101  -0.02953   2.66769
    R8        1.96157   0.04429   0.07309   0.10454   0.17763   2.13919
    R9        2.68669  -0.02751  -0.02177  -0.01063  -0.03221   2.65448
   R10        3.24658  -0.00477  -0.00906   0.00355  -0.00551   3.24107
   R11        3.24933  -0.00289  -0.01789   0.01965   0.00176   3.25109
    A1        2.08187  -0.01132  -0.02088   0.00057  -0.02001   2.06186
    A2        2.11027   0.01040   0.00574   0.01850   0.02405   2.13432
    A3        2.09783  -0.00448  -0.00177  -0.00882  -0.01049   2.08733
    A4        2.07509  -0.00592  -0.00397  -0.00968  -0.01356   2.06153
    A5        2.08133  -0.00264   0.01158  -0.02134  -0.01016   2.07117
    A6        2.11035   0.00326  -0.00536   0.01775   0.01259   2.12295
    A7        2.09150  -0.00062  -0.00622   0.00359  -0.00243   2.08907
    A8        2.10158  -0.00369   0.00562  -0.01728  -0.01189   2.08969
    A9        2.09711   0.00056  -0.00215   0.00287   0.00083   2.09794
   A10        2.08449   0.00314  -0.00346   0.01441   0.01106   2.09555
   A11        2.06386   0.00681  -0.00557   0.02421   0.01879   2.08265
   A12        2.07632  -0.00515  -0.00180  -0.00990  -0.01178   2.06454
   A13        2.14301  -0.00167   0.00737  -0.01431  -0.00702   2.13599
   A14        2.12745   0.00044   0.00352  -0.00466  -0.00078   2.12668
   A15        2.07457  -0.00040  -0.00424   0.00529   0.00086   2.07543
   A16        2.08116  -0.00003   0.00073  -0.00063  -0.00008   2.08108
    D1        0.00000   0.00000   0.00000  -0.00000   0.00000   0.00000
    D2        3.14159  -0.00000   0.00000  -0.00000   0.00000   3.14159
    D3        0.00000   0.00000   0.00000   0.00000   0.00000   0.00000
    D4        3.14159   0.00000   0.00000   0.00000   0.00000   3.14159
    D5        0.00000  -0.00000   0.00000  -0.00000   0.00000   0.00000
    D6        3.14159  -0.00000   0.00000  -0.00000   0.00000   3.14159
    D7        3.14159   0.00000   0.00000   0.00000   0.00000   3.14159
    D8        0.00000  -0.00000   0.00000  -0.00000   0.00000   0.00000
    D9        0.00000   0.00000   0.00000   0.00000   0.00000   0.00000
   D10        3.14159  -0.00000   0.00000  -0.00000   0.00000   3.14159
   D11        3.14159   0.00000   0.00000   0.00000   0.00000   3.14159
   D12        0.00000  -0.00000   0.00000  -0.00000   0.00000   0.00000
   D13        0.00000   0.00000   0.00000   0.00000   0.00000   0.00000
   D14        3.14159  -0.00000   0.00000  -0.00000   0.00000   3.14159
   D15        3.14159   0.00000   0.00000   0.00000   0.00000   3.14159
   D16        0.00000   0.00000   0.00000   0.00000   0.00000   0.00000
   D17        0.00000  -0.00000   0.00000  -0.00000   0.00000   0.00000
   D18        3.14159  -0.00000   0.00000  -0.00000   0.00000   3.14159
   D19        3.14159   0.00000   0.00000   0.00000   0.00000   3.14159
   D20        0.00000  -0.00000   0.00000  -0.00000   0.00000   0.00000
         Item               Value     Threshold  Converged?
 Maximum Force            0.050246     0.000450     NO 
 RMS     Force            0.014862     0.000300     NO 
 Maximum Displacement     0.155910     0.001800     NO 
 RMS     Displacement     0.039969     0.001200     NO 
 Predicted change in Energy=-1.219371D-02
 GradGradGradGradGradGradGradGradGradGradGradGradGradGradGradGradGradGrad

                          Input orientation:                          
 ---------------------------------------------------------------------
 Center     Atomic      Atomic             Coordinates (Angstroms)
 Number     Number       Type             X           Y           Z
 ---------------------------------------------------------------------
      1          6           0       -3.129859    0.204860    0.000000
      2          6           0       -1.929559    0.910521    0.000000
      3          6           0       -0.677996    0.265625    0.000000
      4          6           0       -0.643322   -1.144692    0.000000
      5          6           0       -1.851601   -1.874696    0.000000
      6          6           0       -3.073769   -1.182269    0.000000
      7         17           0       -4.544886   -2.074230    0.000000
      8          1           0        0.348717   -1.689954    0.000000
      9         17           0       -1.766338   -3.587678    0.000000
     10         17           0       -1.955289    2.632426    0.000000
     11          1           0        0.311132    0.862386    0.000000
 ---------------------------------------------------------------------
                    Distance matrix (angstroms):
                    1          2          3          4          5
     1  C    0.000000
     2  C    1.392364   0.000000
     3  C    2.452616   1.407942   0.000000
     4  C    2.829162   2.424522   1.410743   0.000000
     5  C    2.441003   2.786307   2.440967   1.411681   0.000000
     6  C    1.388263   2.385159   2.799308   2.430738   1.404688
     7  Cl   2.682639   3.968459   4.519708   4.010766   2.700666
     8  H    3.961164   3.457313   2.208717   1.132013   2.208060
     9  Cl   4.030203   4.501159   4.004052   2.688744   1.715103
    10  Cl   2.696793   1.722097   2.689465   3.998484   4.508314
    11  H    3.503251   2.241209   1.155205   2.222464   3.488414
                    6          7          8          9         10
     6  C    0.000000
     7  Cl   1.720401   0.000000
     8  H    3.459936   4.908668   0.000000
     9  Cl   2.737767   3.163993   2.841622   0.000000
    10  Cl   3.975285   5.372022   4.898103   6.222972   0.000000
    11  H    3.954513   5.674912   2.552617   4.911105   2.875709
                   11
    11  H    0.000000
 Stoichiometry    C6H2Cl3(1-)
 Framework group  CS[SG(C6H2Cl3)]
 Deg. of freedom    19
 Full point group                 CS      NOp   2
 Largest Abelian subgroup         CS      NOp   2
 Largest concise Abelian subgroup C1      NOp   1
                         Standard orientation:                         
 ---------------------------------------------------------------------
 Center     Atomic      Atomic             Coordinates (Angstroms)
 Number     Number       Type             X           Y           Z
 ---------------------------------------------------------------------
      1          6           0        1.244277    0.227481    0.000000
      2          6           0        1.288245   -1.164189    0.000000
      3          6           0        0.122349   -1.953483    0.000000
      4          6           0       -1.132013   -1.307903    0.000000
      5          6           0       -1.193522    0.102437    0.000000
      6          6           0        0.000000    0.843150    0.000000
      7         17           0       -0.077660    2.561797    0.000000
      8          1           0       -2.086070   -1.917188    0.000000
      9         17           0       -2.737761    0.848696    0.000000
     10         17           0        2.811779   -1.966973    0.000000
     11          1           0        0.171965   -3.107622    0.000000
 ---------------------------------------------------------------------
 Rotational constants (GHZ):           1.8784898           0.6014028           0.4555556
 Standard basis: VSTO-6G (5D, 7F)
 There are    29 symmetry adapted cartesian basis functions of A'  symmetry.
 There are     9 symmetry adapted cartesian basis functions of A"  symmetry.
 There are    29 symmetry adapted basis functions of A'  symmetry.
 There are     9 symmetry adapted basis functions of A"  symmetry.
    38 basis functions,   228 primitive gaussians,    38 cartesian basis functions
    24 alpha electrons       24 beta electrons
       nuclear repulsion energy       242.9779805648 Hartrees.
 Integral buffers will be    131072 words long.
 Regular integral format.
 Two-electron integral symmetry is turned off.
 Do NDO integrals.
 One-electron integrals computed using PRISM.
 NBasis=    38 RedAO= T EigKep=  1.00D+00  NBF=    29     9
 NBsUse=    38 1.00D-06 EigRej= -1.00D+00 NBFU=    29     9
 Initial guess from the checkpoint file:  "geometry_chks/1_45ClBzAnionIntermediate.chk"
 B after Tr=    -0.000000   -0.000000    0.000000
         Rot=    0.999991   -0.000000   -0.000000   -0.004351 Ang=  -0.50 deg.
 Initial guess orbital symmetries:
       Occupied  (A') (A') (A') (A') (A') (A') (A') (A') (A') (A')
[...]
 Calling FoFJK, ICntrl=      2127 FMM=F ISym2X=1 I1Cent= 0 IOpClX= 0 NMat=1 NMatS=1 NMatT=0.
 ***** Axes restored to original set *****
 -------------------------------------------------------------------
 Center     Atomic                   Forces (Hartrees/Bohr)
 Number     Number              X              Y              Z
 -------------------------------------------------------------------
      1        6          -0.000078442    0.000040634    0.000000000
      2        6           0.000028287   -0.000001066   -0.000000000
      3        6          -0.000012035   -0.000043918    0.000000000
      4        6          -0.000030947    0.000015027    0.000000000
      5        6          -0.000035932    0.000058291    0.000000000
      6        6           0.000016324   -0.000148236   -0.000000000
      7       17           0.000051856    0.000039741    0.000000000
      8        1           0.000030580   -0.000029220   -0.000000000
      9       17          -0.000012066   -0.000024197    0.000000000
     10       17          -0.000005782    0.000055210    0.000000000
     11        1           0.000048156    0.000037733   -0.000000000
 -------------------------------------------------------------------
 Cartesian Forces:  Max     0.000148236 RMS     0.000039850

 GradGradGradGradGradGradGradGradGradGradGradGradGradGradGradGradGradGrad
 Berny optimization.
 Using GEDIIS/GDIIS optimizer.
 FormGI is forming the generalized inverse of G from B-inverse, IUseBI=4.
 Internal  Forces:  Max     0.000067301 RMS     0.000025474
 Search for a local minimum.
 Step number  11 out of a maximum of   57
 All quantities printed in internal units (Hartrees-Bohrs-Radians)
 Mixed Optimization -- En-DIIS/RFO-DIIS
 Swapping is turned off.
 Update second derivatives using D2CorX and points    4    5    6    8    7
                                                      9   10   11
 DE= -1.28D-06 DEPred=-1.32D-06 R= 9.71D-01
 TightC=F SS=  1.41D+00  RLast= 2.27D-03 DXNew= 7.1352D-01 6.8158D-03
 Trust test= 9.71D-01 RLast= 2.27D-03 DXMaxT set to 4.24D-01
 ITU=  1  1  1 -1  1  1  0  0  0  1  0
     Eigenvalues ---    0.02011   0.02011   0.02011   0.02011   0.02011
     Eigenvalues ---    0.02011   0.02011   0.02011   0.15543   0.16002
     Eigenvalues ---    0.17960   0.22108   0.24457   0.24979   0.25004
     Eigenvalues ---    0.25569   0.28229   0.28610   0.29359   0.33407
     Eigenvalues ---    0.34958   0.42017   0.43706   0.44620   0.45193
     Eigenvalues ---    0.60040   0.77752
 En-DIIS/RFO-DIIS/Sim-DIIS IScMMF=       -3 using points:    11   10    9
 RFO step:  Lambda=-7.24023941D-08.
 DidBck=F Rises=F RFO-DIIS coefs:    0.97919    0.01379    0.00703
 Iteration  1 RMS(Cart)=  0.00007072 RMS(Int)=  0.00000000
 Iteration  2 RMS(Cart)=  0.00000000 RMS(Int)=  0.00000000
 ClnCor:  largest displacement from symmetrization is 5.44D-13 for atom     9.
 Variable       Old X    -DE/DX   Delta X   Delta X   Delta X     New X
                                 (Linear)    (Quad)   (Total)
    R1        2.61823   0.00006   0.00001   0.00012   0.00012   2.61836
    R2        2.62021   0.00007  -0.00000   0.00017   0.00017   2.62038
    R3        2.64190   0.00004   0.00000   0.00005   0.00005   2.64196
    R4        3.26157   0.00006  -0.00000   0.00019   0.00019   3.26176
    R5        2.63820   0.00002  -0.00001  -0.00000  -0.00001   2.63819
    R6        2.07549   0.00006   0.00004   0.00010   0.00014   2.07563
    R7        2.64628   0.00001  -0.00000  -0.00002  -0.00002   2.64626
    R8        2.07332   0.00004   0.00000   0.00012   0.00012   2.07344
    R9        2.64820  -0.00006   0.00001  -0.00012  -0.00011   2.64808
   R10        3.24877   0.00002   0.00000   0.00010   0.00010   3.24887
   R11        3.24871  -0.00006   0.00001  -0.00021  -0.00020   3.24851
    A1        2.04997  -0.00002   0.00001  -0.00010  -0.00009   2.04988
    A2        2.14586  -0.00001  -0.00002   0.00003   0.00001   2.14587
    A3        2.08470  -0.00000   0.00001  -0.00004  -0.00003   2.08467
    A4        2.05263   0.00001   0.00001   0.00001   0.00002   2.05265
    A5        2.07055  -0.00000   0.00001  -0.00000   0.00000   2.07056
    A6        2.12686  -0.00001  -0.00000  -0.00005  -0.00005   2.12681
    A7        2.08578   0.00001  -0.00001   0.00005   0.00005   2.08582
    A8        2.08904   0.00001   0.00001  -0.00001  -0.00000   2.08904
    A9        2.09492   0.00001  -0.00001   0.00007   0.00007   2.09499
   A10        2.09922  -0.00001  -0.00000  -0.00006  -0.00006   2.09916
   A11        2.08876   0.00002  -0.00001   0.00007   0.00006   2.08881
   A12        2.05634   0.00001   0.00001   0.00003   0.00004   2.05638
   A13        2.13809  -0.00003   0.00001  -0.00011  -0.00010   2.13799
   A14        2.12220   0.00001   0.00000   0.00001   0.00002   2.12222
   A15        2.07568  -0.00002   0.00001  -0.00008  -0.00008   2.07561
   A16        2.08530   0.00000  -0.00001   0.00007   0.00006   2.08536
    D1        0.00000  -0.00000   0.00000  -0.00000   0.00000   0.00000
    D2        3.14159   0.00000   0.00000  -0.00000   0.00000   3.14159
    D3        0.00000   0.00000   0.00000   0.00000   0.00000   0.00000
    D4        3.14159   0.00000   0.00000   0.00000   0.00000   3.14159
    D5        0.00000   0.00000   0.00000   0.00000   0.00000   0.00000
    D6        3.14159  -0.00000   0.00000  -0.00000   0.00000   3.14159
    D7        3.14159  -0.00000   0.00000  -0.00000   0.00000   3.14159
    D8        0.00000  -0.00000   0.00000  -0.00000   0.00000   0.00000
    D9        0.00000  -0.00000   0.00000  -0.00000   0.00000   0.00000
   D10        3.14159  -0.00000   0.00000  -0.00000   0.00000   3.14159
   D11        3.14159   0.00000   0.00000   0.00000   0.00000   3.14159
   D12        0.00000  -0.00000   0.00000  -0.00000   0.00000   0.00000
   D13        0.00000   0.00000   0.00000   0.00000   0.00000   0.00000
   D14        3.14159  -0.00000   0.00000  -0.00000   0.00000   3.14159
   D15        3.14159   0.00000   0.00000   0.00000   0.00000   3.14159
   D16        0.00000   0.00000   0.00000   0.00000   0.00000   0.00000
   D17        0.00000  -0.00000   0.00000  -0.00000   0.00000   0.00000
   D18        3.14159  -0.00000   0.00000  -0.00000   0.00000   3.14159
   D19        3.14159   0.00000   0.00000   0.00000   0.00000   3.14159
   D20        0.00000  -0.00000   0.00000  -0.00000   0.00000   0.00000
         Item               Value     Threshold  Converged?
 Maximum Force            0.000067     0.000450     YES
 RMS     Force            0.000025     0.000300     YES
 Maximum Displacement     0.000228     0.001800     YES
 RMS     Displacement     0.000071     0.001200     YES
 Predicted change in Energy=-3.935787D-08
 Optimization completed.
    -- Stationary point found.
                           ----------------------------
                           !   Optimized Parameters   !
                           ! (Angstroms and Degrees)  !
 --------------------------                            --------------------------
 ! Name  Definition              Value          Derivative Info.                !
 --------------------------------------------------------------------------------
 ! R1    R(1,2)                  1.3855         -DE/DX =    0.0001              !
 ! R2    R(1,6)                  1.3866         -DE/DX =    0.0001              !
 ! R3    R(2,3)                  1.398          -DE/DX =    0.0                 !
 ! R4    R(2,10)                 1.726          -DE/DX =    0.0001              !
 ! R5    R(3,4)                  1.3961         -DE/DX =    0.0                 !
 ! R6    R(3,11)                 1.0983         -DE/DX =    0.0001              !
 ! R7    R(4,5)                  1.4004         -DE/DX =    0.0                 !
 ! R8    R(4,8)                  1.0972         -DE/DX =    0.0                 !
 ! R9    R(5,6)                  1.4014         -DE/DX =   -0.0001              !
 ! R10   R(5,9)                  1.7192         -DE/DX =    0.0                 !
 ! R11   R(6,7)                  1.7191         -DE/DX =   -0.0001              !
 ! A1    A(2,1,6)              117.4544         -DE/DX =    0.0                 !
 ! A2    A(1,2,3)              122.9486         -DE/DX =    0.0                 !
 ! A3    A(1,2,10)             119.4445         -DE/DX =    0.0                 !
 ! A4    A(3,2,10)             117.6069         -DE/DX =    0.0                 !
 ! A5    A(2,3,4)              118.634          -DE/DX =    0.0                 !
 ! A6    A(2,3,11)             121.8599         -DE/DX =    0.0                 !
 ! A7    A(4,3,11)             119.5061         -DE/DX =    0.0                 !
 ! A8    A(3,4,5)              119.693          -DE/DX =    0.0                 !
 ! A9    A(3,4,8)              120.0303         -DE/DX =    0.0                 !
 ! A10   A(5,4,8)              120.2767         -DE/DX =    0.0                 !
 ! A11   A(4,5,6)              119.6769         -DE/DX =    0.0                 !
 ! A12   A(4,5,9)              117.8197         -DE/DX =    0.0                 !
 ! A13   A(6,5,9)              122.5034         -DE/DX =    0.0                 !
 ! A14   A(1,6,5)              121.5931         -DE/DX =    0.0                 !
 ! A15   A(1,6,7)              118.9279         -DE/DX =    0.0                 !
 ! A16   A(5,6,7)              119.4789         -DE/DX =    0.0                 !
 ! D1    D(6,1,2,3)              0.0            -DE/DX =    0.0                 !
 ! D2    D(6,1,2,10)           180.0            -DE/DX =    0.0                 !
 ! D3    D(2,1,6,5)              0.0            -DE/DX =    0.0                 !
 ! D4    D(2,1,6,7)            180.0            -DE/DX =    0.0                 !
 ! D5    D(1,2,3,4)              0.0            -DE/DX =    0.0                 !
 ! D6    D(1,2,3,11)           180.0            -DE/DX =    0.0                 !
 ! D7    D(10,2,3,4)           180.0            -DE/DX =    0.0                 !
 ! D8    D(10,2,3,11)            0.0            -DE/DX =    0.0                 !
 ! D9    D(2,3,4,5)              0.0            -DE/DX =    0.0                 !
 ! D10   D(2,3,4,8)            180.0            -DE/DX =    0.0                 !
 ! D11   D(11,3,4,5)           180.0            -DE/DX =    0.0                 !
 ! D12   D(11,3,4,8)             0.0            -DE/DX =    0.0                 !
 ! D13   D(3,4,5,6)              0.0            -DE/DX =    0.0                 !
 ! D14   D(3,4,5,9)            180.0            -DE/DX =    0.0                 !
 ! D15   D(8,4,5,6)            180.0            -DE/DX =    0.0                 !
 ! D16   D(8,4,5,9)              0.0            -DE/DX =    0.0                 !
 ! D17   D(4,5,6,1)              0.0            -DE/DX =    0.0                 !
 ! D18   D(4,5,6,7)            180.0            -DE/DX =    0.0                 !
 ! D19   D(9,5,6,1)            180.0            -DE/DX =    0.0                 !
 ! D20   D(9,5,6,7)              0.0            -DE/DX =    0.0                 !
 --------------------------------------------------------------------------------
 GradGradGradGradGradGradGradGradGradGradGradGradGradGradGradGradGradGrad

                          Input orientation:                          
 ---------------------------------------------------------------------
 Center     Atomic      Atomic             Coordinates (Angstroms)
 Number     Number       Type             X           Y           Z
 ---------------------------------------------------------------------
      1          6           0       -3.124172    0.208188    0.000000
      2          6           0       -1.922270    0.897439    0.000000
      3          6           0       -0.679041    0.257998    0.000000
      4          6           0       -0.644555   -1.137652    0.000000
      5          6           0       -1.843522   -1.861157    0.000000
      6          6           0       -3.066630   -1.177175    0.000000
      7         17           0       -4.535467   -2.070467    0.000000
      8          1           0        0.318590   -1.663099    0.000000
      9         17           0       -1.744895   -3.577500    0.000000
     10         17           0       -1.933967    2.623351    0.000000
     11          1           0        0.263159    0.822375    0.000000
 ---------------------------------------------------------------------
                    Distance matrix (angstroms):
                    1          2          3          4          5
     1  C    0.000000
     2  C    1.385510   0.000000
     3  C    2.445639   1.398035   0.000000
     4  C    2.821309   2.402946   1.396076   0.000000
     5  C    2.433568   2.759720   2.418023   1.400351   0.000000
     6  C    1.386557   2.369301   2.785732   2.422397   1.401365
     7  Cl   2.680302   3.954399   4.504861   4.001167   2.700069
     8  H    3.918460   3.402618   2.164690   1.097153   2.171165
     9  Cl   4.029124   4.478454   3.980841   2.676492   1.719174
    10  Cl   2.692508   1.725951   2.677636   3.975893   4.485420
    11  H    3.442563   2.186717   1.098299   2.160012   3.411664
                    6          7          8          9         10
     6  C    0.000000
     7  Cl   1.719143   0.000000
     8  H    3.419918   4.871120   0.000000
     9  Cl   2.740172   3.171504   2.814765   0.000000
    10  Cl   3.965718   5.366537   4.842279   6.203733   0.000000
    11  H    3.884030   5.603155   2.486093   4.836443   2.840928
                   11
    11  H    0.000000
 Stoichiometry    C6H2Cl3(1-)
 Framework group  CS[SG(C6H2Cl3)]
 Deg. of freedom    19
 Full point group                 CS      NOp   2
 Largest Abelian subgroup         CS      NOp   2
 Largest concise Abelian subgroup C1      NOp   1
                         Standard orientation:                         
 ---------------------------------------------------------------------
 Center     Atomic      Atomic             Coordinates (Angstroms)
 Number     Number       Type             X           Y           Z
 ---------------------------------------------------------------------
      1          6           0        1.247081    0.238534    0.000000
      2          6           0        1.284190   -1.146479    0.000000
      3          6           0        0.131802   -1.938000    0.000000
      4          6           0       -1.113406   -1.306745    0.000000
      5          6           0       -1.182067    0.091922    0.000000
      6          6           0        0.000000    0.844612    0.000000
      7         17           0       -0.090223    2.561386    0.000000
      8          1           0       -2.032647   -1.905694    0.000000
      9         17           0       -2.740050    0.818729    0.000000
     10         17           0        2.809388   -1.954363    0.000000
     11          1           0        0.182075   -3.035149    0.000000
 ---------------------------------------------------------------------
 Rotational constants (GHZ):           1.8822313           0.6055096           0.4581302

 **********************************************************************

            Population analysis using the SCF Density.

 **********************************************************************

 Orbital symmetries:
       Occupied  (A') (A') (A') (A') (A') (A') (A') (A') (A') (A')
                 (A') (A') (A") (A') (A") (A') (A") (A') (A') (A")
                 (A') (A") (A") (A')
       Virtual   (A") (A") (A') (A') (A') (A") (A') (A') (A') (A')
                 (A') (A') (A') (A')
 The electronic state is 1-A'.
 Alpha  occ. eigenvalues --   -1.28539  -1.23051  -1.21289  -1.19151  -0.97273
 Alpha  occ. eigenvalues --   -0.95619  -0.69222  -0.67821  -0.50675  -0.45352
 Alpha  occ. eigenvalues --   -0.44226  -0.39771  -0.38755  -0.35248  -0.33724
 Alpha  occ. eigenvalues --   -0.32106  -0.31614  -0.29897  -0.28050  -0.27457
 Alpha  occ. eigenvalues --   -0.26391  -0.18382  -0.17079  -0.12341
 Alpha virt. eigenvalues --    0.16558   0.18702   0.19289   0.21332   0.22785
 Alpha virt. eigenvalues --    0.27967   0.29337   0.29920   0.32575   0.33116
 Alpha virt. eigenvalues --    0.34313   0.35361   0.38121   0.39727
          Condensed to atoms (all electrons):
               1          2          3          4          5          6
     1  C    4.348638   0.000000   0.000000   0.000000   0.000000   0.000000
     2  C    0.000000   4.054586   0.000000   0.000000   0.000000   0.000000
     3  C    0.000000   0.000000   4.150094   0.000000   0.000000   0.000000
     4  C    0.000000   0.000000   0.000000   4.204797   0.000000   0.000000
     5  C    0.000000   0.000000   0.000000   0.000000   4.069001   0.000000
     6  C    0.000000   0.000000   0.000000   0.000000   0.000000   4.046361
     7  Cl   0.000000   0.000000   0.000000   0.000000   0.000000   0.000000
     8  H    0.000000   0.000000   0.000000   0.000000   0.000000   0.000000
     9  Cl   0.000000   0.000000   0.000000   0.000000   0.000000   0.000000
    10  Cl   0.000000   0.000000   0.000000   0.000000   0.000000   0.000000
    11  H    0.000000   0.000000   0.000000   0.000000   0.000000   0.000000
               7          8          9         10         11
     1  C    0.000000   0.000000   0.000000   0.000000   0.000000
     2  C    0.000000   0.000000   0.000000   0.000000   0.000000
     3  C    0.000000   0.000000   0.000000   0.000000   0.000000
     4  C    0.000000   0.000000   0.000000   0.000000   0.000000
     5  C    0.000000   0.000000   0.000000   0.000000   0.000000
     6  C    0.000000   0.000000   0.000000   0.000000   0.000000
     7  Cl   7.102446   0.000000   0.000000   0.000000   0.000000
     8  H    0.000000   0.891961   0.000000   0.000000   0.000000
     9  Cl   0.000000   0.000000   7.105941   0.000000   0.000000
    10  Cl   0.000000   0.000000   0.000000   7.128199   0.000000
    11  H    0.000000   0.000000   0.000000   0.000000   0.897977
 Mulliken charges:
               1
     1  C   -0.348638
     2  C   -0.054586
     3  C   -0.150094
     4  C   -0.204797
     5  C   -0.069001
     6  C   -0.046361
     7  Cl  -0.102446
     8  H    0.108039
     9  Cl  -0.105941
    10  Cl  -0.128199
    11  H    0.102023
 Sum of Mulliken charges =  -1.00000
 Mulliken charges with hydrogens summed into heavy atoms:
               1
     1  C   -0.348638
     2  C   -0.054586
     3  C   -0.048071
     4  C   -0.096758
     5  C   -0.069001
     6  C   -0.046361
     7  Cl  -0.102446
     9  Cl  -0.105941
    10  Cl  -0.128199
 Charge=             -1.0000 electrons
 Dipole moment (field-independent basis, Debye):
    X=             -3.9082    Y=             -1.6160    Z=             -0.0000  Tot=              4.2291
 N-N= 2.436271359497D+02 E-N=-3.464724698175D+02  KE=-1.140724704485D+02
 Symmetry A'   KE=-8.801879365592D+01
 Symmetry A"   KE=-2.605367679255D+01
 1\1\GINC-SH03-01N66\FOpt\RAM1\ZDO\C6H2Cl3(1-)\JLAPIER\08-Dec-2025\0\\#
  opt am1 SCF(maxcyc=10000)\\Anion Intermediate (removed 2) 1_45\\-1,1\
 C,-3.1241724219,0.2081878307,0.\C,-1.9222696486,0.8974394429,0.\C,-0.6
 79040914,0.2579980334,0.\C,-0.6445552266,-1.1376518696,0.\C,-1.8435221
 327,-1.861157269,0.\C,-3.0666297603,-1.1771750936,0.\Cl,-4.5354665154,
 -2.0704672166,0.\H,0.3185901614,-1.663099486,0.\Cl,-1.7448951065,-3.57
 75002272,0.\Cl,-1.9339671045,2.6233505455,0.\H,0.2631586691,0.82237530
 95,0.\\Version=ES64L-G16RevB.01\State=1-A'\HF=0.0243377\RMSD=4.381e-09
 \RMSF=3.985e-05\Dipole=1.288714,-1.0524347,0.\PG=CS [SG(C6H2Cl3)]\\@


 ARTHROPOD AXIOM: A COMPUTER SYSTEM IS LIKE A SPIDER'S WEB.
 YOU CANNOT PULL ON ONE END WITHOUT MAKING THE OTHER END MOVE.
     -- GREG WETTSTEIN
 Job cpu time:       0 days  0 hours  0 minutes  4.1 seconds.
 Elapsed time:       0 days  0 hours  0 minutes 18.5 seconds.
 File lengths (MBytes):  RWF=     10 Int=      0 D2E=      0 Chk=      2 Scr=      1
 Normal termination of Gaussian 16 at Mon Dec  8 17:08:49 2025.
