 Entering Gaussian System, Link 0=g16
 Initial command:
 /share/software/user/restricted/gaussian/g16.B01/l1.exe "/home/users/jlapier/Chloroaromatics/Gau-14112.inp" -scrdir="/home/users/jlapier/Chloroaromatics/"
 Entering Link 1 = /share/software/user/restricted/gaussian/g16.B01/l1.exe PID=     14114.
  
 Copyright (c) 1988-2017, Gaussian, Inc.  All Rights Reserved.
  
 This is part of the Gaussian(R) 16 program.  It is based on
 the Gaussian(R) 09 system (copyright 2009, Gaussian, Inc.),
 the Gaussian(R) 03 system (copyright 2003, Gaussian, Inc.),
 the Gaussian(R) 98 system (copyright 1998, Gaussian, Inc.),
 the Gaussian(R) 94 system (copyright 1995, Gaussian, Inc.),
 the Gaussian 92(TM) system (copyright 1992, Gaussian, Inc.),
 the Gaussian 90(TM) system (copyright 1990, Gaussian, Inc.),
 the Gaussian 88(TM) system (copyright 1988, Gaussian, Inc.),
 the Gaussian 86(TM) system (copyright 1986, Carnegie Mellon
 University), and the Gaussian 82(TM) system (copyright 1983,
 Carnegie Mellon University). Gaussian is a federally registered
 trademark of Gaussian, Inc.
  
 This software contains proprietary and confidential information,
 including trade secrets, belonging to Gaussian, Inc.
  
 This software is provided under written license and may be
 used, copied, transmitted, or stored only in accord with that
 written license.
  
 The following legend is applicable only to US Government
 contracts under FAR:
  
                    RESTRICTED RIGHTS LEGEND
  
 Use, reproduction and disclosure by the US Government is
 subject to restrictions as set forth in subparagraphs (a)
 and (c) of the Commercial Computer Software - Restricted
 Rights clause in FAR 52.227-19.
  
 Gaussian, Inc.
 340 Quinnipiac St., Bldg. 40, Wallingford CT 06492
  
  
 ---------------------------------------------------------------
 Warning -- This program may not be used in any manner that
 competes with the business of Gaussian, Inc. or will provide
 assistance to any competitor of Gaussian, Inc.  The licensee
 of this program is prohibited from giving any competitor of
 Gaussian, Inc. access to this program.  By using this program,
 the user acknowledges that Gaussian, Inc. is engaged in the
 business of creating and licensing software in the field of
 computational chemistry and represents and warrants to the
 licensee that it is not a competitor of Gaussian, Inc. and that
 it will not use this program in any manner prohibited above.
 ---------------------------------------------------------------
  

 Cite this work as:
 Gaussian 16, Revision B.01,
 M. J. Frisch, G. W. Trucks, H. B. Schlegel, G. E. Scuseria, 
 M. A. Robb, J. R. Cheeseman, G. Scalmani, V. Barone, 
 G. A. Petersson, H. Nakatsuji, X. Li, M. Caricato, A. V. Marenich, 
 J. Bloino, B. G. Janesko, R. Gomperts, B. Mennucci, H. P. Hratchian, 
 J. V. Ortiz, A. F. Izmaylov, J. L. Sonnenberg, D. Williams-Young, 
 F. Ding, F. Lipparini, F. Egidi, J. Goings, B. Peng, A. Petrone, 
 T. Henderson, D. Ranasinghe, V. G. Zakrzewski, J. Gao, N. Rega, 
 G. Zheng, W. Liang, M. Hada, M. Ehara, K. Toyota, R. Fukuda, 
 J. Hasegawa, M. Ishida, T. Nakajima, Y. Honda, O. Kitao, H. Nakai, 
 T. Vreven, K. Throssell, J. A. Montgomery, Jr., J. E. Peralta, 
 F. Ogliaro, M. J. Bearpark, J. J. Heyd, E. N. Brothers, K. N. Kudin, 
 V. N. Staroverov, T. A. Keith, R. Kobayashi, J. Normand, 
 K. Raghavachari, A. P. Rendell, J. C. Burant, S. S. Iyengar, 
 J. Tomasi, M. Cossi, J. M. Millam, M. Klene, C. Adamo, R. Cammi, 
 J. W. Ochterski, R. L. Martin, K. Morokuma, O. Farkas, 
 J. B. Foresman, and D. J. Fox, Gaussian, Inc., Wallingford CT, 2016.
 
 ******************************************
 Gaussian 16:  ES64L-G16RevB.01 20-Dec-2017
                 9-Dec-2025 
 ******************************************
 %mem=2GB
 %nprocshare=1
 Will use up to    1 processors via shared memory.
 %chk=geometry_chks/1_45ClBzNeutralRadical.chk
 -----------------
 # opt am1 SCF=XQC
 -----------------
 1/18=20,19=15,26=1,38=1/1,3;
 2/9=110,12=2,17=6,18=5,40=1/2;
 3/5=2,25=1,41=700000,71=1/1,2,3;
 4/35=1/1;
 5/5=2,8=3,13=1,35=1,38=5/2,8;
 6/7=2,8=2,9=2,10=2,28=1/1;
 7//1,2,3,16;
 1/18=20,19=15,26=1/3(2);
 2/9=110/2;
 99//99;
 2/9=110/2;
 3/5=2,25=1,41=700000,71=1,135=20/1,2,3;
 4/5=5,16=3,35=1/1;
 5/5=2,8=3,13=1,35=1,38=5/2,8;
 7//1,2,3,16;
 1/18=20,19=15,26=1/3(-5);
 2/9=110/2;
 6/7=2,8=2,9=2,10=2,19=2,28=1/1;
 99/9=1/99;
 --------------------------------
 Neutral Radical (removed 2) 1_45
 --------------------------------
 Symbolic Z-matrix:
 Charge =  0 Multiplicity = 2
 C                    -3.20928   0.19943   0. 
 C                    -2.0115    0.93555   0. 
 C                    -0.77511   0.2663    0. 
 C                    -0.7365   -1.13907   0. 
 C                    -1.93429  -1.87519   0. 
 C                    -3.17067  -1.20594   0. 
 Cl                   -4.67483  -2.13035   0. 
 H                     0.81614  -1.97951   0. 
 Cl                   -1.8858   -3.64003   0. 
 Cl                   -2.05998   2.7004    0. 
 H                     0.72905   1.19071   0. 
 
 Add virtual bond connecting atoms H8         and C4         Dist= 3.34D+00.
 Add virtual bond connecting atoms H11        and C3         Dist= 3.34D+00.

 GradGradGradGradGradGradGradGradGradGradGradGradGradGradGradGradGradGrad
 Berny optimization.
 Initialization pass.
                           ----------------------------
                           !    Initial Parameters    !
                           ! (Angstroms and Degrees)  !
 --------------------------                            --------------------------
 ! Name  Definition              Value          Derivative Info.                !
 --------------------------------------------------------------------------------
 ! R1    R(1,2)                  1.4059         estimate D2E/DX2                !
 ! R2    R(1,6)                  1.4059         estimate D2E/DX2                !
 ! R3    R(2,3)                  1.4059         estimate D2E/DX2                !
 ! R4    R(2,10)                 1.7655         estimate D2E/DX2                !
 ! R5    R(3,4)                  1.4059         estimate D2E/DX2                !
 ! R6    R(3,11)                 1.7655         estimate D2E/DX2                !
 ! R7    R(4,5)                  1.4059         estimate D2E/DX2                !
 ! R8    R(4,8)                  1.7655         estimate D2E/DX2                !
 ! R9    R(5,6)                  1.4059         estimate D2E/DX2                !
 ! R10   R(5,9)                  1.7655         estimate D2E/DX2                !
 ! R11   R(6,7)                  1.7655         estimate D2E/DX2                !
 ! A1    A(2,1,6)              119.9999         estimate D2E/DX2                !
 ! A2    A(1,2,3)              120.0            estimate D2E/DX2                !
 ! A3    A(1,2,10)             120.0001         estimate D2E/DX2                !
 ! A4    A(3,2,10)             119.9999         estimate D2E/DX2                !
 ! A5    A(2,3,4)              120.0001         estimate D2E/DX2                !
 ! A6    A(2,3,11)             120.0            estimate D2E/DX2                !
 ! A7    A(4,3,11)             119.9999         estimate D2E/DX2                !
 ! A8    A(3,4,5)              119.9997         estimate D2E/DX2                !
 ! A9    A(3,4,8)              120.0003         estimate D2E/DX2                !
 ! A10   A(5,4,8)              120.0            estimate D2E/DX2                !
 ! A11   A(4,5,6)              120.0            estimate D2E/DX2                !
 ! A12   A(4,5,9)              119.9996         estimate D2E/DX2                !
 ! A13   A(6,5,9)              120.0004         estimate D2E/DX2                !
 ! A14   A(1,6,5)              120.0003         estimate D2E/DX2                !
 ! A15   A(1,6,7)              119.9999         estimate D2E/DX2                !
 ! A16   A(5,6,7)              119.9998         estimate D2E/DX2                !
 ! D1    D(6,1,2,3)              0.0            estimate D2E/DX2                !
 ! D2    D(6,1,2,10)           180.0            estimate D2E/DX2                !
 ! D3    D(2,1,6,5)              0.0            estimate D2E/DX2                !
 ! D4    D(2,1,6,7)            180.0            estimate D2E/DX2                !
 ! D5    D(1,2,3,4)              0.0            estimate D2E/DX2                !
 ! D6    D(1,2,3,11)           180.0            estimate D2E/DX2                !
 ! D7    D(10,2,3,4)           180.0            estimate D2E/DX2                !
 ! D8    D(10,2,3,11)            0.0            estimate D2E/DX2                !
 ! D9    D(2,3,4,5)              0.0            estimate D2E/DX2                !
 ! D10   D(2,3,4,8)            180.0            estimate D2E/DX2                !
 ! D11   D(11,3,4,5)           180.0            estimate D2E/DX2                !
 ! D12   D(11,3,4,8)             0.0            estimate D2E/DX2                !
 ! D13   D(3,4,5,6)              0.0            estimate D2E/DX2                !
 ! D14   D(3,4,5,9)            180.0            estimate D2E/DX2                !
 ! D15   D(8,4,5,6)            180.0            estimate D2E/DX2                !
 ! D16   D(8,4,5,9)              0.0            estimate D2E/DX2                !
 ! D17   D(4,5,6,1)              0.0            estimate D2E/DX2                !
 ! D18   D(4,5,6,7)            180.0            estimate D2E/DX2                !
 ! D19   D(9,5,6,1)            180.0            estimate D2E/DX2                !
 ! D20   D(9,5,6,7)              0.0            estimate D2E/DX2                !
 --------------------------------------------------------------------------------
 Trust Radius=3.00D-01 FncErr=1.00D-07 GrdErr=1.00D-07 EigMax=2.50D+02 EigMin=1.00D-04
 Number of steps in this run=     57 maximum allowed number of steps=    100.
 GradGradGradGradGradGradGradGradGradGradGradGradGradGradGradGradGradGrad

                          Input orientation:                          
 ---------------------------------------------------------------------
 Center     Atomic      Atomic             Coordinates (Angstroms)
 Number     Number       Type             X           Y           Z
 ---------------------------------------------------------------------
      1          6           0       -3.209280    0.199430    0.000000
      2          6           0       -2.011500    0.935550    0.000000
      3          6           0       -0.775110    0.266300    0.000000
      4          6           0       -0.736500   -1.139070    0.000000
      5          6           0       -1.934290   -1.875190    0.000000
      6          6           0       -3.170670   -1.205940    0.000000
      7         17           0       -4.674830   -2.130350    0.000000
      8          1           0        0.816140   -1.979510    0.000000
      9         17           0       -1.885800   -3.640030    0.000000
     10         17           0       -2.059980    2.700400    0.000000
     11          1           0        0.729050    1.190710    0.000000
 ---------------------------------------------------------------------
                    Distance matrix (angstroms):
                    1          2          3          4          5
     1  C    0.000000
     2  C    1.405898   0.000000
     3  C    2.435088   1.405900   0.000000
     4  C    2.811801   2.435092   1.405900   0.000000
     5  C    2.435087   2.811800   2.435093   1.405907   0.000000
     6  C    1.405900   2.435088   2.811796   2.435088   1.405892
     7  Cl   2.752401   4.061166   4.577308   4.061167   2.752393
     8  H    4.577312   4.061173   2.752406   1.765511   2.752408
     9  Cl   4.061164   4.577306   4.061163   2.752397   1.765506
    10  Cl   2.752406   1.765516   2.752405   4.061173   4.577316
    11  H    4.061167   2.752403   1.765512   2.752401   4.061173
                    6          7          8          9         10
     6  C    0.000000
     7  Cl   1.765512   0.000000
     8  H    4.061165   5.493041   0.000000
     9  Cl   2.752396   3.171407   3.171404   0.000000
    10  Cl   4.061173   5.493049   5.493052   6.342822   0.000000
    11  H    4.577308   6.342819   3.171416   5.493040   3.171412
                   11
    11  H    0.000000
 Stoichiometry    C6H2Cl3(2)
 Framework group  CS[SG(C6H2Cl3)]
 Deg. of freedom    19
 Full point group                 CS      NOp   2
 Largest Abelian subgroup         CS      NOp   2
 Largest concise Abelian subgroup C1      NOp   1
                         Standard orientation:                         
 ---------------------------------------------------------------------
 Center     Atomic      Atomic             Coordinates (Angstroms)
 Number     Number       Type             X           Y           Z
 ---------------------------------------------------------------------
      1          6           0        1.248404    0.150625    0.000000
      2          6           0        1.248404   -1.255273    0.000000
      3          6           0        0.030858   -1.958222    0.000000
      4          6           0       -1.186688   -1.255273    0.000000
      5          6           0       -1.186683    0.150634    0.000000
      6          6           0        0.030858    0.853574    0.000000
      7         17           0        0.030859    2.619086    0.000000
      8          1           0       -2.715669   -2.138023    0.000000
      9         17           0       -2.715659    1.033382    0.000000
     10         17           0        2.777383   -2.138034    0.000000
     11          1           0        0.030856   -3.723734    0.000000
 ---------------------------------------------------------------------
 Rotational constants (GHZ):           1.8217158           0.5760403           0.4376516
 Standard basis: VSTO-6G (5D, 7F)
 There are    29 symmetry adapted cartesian basis functions of A'  symmetry.
 There are     9 symmetry adapted cartesian basis functions of A"  symmetry.
 There are    29 symmetry adapted basis functions of A'  symmetry.
 There are     9 symmetry adapted basis functions of A"  symmetry.
    38 basis functions,   228 primitive gaussians,    38 cartesian basis functions
    24 alpha electrons       23 beta electrons
       nuclear repulsion energy       238.8630659919 Hartrees.
 Integral buffers will be    131072 words long.
 Regular integral format.
 Two-electron integral symmetry is turned off.
 Do NDO integrals.
 One-electron integrals computed using PRISM.
 NBasis=    38 RedAO= T EigKep=  1.00D+00  NBF=    29     9
 NBsUse=    38 1.00D-06 EigRej= -1.00D+00 NBFU=    29     9
 Simple Huckel Guess.
 Initial guess orbital symmetries:
 Alpha Orbitals:
       Occupied  (A') (A') (A') (A') (A') (A') (A') (A') (A') (A")
                 (A') (A') (A') (A") (A') (A") (A') (A") (A') (A')
                 (A') (A") (A") (A')
       Virtual   (A') (A") (A") (A') (A") (A') (A') (A') (A') (A')
                 (A') (A') (A') (A')
 Beta  Orbitals:
       Occupied  (A') (A') (A') (A') (A') (A') (A') (A') (A') (A")
                 (A') (A') (A') (A") (A') (A") (A') (A") (A') (A')
                 (A') (A") (A")
       Virtual   (A') (A') (A") (A") (A') (A") (A') (A') (A') (A')
                 (A') (A') (A') (A') (A')
 The electronic state of the initial guess is 2-A'.
 Initial guess <Sx>= 0.0000 <Sy>= 0.0000 <Sz>= 0.5000 <S**2>= 0.7500 S= 0.5000
 Keep J ints in memory in canonical form, NReq=863588.
 Overlap will be assumed to be unity.
 Requested convergence on RMS density matrix=1.00D-08 within  32 cycles.
 Requested convergence on MAX density matrix=1.00D-06.
 Requested convergence on             energy=1.00D-06.
 No special actions if energy rises.
 Fock symm off for IB=2 I1=    1 I=   30 J=   22 Cut=1.00D-07 Err=3.13D-03
 Fock matrix is not symmetric: symmetry in diagonalization turned off.
 Rare condition: small coef for last iteration:  0.000D+00
 Rare condition: small coef for last iteration:  0.000D+00
 Rare condition: small coef for last iteration:  0.000D+00
 Rare condition: small coef for last iteration:  0.000D+00
 Rare condition: small coef for last iteration:  0.000D+00
 Rare condition: small coef for last iteration:  0.000D+00
 Rare condition: small coef for last iteration:  0.000D+00
 Rare condition: small coef for last iteration:  0.000D+00
 Rare condition: small coef for last iteration:  0.000D+00
 Rare condition: small coef for last iteration:  0.000D+00
 >>>>>>>>>> Convergence criterion not met.
 SCF Done:  E(UAM1) =  0.349681580869     A.U. after   33 cycles
            NFock= 32  Conv=0.13D-02     -V/T= 1.0031
 <Sx>= 0.0000 <Sy>= 0.0000 <Sz>= 0.5000 <S**2>= 1.2068 S= 0.7070
 <L.S>=  0.00000000000    
 Annihilation of the first spin contaminant:
 S**2 before annihilation     1.2068,   after     0.9590
 Keep J ints in memory in canonical form, NReq=863988.
 LinEq1:  Iter=  0 NonCon=     1 RMS=4.52D-04 Max=4.85D-03 NDo=     1
 AX will form     1 AO Fock derivatives at one time.
 LinEq1:  Iter=  1 NonCon=     1 RMS=8.66D-05 Max=6.83D-04 NDo=     1
 LinEq1:  Iter=  2 NonCon=     1 RMS=1.88D-05 Max=1.55D-04 NDo=     1
 LinEq1:  Iter=  3 NonCon=     1 RMS=4.83D-06 Max=4.69D-05 NDo=     1
 LinEq1:  Iter=  4 NonCon=     1 RMS=1.33D-06 Max=1.29D-05 NDo=     1
 LinEq1:  Iter=  5 NonCon=     1 RMS=3.89D-07 Max=3.22D-06 NDo=     1
 LinEq1:  Iter=  6 NonCon=     1 RMS=7.81D-08 Max=4.53D-07 NDo=     1
 LinEq1:  Iter=  7 NonCon=     1 RMS=1.82D-08 Max=1.44D-07 NDo=     1
 LinEq1:  Iter=  8 NonCon=     1 RMS=4.70D-09 Max=3.37D-08 NDo=     1
 LinEq1:  Iter=  9 NonCon=     0 RMS=8.66D-10 Max=6.66D-09 NDo=     1
 Linear equations converged to 2.610D-09 2.610D-08 after     9 iterations.
 Incorrect curvature in search direction -- initial direction reversed.
 LinEq1:  Iter=  0 NonCon=     1 RMS=4.82D-04 Max=5.14D-03 NDo=     1
 LinEq1:  Iter=  1 NonCon=     1 RMS=8.99D-05 Max=5.99D-04 NDo=     1
 LinEq1:  Iter=  2 NonCon=     1 RMS=1.97D-05 Max=1.45D-04 NDo=     1
 LinEq1:  Iter=  3 NonCon=     1 RMS=4.83D-06 Max=3.74D-05 NDo=     1
 LinEq1:  Iter=  4 NonCon=     1 RMS=1.39D-06 Max=1.55D-05 NDo=     1
 LinEq1:  Iter=  5 NonCon=     1 RMS=3.87D-07 Max=3.14D-06 NDo=     1
 LinEq1:  Iter=  6 NonCon=     1 RMS=8.03D-08 Max=5.35D-07 NDo=     1
 LinEq1:  Iter=  7 NonCon=     1 RMS=1.72D-08 Max=1.64D-07 NDo=     1
 LinEq1:  Iter=  8 NonCon=     1 RMS=3.94D-09 Max=3.34D-08 NDo=     1
 LinEq1:  Iter=  9 NonCon=     0 RMS=6.74D-10 Max=5.53D-09 NDo=     1
 Linear equations converged to 2.610D-09 2.610D-08 after     9 iterations.
 Incorrect curvature in search direction -- initial direction reversed.
 LinEq1:  Iter=  0 NonCon=     1 RMS=4.93D-04 Max=6.22D-03 NDo=     1
 LinEq1:  Iter=  1 NonCon=     1 RMS=1.03D-04 Max=6.59D-04 NDo=     1
 LinEq1:  Iter=  2 NonCon=     1 RMS=2.36D-05 Max=1.61D-04 NDo=     1
 LinEq1:  Iter=  3 NonCon=     1 RMS=4.18D-06 Max=4.45D-05 NDo=     1
 LinEq1:  Iter=  4 NonCon=     1 RMS=9.40D-07 Max=1.17D-05 NDo=     1
 LinEq1:  Iter=  5 NonCon=     1 RMS=2.91D-07 Max=3.70D-06 NDo=     1
 LinEq1:  Iter=  6 NonCon=     1 RMS=6.88D-08 Max=5.52D-07 NDo=     1
 LinEq1:  Iter=  7 NonCon=     1 RMS=1.10D-08 Max=7.05D-08 NDo=     1
 LinEq1:  Iter=  8 NonCon=     1 RMS=2.94D-09 Max=2.10D-08 NDo=     1
 LinEq1:  Iter=  9 NonCon=     0 RMS=7.59D-10 Max=8.04D-09 NDo=     1
 Linear equations converged to 2.610D-09 2.610D-08 after     9 iterations.
 LinEq1:  Iter=  0 NonCon=     1 RMS=3.52D-04 Max=3.64D-03 NDo=     1
 LinEq1:  Iter=  1 NonCon=     1 RMS=8.55D-05 Max=5.53D-04 NDo=     1
 LinEq1:  Iter=  2 NonCon=     1 RMS=2.23D-05 Max=2.02D-04 NDo=     1
 LinEq1:  Iter=  3 NonCon=     1 RMS=3.78D-06 Max=3.35D-05 NDo=     1
 LinEq1:  Iter=  4 NonCon=     1 RMS=9.45D-07 Max=8.79D-06 NDo=     1
 LinEq1:  Iter=  5 NonCon=     1 RMS=2.34D-07 Max=2.47D-06 NDo=     1
 LinEq1:  Iter=  6 NonCon=     1 RMS=5.20D-08 Max=4.03D-07 NDo=     1
 LinEq1:  Iter=  7 NonCon=     1 RMS=8.79D-09 Max=7.00D-08 NDo=     1
 LinEq1:  Iter=  8 NonCon=     0 RMS=1.64D-09 Max=1.06D-08 NDo=     1
 Linear equations converged to 2.610D-09 2.610D-08 after     8 iterations.
 Incorrect curvature in search direction -- initial direction reversed.
 LinEq1:  Iter=  0 NonCon=     1 RMS=3.65D-04 Max=3.77D-03 NDo=     1
 LinEq1:  Iter=  1 NonCon=     1 RMS=8.83D-05 Max=5.31D-04 NDo=     1
 LinEq1:  Iter=  2 NonCon=     1 RMS=2.28D-05 Max=2.10D-04 NDo=     1
 LinEq1:  Iter=  3 NonCon=     1 RMS=3.90D-06 Max=3.59D-05 NDo=     1
 LinEq1:  Iter=  4 NonCon=     1 RMS=9.52D-07 Max=8.97D-06 NDo=     1
 LinEq1:  Iter=  5 NonCon=     1 RMS=2.33D-07 Max=2.41D-06 NDo=     1
 LinEq1:  Iter=  6 NonCon=     1 RMS=5.17D-08 Max=4.09D-07 NDo=     1
 LinEq1:  Iter=  7 NonCon=     1 RMS=9.22D-09 Max=7.83D-08 NDo=     1
 LinEq1:  Iter=  8 NonCon=     0 RMS=1.81D-09 Max=1.24D-08 NDo=     1
 Linear equations converged to 2.610D-09 2.610D-08 after     8 iterations.
 Incorrect curvature in search direction -- initial direction reversed.
 LinEq1:  Iter=  0 NonCon=     1 RMS=3.58D-04 Max=3.67D-03 NDo=     1
 LinEq1:  Iter=  1 NonCon=     1 RMS=8.93D-05 Max=6.13D-04 NDo=     1
 LinEq1:  Iter=  2 NonCon=     1 RMS=2.27D-05 Max=2.18D-04 NDo=     1
 LinEq1:  Iter=  3 NonCon=     1 RMS=3.85D-06 Max=3.82D-05 NDo=     1
 LinEq1:  Iter=  4 NonCon=     1 RMS=9.03D-07 Max=8.95D-06 NDo=     1
 LinEq1:  Iter=  5 NonCon=     1 RMS=2.21D-07 Max=2.26D-06 NDo=     1
 LinEq1:  Iter=  6 NonCon=     1 RMS=4.87D-08 Max=3.79D-07 NDo=     1
 LinEq1:  Iter=  7 NonCon=     1 RMS=9.37D-09 Max=8.60D-08 NDo=     1
 LinEq1:  Iter=  8 NonCon=     0 RMS=1.95D-09 Max=1.42D-08 NDo=     1
 Linear equations converged to 2.610D-09 2.610D-08 after     8 iterations.
 LinEq1:  Iter=  0 NonCon=     1 RMS=2.35D-04 Max=2.34D-03 NDo=     1
 LinEq1:  Iter=  1 NonCon=     1 RMS=6.83D-05 Max=6.03D-04 NDo=     1
 LinEq1:  Iter=  2 NonCon=     1 RMS=1.77D-05 Max=1.87D-04 NDo=     1
 LinEq1:  Iter=  3 NonCon=     1 RMS=2.74D-06 Max=3.02D-05 NDo=     1
 LinEq1:  Iter=  4 NonCon=     1 RMS=6.00D-07 Max=6.58D-06 NDo=     1
 LinEq1:  Iter=  5 NonCon=     1 RMS=1.51D-07 Max=1.62D-06 NDo=     1
 LinEq1:  Iter=  6 NonCon=     1 RMS=3.42D-08 Max=2.38D-07 NDo=     1
 LinEq1:  Iter=  7 NonCon=     1 RMS=6.93D-09 Max=6.75D-08 NDo=     1
 LinEq1:  Iter=  8 NonCon=     0 RMS=1.47D-09 Max=1.09D-08 NDo=     1
 Linear equations converged to 2.610D-09 2.610D-08 after     8 iterations.
     Accept linear search using points  1 and  2.
 LinEq1:  Iter=  0 NonCon=     1 RMS=4.00D-05 Max=3.46D-04 NDo=     1
 LinEq1:  Iter=  1 NonCon=     1 RMS=7.02D-06 Max=4.32D-05 NDo=     1
 LinEq1:  Iter=  2 NonCon=     1 RMS=2.42D-06 Max=2.13D-05 NDo=     1
 LinEq1:  Iter=  3 NonCon=     1 RMS=4.77D-07 Max=3.11D-06 NDo=     1
 LinEq1:  Iter=  4 NonCon=     1 RMS=9.51D-08 Max=6.20D-07 NDo=     1
 LinEq1:  Iter=  5 NonCon=     1 RMS=1.75D-08 Max=1.20D-07 NDo=     1
 LinEq1:  Iter=  6 NonCon=     1 RMS=4.49D-09 Max=3.91D-08 NDo=     1
 LinEq1:  Iter=  7 NonCon=     0 RMS=1.25D-09 Max=1.00D-08 NDo=     1
 Linear equations converged to 2.610D-09 2.610D-08 after     7 iterations.
     Minimum is close to point  2 DX=  5.79D-04 DF= -3.55D-13 DXR=  5.79D-04 DFR=  3.35D-07 which will be used.
 LinEq1:  Iter=  0 NonCon=     1 RMS=3.67D-07 Max=3.00D-06 NDo=     1
 LinEq1:  Iter=  1 NonCon=     1 RMS=1.26D-07 Max=9.69D-07 NDo=     1
 LinEq1:  Iter=  2 NonCon=     1 RMS=2.88D-08 Max=1.88D-07 NDo=     1
 LinEq1:  Iter=  3 NonCon=     1 RMS=5.90D-09 Max=4.33D-08 NDo=     1
 LinEq1:  Iter=  4 NonCon=     1 RMS=1.23D-09 Max=9.05D-09 NDo=     1
 LinEq1:  Iter=  5 NonCon=     1 RMS=2.37D-10 Max=2.06D-09 NDo=     1
 LinEq1:  Iter=  6 NonCon=     1 RMS=6.93D-11 Max=4.48D-10 NDo=     1
 LinEq1:  Iter=  7 NonCon=     0 RMS=1.74D-11 Max=1.22D-10 NDo=     1
 Linear equations converged to 5.911D-11 5.911D-10 after     7 iterations.
 SCF Done:  E(UAM1) =  0.342641662884     a.u. after   10 cycles
            Convg  =    0.1702D-06                    97 Fock formations.
              S**2 =  1.8719                  -V/T =  1.0031
 <Sx>= 0.0000 <Sy>= 0.0000 <Sz>= 0.5000 <S**2>= 1.8719 S= 0.9567
 <L.S>=  0.00000000000    
 Annihilation of the first spin contaminant:
 S**2 before annihilation     1.8719,   after     2.5334

 **********************************************************************

            Population analysis using the SCF Density.

 **********************************************************************

 Orbital symmetries:
 Alpha Orbitals:
       Occupied  (A') (A') (A') (A') (A') (A') (A') (A') (A') (A')
                 (A') (A") (A') (A") (A") (A') (A') (A') (A') (A")
                 (A') (A') (A") (A")
       Virtual   (A') (A") (A") (A') (A') (A') (A') (A") (A') (A')
                 (A') (A') (A') (A')
 Beta  Orbitals:
       Occupied  (A') (A') (A') (A') (A') (A') (A') (A') (A') (A')
                 (A') (A") (A') (A") (A") (A') (A') (A') (A") (A')
                 (A') (A") (A")
       Virtual   (A') (A") (A') (A') (A") (A') (A') (A') (A") (A')
                 (A') (A') (A') (A') (A')
 The electronic state is 2-A'.
 Alpha  occ. eigenvalues --   -1.44622  -1.38799  -1.37801  -1.36035  -1.13985
 Alpha  occ. eigenvalues --   -1.12379  -0.85928  -0.84007  -0.64443  -0.62492
 Alpha  occ. eigenvalues --   -0.60982  -0.55788  -0.54867  -0.49750  -0.47220
 Alpha  occ. eigenvalues --   -0.46761  -0.46116  -0.45777  -0.44450  -0.43918
 Alpha  occ. eigenvalues --   -0.43407  -0.39903  -0.39149  -0.37247
 Alpha virt. eigenvalues --   -0.01086  -0.00779   0.00283   0.01108   0.01843
 Alpha virt. eigenvalues --    0.03302   0.04577   0.07467   0.12721   0.12982
 Alpha virt. eigenvalues --    0.14873   0.15125   0.16380   0.17952
  Beta  occ. eigenvalues --   -1.44081  -1.38771  -1.37750  -1.35760  -1.13477
  Beta  occ. eigenvalues --   -1.11074  -0.85270  -0.81986  -0.64760  -0.62046
  Beta  occ. eigenvalues --   -0.59871  -0.55625  -0.53893  -0.50215  -0.47445
  Beta  occ. eigenvalues --   -0.46776  -0.45388  -0.44267  -0.43844  -0.43376
  Beta  occ. eigenvalues --   -0.42129  -0.37972  -0.37109
  Beta virt. eigenvalues --   -0.03844  -0.00411   0.00296   0.00847   0.01719
  Beta virt. eigenvalues --    0.02219   0.03379   0.04466   0.08169   0.13179
  Beta virt. eigenvalues --    0.13551   0.15412   0.16568   0.16962   0.18367
          Condensed to atoms (all electrons):
               1          2          3          4          5          6
     1  C    3.989433   0.000000   0.000000   0.000000   0.000000   0.000000
     2  C    0.000000   4.044024   0.000000   0.000000   0.000000   0.000000
     3  C    0.000000   0.000000   4.128071   0.000000   0.000000   0.000000
     4  C    0.000000   0.000000   0.000000   4.122767   0.000000   0.000000
     5  C    0.000000   0.000000   0.000000   0.000000   4.033320   0.000000
     6  C    0.000000   0.000000   0.000000   0.000000   0.000000   4.049110
     7  Cl   0.000000   0.000000   0.000000   0.000000   0.000000   0.000000
     8  H    0.000000   0.000000   0.000000   0.000000   0.000000   0.000000
     9  Cl   0.000000   0.000000   0.000000   0.000000   0.000000   0.000000
    10  Cl   0.000000   0.000000   0.000000   0.000000   0.000000   0.000000
    11  H    0.000000   0.000000   0.000000   0.000000   0.000000   0.000000
               7          8          9         10         11
     1  C    0.000000   0.000000   0.000000   0.000000   0.000000
     2  C    0.000000   0.000000   0.000000   0.000000   0.000000
     3  C    0.000000   0.000000   0.000000   0.000000   0.000000
     4  C    0.000000   0.000000   0.000000   0.000000   0.000000
     5  C    0.000000   0.000000   0.000000   0.000000   0.000000
     6  C    0.000000   0.000000   0.000000   0.000000   0.000000
     7  Cl   6.991149   0.000000   0.000000   0.000000   0.000000
     8  H    0.000000   0.822371   0.000000   0.000000   0.000000
     9  Cl   0.000000   0.000000   7.003410   0.000000   0.000000
    10  Cl   0.000000   0.000000   0.000000   7.010192   0.000000
    11  H    0.000000   0.000000   0.000000   0.000000   0.806151
          Atomic-Atomic Spin Densities.
               1          2          3          4          5          6
     1  C    1.501689   0.000000   0.000000   0.000000   0.000000   0.000000
     2  C    0.000000  -0.572092   0.000000   0.000000   0.000000   0.000000
     3  C    0.000000   0.000000   0.949554   0.000000   0.000000   0.000000
     4  C    0.000000   0.000000   0.000000  -0.970154   0.000000   0.000000
     5  C    0.000000   0.000000   0.000000   0.000000   0.571792   0.000000
     6  C    0.000000   0.000000   0.000000   0.000000   0.000000  -0.563519
     7  Cl   0.000000   0.000000   0.000000   0.000000   0.000000   0.000000
     8  H    0.000000   0.000000   0.000000   0.000000   0.000000   0.000000
     9  Cl   0.000000   0.000000   0.000000   0.000000   0.000000   0.000000
    10  Cl   0.000000   0.000000   0.000000   0.000000   0.000000   0.000000
    11  H    0.000000   0.000000   0.000000   0.000000   0.000000   0.000000
               7          8          9         10         11
     1  C    0.000000   0.000000   0.000000   0.000000   0.000000
     2  C    0.000000   0.000000   0.000000   0.000000   0.000000
     3  C    0.000000   0.000000   0.000000   0.000000   0.000000
     4  C    0.000000   0.000000   0.000000   0.000000   0.000000
     5  C    0.000000   0.000000   0.000000   0.000000   0.000000
     6  C    0.000000   0.000000   0.000000   0.000000   0.000000
     7  Cl   0.008960   0.000000   0.000000   0.000000   0.000000
     8  H    0.000000   0.458422   0.000000   0.000000   0.000000
     9  Cl   0.000000   0.000000   0.005036   0.000000   0.000000
    10  Cl   0.000000   0.000000   0.000000   0.010554   0.000000
    11  H    0.000000   0.000000   0.000000   0.000000  -0.400242
 Mulliken charges and spin densities:
               1          2
     1  C    0.010567   1.501689
     2  C   -0.044024  -0.572092
     3  C   -0.128071   0.949554
     4  C   -0.122767  -0.970154
     5  C   -0.033320   0.571792
     6  C   -0.049110  -0.563519
     7  Cl   0.008851   0.008960
     8  H    0.177629   0.458422
     9  Cl  -0.003410   0.005036
    10  Cl  -0.010192   0.010554
    11  H    0.193849  -0.400242
 Sum of Mulliken charges =  -0.00000   1.00000
 Mulliken charges and spin densities with hydrogens summed into heavy atoms:
               1          2
     1  C    0.010567   1.501689
     2  C   -0.044024  -0.572092
     3  C    0.065778   0.549312
     4  C    0.054862  -0.511732
     5  C   -0.033320   0.571792
     6  C   -0.049110  -0.563519
     7  Cl   0.008851   0.008960
     9  Cl  -0.003410   0.005036
    10  Cl  -0.010192   0.010554
 Charge=              0.0000 electrons
 Dipole moment (field-independent basis, Debye):
    X=             -1.5215    Y=             -2.7552    Z=              0.0000  Tot=              3.1474
 N-N= 2.388630659919D+02 E-N=-3.310880922000D+02  KE=-1.117656644409D+02
 Symmetry A'   KE=-8.578483813368D+01
 Symmetry A"   KE=-2.598082630722D+01
 Symmetry A'   SP= 1.000000000000D+00
 Symmetry A"   SP= 2.220446049250D-16
 Calling FoFJK, ICntrl=      2127 FMM=F ISym2X=1 I1Cent= 0 IOpClX= 1 NMat=1 NMatS=1 NMatT=0.
 ***** Axes restored to original set *****
 -------------------------------------------------------------------
 Center     Atomic                   Forces (Hartrees/Bohr)
 Number     Number              X              Y              Z
 -------------------------------------------------------------------
      1        6           0.051131306   -0.028236140   -0.000000000
      2        6          -0.008898111    0.038017404    0.000000000
      3        6           0.064402273    0.014195317    0.000000000
      4        6           0.060066589   -0.009836886    0.000000000
      5        6           0.021601755   -0.031076959    0.000000000
      6        6          -0.050083283    0.000530694    0.000000000
      7       17           0.033073998    0.023402714    0.000000000
      8        1          -0.086015401    0.045776593   -0.000000000
      9       17           0.001100642    0.040056800    0.000000000
     10       17           0.001299200   -0.040102482   -0.000000000
     11        1          -0.087678968   -0.052727057   -0.000000000
 -------------------------------------------------------------------
 Cartesian Forces:  Max     0.087678968 RMS     0.035569079

 GradGradGradGradGradGradGradGradGradGradGradGradGradGradGradGradGradGrad
 Berny optimization.
 FormGI is forming the generalized inverse of G from B-inverse, IUseBI=4.
 Internal  Forces:  Max     0.102307239 RMS     0.025575727
 Search for a local minimum.
 Step number   1 out of a maximum of   57
 All quantities printed in internal units (Hartrees-Bohrs-Radians)
 Mixed Optimization -- RFO/linear search
 Second derivative matrix not updated -- first step.
 ITU=  0
     Eigenvalues ---    0.02011   0.02011   0.02011   0.02011   0.02011
     Eigenvalues ---    0.02011   0.02011   0.02011   0.06524   0.06524
     Eigenvalues ---    0.16000   0.16000   0.22472   0.24476   0.25000
     Eigenvalues ---    0.25000   0.25000   0.25000   0.29033   0.29033
     Eigenvalues ---    0.29034   0.41073   0.41424   0.44656   0.44657
     Eigenvalues ---    0.44657   0.44657
 RFO step:  Lambda=-1.27147320D-01 EMin= 2.01065791D-02
 Linear search not attempted -- first point.
 Maximum step size (   0.300) exceeded in Quadratic search.
    -- Step size scaled by   0.390
 Iteration  1 RMS(Cart)=  0.04601959 RMS(Int)=  0.00108878
 Iteration  2 RMS(Cart)=  0.00105082 RMS(Int)=  0.00001069
 Iteration  3 RMS(Cart)=  0.00000012 RMS(Int)=  0.00001069
 ClnCor:  largest displacement from symmetrization is 4.32D-09 for atom     8.
 Variable       Old X    -DE/DX   Delta X   Delta X   Delta X     New X
                                 (Linear)    (Quad)   (Total)
    R1        2.65676  -0.02989   0.00000  -0.02047  -0.02045   2.63631
    R2        2.65677  -0.02970   0.00000  -0.01985  -0.01984   2.63693
    R3        2.65677  -0.02413   0.00000  -0.01689  -0.01689   2.63988
    R4        3.33634  -0.04012   0.00000  -0.03749  -0.03749   3.29885
    R5        2.65677  -0.03969   0.00000  -0.02733  -0.02734   2.62943
    R6        3.33633  -0.10231   0.00000  -0.20744  -0.20744   3.12889
    R7        2.65678  -0.02098   0.00000  -0.01412  -0.01413   2.64265
    R8        3.33633  -0.09744   0.00000  -0.19756  -0.19756   3.13877
    R9        2.65675  -0.00224   0.00000  -0.00103  -0.00104   2.65571
   R10        3.33632  -0.04001   0.00000  -0.03739  -0.03739   3.29894
   R11        3.33633  -0.04043   0.00000  -0.03778  -0.03778   3.29856
    A1        2.09439   0.02314   0.00000   0.02409   0.02413   2.11853
    A2        2.09439  -0.01478   0.00000  -0.01647  -0.01645   2.07795
    A3        2.09440   0.00772   0.00000   0.00857   0.00857   2.10296
    A4        2.09439   0.00706   0.00000   0.00789   0.00788   2.10228
    A5        2.09440   0.00532   0.00000   0.00436   0.00435   2.09875
    A6        2.09440  -0.00430   0.00000  -0.00442  -0.00441   2.08999
    A7        2.09439  -0.00101   0.00000   0.00005   0.00006   2.09445
    A8        2.09439   0.00940   0.00000   0.01002   0.00998   2.10437
    A9        2.09440  -0.00355   0.00000  -0.00345  -0.00343   2.09097
   A10        2.09440  -0.00585   0.00000  -0.00657  -0.00655   2.08784
   A11        2.09439  -0.00749   0.00000  -0.00697  -0.00699   2.08740
   A12        2.09439   0.00008   0.00000  -0.00031  -0.00030   2.09409
   A13        2.09440   0.00742   0.00000   0.00728   0.00729   2.10169
   A14        2.09440  -0.01559   0.00000  -0.01503  -0.01503   2.07937
   A15        2.09439   0.00342   0.00000   0.00299   0.00299   2.09738
   A16        2.09439   0.01217   0.00000   0.01204   0.01204   2.10643
    D1        0.00000   0.00000   0.00000   0.00000   0.00000   0.00000
    D2        3.14159  -0.00000   0.00000  -0.00000   0.00000   3.14159
    D3        0.00000  -0.00000   0.00000  -0.00000   0.00000   0.00000
    D4        3.14159   0.00000   0.00000   0.00000   0.00000   3.14159
    D5        0.00000  -0.00000   0.00000  -0.00000   0.00000   0.00000
    D6        3.14159  -0.00000   0.00000  -0.00000   0.00000   3.14159
    D7        3.14159   0.00000   0.00000   0.00000   0.00000   3.14159
    D8        0.00000  -0.00000   0.00000  -0.00000   0.00000   0.00000
    D9        0.00000   0.00000   0.00000  -0.00000   0.00000   0.00000
   D10        3.14159  -0.00000   0.00000  -0.00000   0.00000   3.14159
   D11        3.14159   0.00000   0.00000   0.00000   0.00000   3.14159
   D12        0.00000   0.00000   0.00000   0.00000   0.00000   0.00000
   D13        0.00000   0.00000   0.00000   0.00000   0.00000   0.00000
   D14        3.14159   0.00000   0.00000   0.00000   0.00000   3.14159
   D15        3.14159   0.00000   0.00000   0.00000   0.00000   3.14159
   D16        0.00000   0.00000   0.00000   0.00000   0.00000   0.00000
   D17        0.00000  -0.00000   0.00000  -0.00000   0.00000   0.00000
   D18        3.14159  -0.00000   0.00000  -0.00000   0.00000   3.14159
   D19        3.14159  -0.00000   0.00000  -0.00000   0.00000   3.14159
   D20        0.00000  -0.00000   0.00000  -0.00000   0.00000   0.00000
         Item               Value     Threshold  Converged?
 Maximum Force            0.102307     0.000450     NO 
 RMS     Force            0.025576     0.000300     NO 
 Maximum Displacement     0.163446     0.001800     NO 
 RMS     Displacement     0.046704     0.001200     NO 
 Predicted change in Energy=-4.564606D-02
 GradGradGradGradGradGradGradGradGradGradGradGradGradGradGradGradGradGrad

                          Input orientation:                          
 ---------------------------------------------------------------------
 Center     Atomic      Atomic             Coordinates (Angstroms)
 Number     Number       Type             X           Y           Z
 ---------------------------------------------------------------------
      1          6           0       -3.173193    0.188882    0.000000
      2          6           0       -1.992131    0.931400    0.000000
      3          6           0       -0.767792    0.258717    0.000000
      4          6           0       -0.732247   -1.132262    0.000000
      5          6           0       -1.917720   -1.874053    0.000000
      6          6           0       -3.154336   -1.206393    0.000000
      7         17           0       -4.651392   -2.103982    0.000000
      8          1           0        0.729648   -1.920724    0.000000
      9         17           0       -1.855174   -3.618654    0.000000
     10         17           0       -2.042887    2.676338    0.000000
     11          1           0        0.644453    1.123030    0.000000
 ---------------------------------------------------------------------
                    Distance matrix (angstroms):
                    1          2          3          4          5
     1  C    0.000000
     2  C    1.395077   0.000000
     3  C    2.406414   1.396963   0.000000
     4  C    2.775543   2.417851   1.391433   0.000000
     5  C    2.414935   2.806439   2.423023   1.398428   0.000000
     6  C    1.395403   2.433286   2.800382   2.423223   1.405342
     7  Cl   2.728057   4.035493   4.545843   4.037813   2.743324
     8  H    4.436508   3.942422   2.644294   1.660967   2.647780
     9  Cl   4.029207   4.552115   4.026960   2.728207   1.745723
    10  Cl   2.732221   1.745677   2.733268   4.027805   4.552112
    11  H    3.930274   2.643539   1.655740   2.642280   3.942998
                    6          7          8          9         10
     6  C    0.000000
     7  Cl   1.745520   0.000000
     8  H    3.949126   5.384160   0.000000
     9  Cl   2.739859   3.180105   3.092616   0.000000
    10  Cl   4.038679   5.445710   5.368419   6.297791   0.000000
    11  H    4.456121   6.201578   3.044946   5.360196   3.103959
                   11
    11  H    0.000000
 Stoichiometry    C6H2Cl3(2)
 Framework group  CS[SG(C6H2Cl3)]
 Deg. of freedom    19
 Full point group                 CS      NOp   2
 Largest Abelian subgroup         CS      NOp   2
 Largest concise Abelian subgroup C1      NOp   1
                         Standard orientation:                         
 ---------------------------------------------------------------------
 Center     Atomic      Atomic             Coordinates (Angstroms)
 Number     Number       Type             X           Y           Z
 ---------------------------------------------------------------------
      1          6           0        1.221786    0.183767    0.000000
      2          6           0        1.282551   -1.209986    0.000000
      3          6           0        0.092131   -1.941016    0.000000
      4          6           0       -1.134181   -1.283562    0.000000
      5          6           0       -1.192131    0.113665    0.000000
      6          6           0        0.000000    0.857850    0.000000
      7         17           0       -0.039143    2.602931    0.000000
      8          1           0       -2.542768   -2.163728    0.000000
      9         17           0       -2.739092    0.922650    0.000000
     10         17           0        2.823970   -2.029384    0.000000
     11          1           0        0.144328   -3.595933    0.000000
 ---------------------------------------------------------------------
 Rotational constants (GHZ):           1.8356344           0.5857252           0.4440387
 Standard basis: VSTO-6G (5D, 7F)
 There are    29 symmetry adapted cartesian basis functions of A'  symmetry.
 There are     9 symmetry adapted cartesian basis functions of A"  symmetry.
 There are    29 symmetry adapted basis functions of A'  symmetry.
 There are     9 symmetry adapted basis functions of A"  symmetry.
    38 basis functions,   228 primitive gaussians,    38 cartesian basis functions
    24 alpha electrons       23 beta electrons
       nuclear repulsion energy       240.1626786063 Hartrees.
 Integral buffers will be    131072 words long.
 Regular integral format.
 Two-electron integral symmetry is turned off.
 Do NDO integrals.
 One-electron integrals computed using PRISM.
 NBasis=    38 RedAO= T EigKep=  1.00D+00  NBF=    29     9
 NBsUse=    38 1.00D-06 EigRej= -1.00D+00 NBFU=    29     9
 Initial guess from the checkpoint file:  "geometry_chks/1_45ClBzNeutralRadical.chk"
 B after Tr=     0.000000    0.000000    0.000000
         Rot=    0.999863   -0.000000   -0.000000   -0.016542 Ang=  -1.90 deg.
 Initial guess orbital symmetries:
 Alpha Orbitals:
       Occupied  (A') (A') (A') (A') (A') (A') (A') (A') (A') (A')
                 (A') (A") (A') (A") (A") (A') (A') (A') (A') (A")
                 (A') (A') (A") (A")
       Virtual   (A') (A") (A") (A') (A') (A') (A') (A") (A') (A')
                 (A') (A') (A') (A')
 Beta  Orbitals:
       Occupied  (A') (A') (A') (A') (A') (A') (A') (A') (A') (A')
                 (A') (A") (A') (A") (A") (A') (A') (A') (A") (A')
                 (A') (A") (A")
       Virtual   (A') (A") (A') (A') (A") (A') (A') (A') (A") (A')
                 (A') (A') (A') (A') (A')
 Initial guess <Sx>= 0.0000 <Sy>= 0.0000 <Sz>= 0.5000 <S**2>= 1.8719 S= 0.9567
 Keep J ints in memory in canonical form, NReq=863588.
 Overlap will be assumed to be unity.
 Requested convergence on RMS density matrix=1.00D-08 within  32 cycles.
 Requested convergence on MAX density matrix=1.00D-06.
 Requested convergence on             energy=1.00D-06.
 No special actions if energy rises.
 Fock symm off for IB=2 I1=    1 I=   30 J=   16 Cut=1.00D-07 Err=4.25D-03
 Fock matrix is not symmetric: symmetry in diagonalization turned off.
 SCF Done:  E(UAM1) =  0.289707199530     A.U. after   20 cycles
            NFock= 19  Conv=0.98D-08     -V/T= 1.0026
 <Sx>= 0.0000 <Sy>= 0.0000 <Sz>= 0.5000 <S**2>= 1.3870 S= 0.7795
 <L.S>=  0.00000000000    
 Annihilation of the first spin contaminant:
 S**2 before annihilation     1.3870,   after     1.1688
 QCSCF skips out because SCF is already converged.
 Calling FoFJK, ICntrl=      2127 FMM=F ISym2X=1 I1Cent= 0 IOpClX= 1 NMat=1 NMatS=1 NMatT=0.
 ***** Axes restored to original set *****
 -------------------------------------------------------------------
 Center     Atomic                   Forces (Hartrees/Bohr)
 Number     Number              X              Y              Z
 -------------------------------------------------------------------
      1        6           0.037313407   -0.021821780    0.000000000
      2        6          -0.010622202    0.037932338    0.000000000
      3        6           0.092543687    0.037123845   -0.000000000
      4        6           0.089915794   -0.033358802    0.000000000
      5        6           0.015427920   -0.028623165   -0.000000000
      6        6          -0.044614697   -0.002088170    0.000000000
      7       17           0.025845813    0.017734046   -0.000000000
      8        1          -0.104052417    0.055184022   -0.000000000
      9       17           0.000416871    0.030397091   -0.000000000
     10       17           0.000950574   -0.030525600    0.000000000
     11        1          -0.103124750   -0.061953824   -0.000000000
 -------------------------------------------------------------------
 Cartesian Forces:  Max     0.104052417 RMS     0.041486410

 GradGradGradGradGradGradGradGradGradGradGradGradGradGradGradGradGradGrad
 Berny optimization.
 Using GEDIIS/GDIIS optimizer.
 FormGI is forming the generalized inverse of G from B-inverse, IUseBI=4.
 Internal  Forces:  Max     0.120299674 RMS     0.026726123
 Search for a local minimum.
 Step number   2 out of a maximum of   57
 All quantities printed in internal units (Hartrees-Bohrs-Radians)
 Mixed Optimization -- RFO/linear search
 Update second derivatives using D2CorX and points    1    2
 DE= -5.29D-02 DEPred=-4.56D-02 R= 1.16D+00
 TightC=F SS=  1.41D+00  RLast= 3.00D-01 DXNew= 5.0454D-01 9.0000D-01
 Trust test= 1.16D+00 RLast= 3.00D-01 DXMaxT set to 5.05D-01
 ITU=  1  0
 Use linear search instead of GDIIS.
     Eigenvalues ---   -0.19551   0.02011   0.02011   0.02011   0.02011
     Eigenvalues ---    0.02011   0.02011   0.02011   0.02011   0.06172
     Eigenvalues ---    0.07997   0.15999   0.16005   0.22489   0.24630
     Eigenvalues ---    0.24983   0.25000   0.25000   0.25460   0.29032
     Eigenvalues ---    0.29033   0.35311   0.41311   0.41460   0.44580
     Eigenvalues ---    0.44656   0.44657
 RFO step:  Lambda=-2.62100418D-01 EMin=-1.95510813D-01
 Skip linear search -- no minimum in search direction.
 Maximum step size (   0.505) exceeded in Quadratic search.
    -- Step size scaled by   0.465
 Iteration  1 RMS(Cart)=  0.03378876 RMS(Int)=  0.03134624
 Iteration  2 RMS(Cart)=  0.02914854 RMS(Int)=  0.00001646
 Iteration  3 RMS(Cart)=  0.00000865 RMS(Int)=  0.00001577
 Iteration  4 RMS(Cart)=  0.00000000 RMS(Int)=  0.00001577
 ClnCor:  largest displacement from symmetrization is 7.02D-09 for atom     4.
 Variable       Old X    -DE/DX   Delta X   Delta X   Delta X     New X
                                 (Linear)    (Quad)   (Total)
    R1        2.63631  -0.01763   0.00000   0.02535   0.02536   2.66168
    R2        2.63693  -0.01835   0.00000   0.02087   0.02086   2.65779
    R3        2.63988  -0.00999   0.00000   0.04112   0.04114   2.68102
    R4        3.29885  -0.03054   0.00000   0.00323   0.00323   3.30208
    R5        2.62943  -0.02116   0.00000   0.04531   0.04533   2.67475
    R6        3.12889  -0.12030   0.00000  -0.34576  -0.34576   2.78314
    R7        2.64265  -0.00915   0.00000   0.03341   0.03340   2.67605
    R8        3.13877  -0.11778   0.00000  -0.35784  -0.35784   2.78093
    R9        2.65571   0.00284   0.00000   0.02114   0.02111   2.67682
   R10        3.29894  -0.03036   0.00000   0.00377   0.00377   3.30271
   R11        3.29856  -0.03129   0.00000   0.00025   0.00025   3.29881
    A1        2.11853   0.02091   0.00000   0.01691   0.01690   2.13543
    A2        2.07795  -0.01308   0.00000  -0.00965  -0.00962   2.06833
    A3        2.10296   0.00664   0.00000   0.00387   0.00385   2.10681
    A4        2.10228   0.00644   0.00000   0.00578   0.00577   2.10804
    A5        2.09875   0.00313   0.00000  -0.00489  -0.00485   2.09390
    A6        2.08999  -0.00311   0.00000   0.00052   0.00050   2.09049
    A7        2.09445  -0.00002   0.00000   0.00437   0.00435   2.09880
    A8        2.10437   0.00706   0.00000  -0.00023  -0.00022   2.10416
    A9        2.09097  -0.00224   0.00000   0.00301   0.00301   2.09398
   A10        2.08784  -0.00482   0.00000  -0.00279  -0.00279   2.08505
   A11        2.08740  -0.00536   0.00000   0.00277   0.00274   2.09014
   A12        2.09409   0.00019   0.00000   0.00091   0.00093   2.09502
   A13        2.10169   0.00516   0.00000  -0.00369  -0.00367   2.09803
   A14        2.07937  -0.01267   0.00000  -0.00492  -0.00496   2.07441
   A15        2.09738   0.00317   0.00000   0.00390   0.00392   2.10131
   A16        2.10643   0.00950   0.00000   0.00102   0.00104   2.10747
    D1        0.00000   0.00000   0.00000  -0.00000   0.00000   0.00000
    D2        3.14159  -0.00000   0.00000  -0.00000   0.00000   3.14159
    D3        0.00000   0.00000   0.00000   0.00000   0.00000   0.00000
    D4        3.14159   0.00000   0.00000   0.00000   0.00000   3.14159
    D5        0.00000  -0.00000   0.00000  -0.00000   0.00000   0.00000
    D6        3.14159  -0.00000   0.00000  -0.00000   0.00000   3.14159
    D7        3.14159   0.00000   0.00000   0.00000   0.00000   3.14159
    D8        0.00000  -0.00000   0.00000  -0.00000   0.00000   0.00000
    D9        0.00000   0.00000   0.00000   0.00000   0.00000   0.00000
   D10        3.14159   0.00000   0.00000   0.00000   0.00000   3.14159
   D11        3.14159   0.00000   0.00000   0.00000   0.00000   3.14159
   D12        0.00000   0.00000   0.00000   0.00000   0.00000   0.00000
   D13        0.00000  -0.00000   0.00000  -0.00000   0.00000   0.00000
   D14        3.14159  -0.00000   0.00000  -0.00000   0.00000   3.14159
   D15        3.14159   0.00000   0.00000   0.00000   0.00000   3.14159
   D16        0.00000   0.00000   0.00000  -0.00000   0.00000   0.00000
   D17        0.00000  -0.00000   0.00000  -0.00000   0.00000   0.00000
   D18        3.14159  -0.00000   0.00000  -0.00000   0.00000   3.14159
   D19        3.14159  -0.00000   0.00000   0.00000   0.00000   3.14159
   D20        0.00000  -0.00000   0.00000  -0.00000   0.00000   0.00000
         Item               Value     Threshold  Converged?
 Maximum Force            0.120300     0.000450     NO 
 RMS     Force            0.026726     0.000300     NO 
 Maximum Displacement     0.241331     0.001800     NO 
 RMS     Displacement     0.061040     0.001200     NO 
 Predicted change in Energy=-1.013900D-01
 GradGradGradGradGradGradGradGradGradGradGradGradGradGradGradGradGradGrad

                          Input orientation:                          
 ---------------------------------------------------------------------
 Center     Atomic      Atomic             Coordinates (Angstroms)
 Number     Number       Type             X           Y           Z
 ---------------------------------------------------------------------
      1          6           0       -3.148051    0.191934    0.000000
      2          6           0       -1.963787    0.954421    0.000000
      3          6           0       -0.719564    0.272722    0.000000
      4          6           0       -0.688594   -1.142358    0.000000
      5          6           0       -1.891958   -1.888858    0.000000
      6          6           0       -3.137633   -1.214468    0.000000
      7         17           0       -4.636760   -2.108851    0.000000
      8          1           0        0.601942   -1.849560    0.000000
      9         17           0       -1.837745   -3.635734    0.000000
     10         17           0       -2.026720    2.700675    0.000000
     11          1           0        0.536100    1.042377    0.000000
 ---------------------------------------------------------------------
                    Distance matrix (angstroms):
                    1          2          3          4          5
     1  C    0.000000
     2  C    1.408498   0.000000
     3  C    2.429830   1.418734   0.000000
     4  C    2.798081   2.454099   1.415419   0.000000
     5  C    2.430528   2.844187   2.459052   1.416102   0.000000
     6  C    1.406440   2.466170   2.838801   2.450100   1.416513
     7  Cl   2.740414   4.065516   4.584355   4.064741   2.753605
     8  H    4.269677   3.800694   2.500092   1.471604   2.494209
     9  Cl   4.045732   4.591886   4.065262   2.745446   1.747717
    10  Cl   2.747938   1.747387   2.757464   4.069334   4.591511
    11  H    3.781034   2.501434   1.472774   2.504584   3.806259
                    6          7          8          9         10
     6  C    0.000000
     7  Cl   1.745653   0.000000
     8  H    3.793120   5.245115   0.000000
     9  Cl   2.748134   3.188395   3.023654   0.000000
    10  Cl   4.069702   5.472097   5.254950   6.339226   0.000000
    11  H    4.311573   6.057121   2.892686   5.245938   3.052540
                   11
    11  H    0.000000
 Stoichiometry    C6H2Cl3(2)
 Framework group  CS[SG(C6H2Cl3)]
 Deg. of freedom    19
 Full point group                 CS      NOp   2
 Largest Abelian subgroup         CS      NOp   2
 Largest concise Abelian subgroup C1      NOp   1
                         Standard orientation:                         
 ---------------------------------------------------------------------
 Center     Atomic      Atomic             Coordinates (Angstroms)
 Number     Number       Type             X           Y           Z
 ---------------------------------------------------------------------
      1          6           0        1.222088    0.168354    0.000000
      2          6           0        1.288062   -1.238598    0.000000
      3          6           0        0.074416   -1.973356    0.000000
      4          6           0       -1.165484   -1.290673    0.000000
      5          6           0       -1.208050    0.124790    0.000000
      6          6           0        0.000000    0.864469    0.000000
      7         17           0       -0.022230    2.609980    0.000000
      8          1           0       -2.424416   -2.052716    0.000000
      9         17           0       -2.746685    0.953716    0.000000
     10         17           0        2.830529   -2.059668    0.000000
     11          1           0        0.110793   -3.445680    0.000000
 ---------------------------------------------------------------------
 Rotational constants (GHZ):           1.8277626           0.5782088           0.4392523
 Standard basis: VSTO-6G (5D, 7F)
 There are    29 symmetry adapted cartesian basis functions of A'  symmetry.
 There are     9 symmetry adapted cartesian basis functions of A"  symmetry.
 There are    29 symmetry adapted basis functions of A'  symmetry.
 There are     9 symmetry adapted basis functions of A"  symmetry.
    38 basis functions,   228 primitive gaussians,    38 cartesian basis functions
    24 alpha electrons       23 beta electrons
       nuclear repulsion energy       239.7551931849 Hartrees.
 Integral buffers will be    131072 words long.
 Regular integral format.
 Two-electron integral symmetry is turned off.
 Do NDO integrals.
 One-electron integrals computed using PRISM.
 NBasis=    38 RedAO= T EigKep=  1.00D+00  NBF=    29     9
 NBsUse=    38 1.00D-06 EigRej= -1.00D+00 NBFU=    29     9
 Initial guess from the checkpoint file:  "geometry_chks/1_45ClBzNeutralRadical.chk"
 B after Tr=    -0.000000    0.000000   -0.000000
         Rot=    0.999993    0.000000   -0.000000    0.003692 Ang=   0.42 deg.
 Initial guess orbital symmetries:
 Alpha Orbitals:
       Occupied  (A') (A') (A') (A') (A') (A') (A') (A') (A') (A')
                 (A') (A") (A') (A") (A") (A') (A') (A') (A') (A")
                 (A') (A') (A") (A")
       Virtual   (A") (A") (A') (A') (A') (A') (A') (A") (A') (A')
                 (A') (A') (A') (A')
 Beta  Orbitals:
       Occupied  (A') (A') (A') (A') (A') (A') (A') (A') (A') (A')
                 (A') (A") (A') (A") (A") (A') (A') (A') (A") (A')
                 (A') (A") (A")
       Virtual   (A') (A") (A') (A') (A") (A') (A') (A') (A") (A')
                 (A') (A') (A') (A') (A')
 Initial guess <Sx>= 0.0000 <Sy>= 0.0000 <Sz>= 0.5000 <S**2>= 1.3870 S= 0.7795
 Keep J ints in memory in canonical form, NReq=863588.
 Overlap will be assumed to be unity.
 Requested convergence on RMS density matrix=1.00D-08 within  32 cycles.
 Requested convergence on MAX density matrix=1.00D-06.
 Requested convergence on             energy=1.00D-06.
 No special actions if energy rises.
 Fock symm off for IB=2 I1=    1 I=   30 J=    6 Cut=1.00D-07 Err=3.46D-03
 Fock matrix is not symmetric: symmetry in diagonalization turned off.
 SCF Done:  E(UAM1) =  0.209116050927     A.U. after   18 cycles
            NFock= 17  Conv=0.90D-08     -V/T= 1.0019
 <Sx>= 0.0000 <Sy>= 0.0000 <Sz>= 0.5000 <S**2>= 1.3927 S= 0.7817
 <L.S>=  0.00000000000    
 Annihilation of the first spin contaminant:
 S**2 before annihilation     1.3927,   after     1.1324
 QCSCF skips out because SCF is already converged.
 Calling FoFJK, ICntrl=      2127 FMM=F ISym2X=1 I1Cent= 0 IOpClX= 1 NMat=1 NMatS=1 NMatT=0.
 ***** Axes restored to original set *****
 -------------------------------------------------------------------
 Center     Atomic                   Forces (Hartrees/Bohr)
 Number     Number              X              Y              Z
 -------------------------------------------------------------------
      1        6           0.049230565   -0.024656258    0.000000000
      2        6          -0.007012983    0.014023776    0.000000000
      3        6           0.071394192    0.027798016    0.000000000
      4        6           0.073961734   -0.024383343   -0.000000000
      5        6           0.015672750   -0.010815086    0.000000000
      6        6          -0.029727048    0.005530882   -0.000000000
      7       17           0.027748524    0.018931542   -0.000000000
      8        1          -0.102926487    0.056107522   -0.000000000
      9       17           0.000793438    0.033287681   -0.000000000
     10       17           0.001526370   -0.034717662   -0.000000000
     11        1          -0.100661053   -0.061107069   -0.000000000
 -------------------------------------------------------------------
 Cartesian Forces:  Max     0.102926487 RMS     0.037956286

 GradGradGradGradGradGradGradGradGradGradGradGradGradGradGradGradGradGrad
 Berny optimization.
 Using GEDIIS/GDIIS optimizer.
 FormGI is forming the generalized inverse of G from B-inverse, IUseBI=4.
 Internal  Forces:  Max     0.117755960 RMS     0.028566604
 Search for a local minimum.
 Step number   3 out of a maximum of   57
 All quantities printed in internal units (Hartrees-Bohrs-Radians)
 Mixed Optimization -- RFO/linear search
 Update second derivatives using D2CorX and points    2    3
 DE= -8.06D-02 DEPred=-1.01D-01 R= 7.95D-01
 TightC=F SS=  1.41D+00  RLast= 5.05D-01 DXNew= 8.4853D-01 1.5136D+00
 Trust test= 7.95D-01 RLast= 5.05D-01 DXMaxT set to 8.49D-01
 ITU=  1  1  0
 Use linear search instead of GDIIS.
     Eigenvalues ---    0.00532   0.02011   0.02011   0.02011   0.02011
     Eigenvalues ---    0.02011   0.02011   0.02011   0.02011   0.06442
     Eigenvalues ---    0.15582   0.16001   0.16597   0.22523   0.24743
     Eigenvalues ---    0.25000   0.25000   0.25015   0.26909   0.29033
     Eigenvalues ---    0.29049   0.40608   0.41353   0.44008   0.44654
     Eigenvalues ---    0.44657   0.76579
 RFO step:  Lambda=-1.77601611D-01 EMin= 5.31885622D-03
 Skip linear search -- no minimum in search direction.
 Maximum step size (   0.849) exceeded in Quadratic search.
    -- Step size scaled by   0.886
 Iteration  1 RMS(Cart)=  0.06378091 RMS(Int)=  0.07693839
 Iteration  2 RMS(Cart)=  0.03833508 RMS(Int)=  0.03569484
 Iteration  3 RMS(Cart)=  0.03316156 RMS(Int)=  0.00014649
 Iteration  4 RMS(Cart)=  0.00001192 RMS(Int)=  0.00014618
 Iteration  5 RMS(Cart)=  0.00000000 RMS(Int)=  0.00014618
 ClnCor:  largest displacement from symmetrization is 2.55D-09 for atom    11.
 Variable       Old X    -DE/DX   Delta X   Delta X   Delta X     New X
                                 (Linear)    (Quad)   (Total)
    R1        2.66168  -0.03707   0.00000  -0.05288  -0.05267   2.60901
    R2        2.65779  -0.03559   0.00000  -0.05379  -0.05359   2.60420
    R3        2.68102  -0.03246   0.00000  -0.02943  -0.02942   2.65160
    R4        3.30208  -0.03475   0.00000  -0.11153  -0.11153   3.19056
    R5        2.67475  -0.04320   0.00000  -0.05879  -0.05899   2.61577
    R6        2.78314  -0.11776   0.00000  -0.57989  -0.57989   2.20325
    R7        2.67605  -0.02864   0.00000  -0.02612  -0.02633   2.64972
    R8        2.78093  -0.11723   0.00000  -0.56587  -0.56587   2.21506
    R9        2.67682  -0.01418   0.00000   0.00602   0.00601   2.68283
   R10        3.30271  -0.03325   0.00000  -0.10982  -0.10982   3.19289
   R11        3.29881  -0.03353   0.00000  -0.11326  -0.11326   3.18555
    A1        2.13543   0.01620   0.00000   0.07909   0.07963   2.21506
    A2        2.06833  -0.00837   0.00000  -0.05026  -0.05007   2.01826
    A3        2.10681   0.00464   0.00000   0.02569   0.02559   2.13240
    A4        2.10804   0.00373   0.00000   0.02458   0.02448   2.13252
    A5        2.09390   0.00318   0.00000   0.00875   0.00853   2.10244
    A6        2.09049  -0.00229   0.00000  -0.01058  -0.01047   2.08002
    A7        2.09880  -0.00089   0.00000   0.00183   0.00194   2.10073
    A8        2.10416   0.00546   0.00000   0.02608   0.02565   2.12981
    A9        2.09398  -0.00237   0.00000  -0.00810  -0.00789   2.08609
   A10        2.08505  -0.00309   0.00000  -0.01798  -0.01776   2.06728
   A11        2.09014  -0.00400   0.00000  -0.01720  -0.01746   2.07268
   A12        2.09502  -0.00101   0.00000  -0.00106  -0.00093   2.09409
   A13        2.09803   0.00501   0.00000   0.01826   0.01839   2.11641
   A14        2.07441  -0.01246   0.00000  -0.04645  -0.04629   2.02812
   A15        2.10131   0.00287   0.00000   0.01111   0.01103   2.11233
   A16        2.10747   0.00960   0.00000   0.03535   0.03526   2.14273
    D1        0.00000   0.00000   0.00000   0.00000   0.00000   0.00000
    D2        3.14159  -0.00000   0.00000  -0.00000   0.00000   3.14159
    D3        0.00000   0.00000   0.00000   0.00000   0.00000   0.00000
    D4        3.14159   0.00000   0.00000   0.00000   0.00000   3.14159
    D5        0.00000  -0.00000   0.00000  -0.00000   0.00000   0.00000
    D6        3.14159  -0.00000   0.00000  -0.00000   0.00000   3.14159
    D7        3.14159   0.00000   0.00000   0.00000   0.00000   3.14159
    D8        0.00000   0.00000   0.00000  -0.00000   0.00000   0.00000
    D9        0.00000  -0.00000   0.00000  -0.00000   0.00000   0.00000
   D10        3.14159  -0.00000   0.00000  -0.00000   0.00000   3.14159
   D11        3.14159   0.00000   0.00000   0.00000   0.00000   3.14159
   D12        0.00000  -0.00000   0.00000  -0.00000   0.00000   0.00000
   D13        0.00000   0.00000   0.00000   0.00000   0.00000   0.00000
   D14        3.14159  -0.00000   0.00000  -0.00000   0.00000   3.14159
   D15        3.14159   0.00000   0.00000   0.00000   0.00000   3.14159
   D16        0.00000   0.00000   0.00000   0.00000   0.00000   0.00000
   D17        0.00000  -0.00000   0.00000  -0.00000   0.00000   0.00000
   D18        3.14159  -0.00000   0.00000  -0.00000   0.00000   3.14159
   D19        3.14159   0.00000   0.00000   0.00000   0.00000   3.14159
   D20        0.00000  -0.00000   0.00000   0.00000   0.00000   0.00000
         Item               Value     Threshold  Converged?
 Maximum Force            0.117756     0.000450     NO 
 RMS     Force            0.028567     0.000300     NO 
 Maximum Displacement     0.457529     0.001800     NO 
 RMS     Displacement     0.127998     0.001200     NO 
 Predicted change in Energy=-1.515717D-01
 GradGradGradGradGradGradGradGradGradGradGradGradGradGradGradGradGradGrad

                          Input orientation:                          
 ---------------------------------------------------------------------
 Center     Atomic      Atomic             Coordinates (Angstroms)
 Number     Number       Type             X           Y           Z
 ---------------------------------------------------------------------
      1          6           0       -3.045213    0.159788    0.000000
      2          6           0       -1.911613    0.947876    0.000000
      3          6           0       -0.691020    0.255760    0.000000
      4          6           0       -0.669131   -1.128271    0.000000
      5          6           0       -1.845954   -1.890616    0.000000
      6          6           0       -3.095859   -1.217365    0.000000
      7         17           0       -4.571340   -2.032601    0.000000
      8          1           0        0.359828   -1.689702    0.000000
      9         17           0       -1.758917   -3.577975    0.000000
     10         17           0       -1.989078    2.634468    0.000000
     11          1           0        0.305526    0.860937    0.000000
 ---------------------------------------------------------------------
                    Distance matrix (angstroms):
                    1          2          3          4          5
     1  C    0.000000
     2  C    1.380627   0.000000
     3  C    2.356148   1.403165   0.000000
     4  C    2.702750   2.419534   1.384204   0.000000
     5  C    2.375369   2.839251   2.437376   1.402171   0.000000
     6  C    1.378084   2.467935   2.820168   2.428363   1.419694
     7  Cl   2.671261   3.994670   4.504829   4.005627   2.729082
     8  H    3.874908   3.480842   2.211132   1.172161   2.214913
     9  Cl   3.952901   4.528426   3.979690   2.681172   1.689602
    10  Cl   2.690625   1.688370   2.709835   3.987538   4.527347
    11  H    3.423311   2.218843   1.165909   2.215153   3.492837
                    6          7          8          9         10
     6  C    0.000000
     7  Cl   1.685721   0.000000
     8  H    3.487818   4.943076   0.000000
     9  Cl   2.712913   3.209036   2.838072   0.000000
    10  Cl   4.007690   5.333817   4.920956   6.216705   0.000000
    11  H    3.986071   5.670660   2.551217   4.895495   2.900106
                   11
    11  H    0.000000
 Stoichiometry    C6H2Cl3(2)
 Framework group  CS[SG(C6H2Cl3)]
 Deg. of freedom    19
 Full point group                 CS      NOp   2
 Largest Abelian subgroup         CS      NOp   2
 Largest concise Abelian subgroup C1      NOp   1
                         Standard orientation:                         
 ---------------------------------------------------------------------
 Center     Atomic      Atomic             Coordinates (Angstroms)
 Number     Number       Type             X           Y           Z
 ---------------------------------------------------------------------
      1          6           0        1.160127    0.133256    0.000000
      2          6           0        1.262408   -1.243577    0.000000
      3          6           0        0.045844   -1.942752    0.000000
      4          6           0       -1.157084   -1.257928    0.000000
      5          6           0       -1.215222    0.143037    0.000000
      6          6           0        0.000000    0.877044    0.000000
      7         17           0        0.048162    2.562076    0.000000
      8          1           0       -2.163683   -1.858528    0.000000
      9         17           0       -2.712472    0.925980    0.000000
     10         17           0        2.754130   -2.034373    0.000000
     11          1           0        0.060301   -3.108571    0.000000
 ---------------------------------------------------------------------
 Rotational constants (GHZ):           1.8620801           0.6054161           0.4568734
 Standard basis: VSTO-6G (5D, 7F)
 There are    29 symmetry adapted cartesian basis functions of A'  symmetry.
 There are     9 symmetry adapted cartesian basis functions of A"  symmetry.
 There are    29 symmetry adapted basis functions of A'  symmetry.
 There are     9 symmetry adapted basis functions of A"  symmetry.
    38 basis functions,   228 primitive gaussians,    38 cartesian basis functions
    24 alpha electrons       23 beta electrons
       nuclear repulsion energy       243.5150332674 Hartrees.
 Integral buffers will be    131072 words long.
 Regular integral format.
 Two-electron integral symmetry is turned off.
 Do NDO integrals.
 One-electron integrals computed using PRISM.
 NBasis=    38 RedAO= T EigKep=  1.00D+00  NBF=    29     9
 NBsUse=    38 1.00D-06 EigRej= -1.00D+00 NBFU=    29     9
 Initial guess from the checkpoint file:  "geometry_chks/1_45ClBzNeutralRadical.chk"
 B after Tr=     0.000000    0.000000    0.000000
         Rot=    0.999990    0.000000    0.000000    0.004399 Ang=   0.50 deg.
 Initial guess orbital symmetries:
 Alpha Orbitals:
       Occupied  (A') (A') (A') (A') (A') (A') (A') (A') (A') (A')
                 (A') (A') (A") (A") (A') (A') (A") (A') (A') (A')
                 (A") (A') (A") (A")
       Virtual   (A") (A") (A') (A') (A') (A') (A') (A") (A') (A')
                 (A') (A') (A') (A')
 Beta  Orbitals:
       Occupied  (A') (A') (A') (A') (A') (A') (A') (A') (A') (A')
                 (A') (A") (A') (A") (A') (A") (A') (A') (A') (A')
                 (A") (A") (A")
       Virtual   (A') (A") (A") (A') (A') (A') (A') (A') (A") (A')
                 (A') (A') (A') (A') (A')
 Initial guess <Sx>= 0.0000 <Sy>= 0.0000 <Sz>= 0.5000 <S**2>= 1.3927 S= 0.7817
 Keep J ints in memory in canonical form, NReq=863588.
 Overlap will be assumed to be unity.
 Requested convergence on RMS density matrix=1.00D-08 within  32 cycles.
 Requested convergence on MAX density matrix=1.00D-06.
 Requested convergence on             energy=1.00D-06.
 No special actions if energy rises.
 Fock symm off for IB=2 I1=    1 I=   30 J=   13 Cut=1.00D-07 Err=1.67D-03
 Fock matrix is not symmetric: symmetry in diagonalization turned off.
 SCF Done:  E(UAM1) =  0.950706011551E-01 A.U. after   17 cycles
            NFock= 16  Conv=0.46D-08     -V/T= 1.0008
 <Sx>= 0.0000 <Sy>= 0.0000 <Sz>= 0.5000 <S**2>= 1.2804 S= 0.7371
 <L.S>=  0.00000000000    
 Annihilation of the first spin contaminant:
 S**2 before annihilation     1.2804,   after     0.9949
 QCSCF skips out because SCF is already converged.
 Calling FoFJK, ICntrl=      2127 FMM=F ISym2X=1 I1Cent= 0 IOpClX= 1 NMat=1 NMatS=1 NMatT=0.
 ***** Axes restored to original set *****
 -------------------------------------------------------------------
 Center     Atomic                   Forces (Hartrees/Bohr)
 Number     Number              X              Y              Z
 -------------------------------------------------------------------
      1        6           0.009735706   -0.003586233    0.000000000
      2        6          -0.012194798    0.007869368    0.000000000
      3        6           0.040210392    0.027569970    0.000000000
      4        6           0.039204647   -0.028148271    0.000000000
      5        6          -0.004231069   -0.001045087    0.000000000
      6        6          -0.007818386   -0.001510189   -0.000000000
      7       17           0.002232384    0.000835129   -0.000000000
      8        1          -0.034769966    0.019851273   -0.000000000
      9       17          -0.000595241    0.001940423   -0.000000000
     10       17           0.000206790   -0.003488814   -0.000000000
     11        1          -0.031980458   -0.020287569   -0.000000000
 -------------------------------------------------------------------
 Cartesian Forces:  Max     0.040210392 RMS     0.015731044

 GradGradGradGradGradGradGradGradGradGradGradGradGradGradGradGradGradGrad
 Berny optimization.
 Using GEDIIS/GDIIS optimizer.
 FormGI is forming the generalized inverse of G from B-inverse, IUseBI=4.
 Internal  Forces:  Max     0.040030329 RMS     0.008462445
 Search for a local minimum.
 Step number   4 out of a maximum of   57
 All quantities printed in internal units (Hartrees-Bohrs-Radians)
 Mixed Optimization -- RFO/linear search
 Update second derivatives using D2CorX and points    3    4
 DE= -1.14D-01 DEPred=-1.52D-01 R= 7.52D-01
 TightC=F SS=  1.41D+00  RLast= 8.49D-01 DXNew= 1.4270D+00 2.5456D+00
 Trust test= 7.52D-01 RLast= 8.49D-01 DXMaxT set to 1.43D+00
 ITU=  1  1  1  0
 Use linear search instead of GDIIS.
     Eigenvalues ---    0.02011   0.02011   0.02011   0.02011   0.02011
     Eigenvalues ---    0.02011   0.02011   0.02011   0.05385   0.06868
     Eigenvalues ---    0.16000   0.16048   0.18441   0.22522   0.24720
     Eigenvalues ---    0.25000   0.25001   0.25022   0.26729   0.29033
     Eigenvalues ---    0.29048   0.40599   0.41146   0.43621   0.44656
     Eigenvalues ---    0.44666   0.61827
 RFO step:  Lambda=-1.01334604D-02 EMin= 2.01065813D-02
 Quartic linear search produced a step of  0.20856.
 Iteration  1 RMS(Cart)=  0.04239417 RMS(Int)=  0.01929799
 Iteration  2 RMS(Cart)=  0.01816329 RMS(Int)=  0.00010201
 Iteration  3 RMS(Cart)=  0.00001115 RMS(Int)=  0.00010160
 Iteration  4 RMS(Cart)=  0.00000000 RMS(Int)=  0.00010160
 ClnCor:  largest displacement from symmetrization is 3.69D-10 for atom    11.
 Variable       Old X    -DE/DX   Delta X   Delta X   Delta X     New X
                                 (Linear)    (Quad)   (Total)
    R1        2.60901  -0.00309  -0.01098   0.04957   0.03855   2.64756
    R2        2.60420  -0.00174  -0.01118   0.05021   0.03889   2.64309
    R3        2.65160   0.00748  -0.00614   0.07610   0.07009   2.72168
    R4        3.19056  -0.00349  -0.02326   0.09506   0.07180   3.26236
    R5        2.61577   0.00998  -0.01230   0.12083   0.10868   2.72444
    R6        2.20325  -0.03787  -0.12094  -0.11739  -0.23834   1.96491
    R7        2.64972   0.00563  -0.00549   0.06116   0.05569   2.70541
    R8        2.21506  -0.04003  -0.11802  -0.20822  -0.32624   1.88882
    R9        2.68283  -0.00055   0.00125  -0.00462  -0.00349   2.67934
   R10        3.19289  -0.00197  -0.02290   0.10404   0.08113   3.27402
   R11        3.18555  -0.00236  -0.02362   0.10220   0.07858   3.26413
    A1        2.21506   0.00779   0.01661  -0.04139  -0.02503   2.19003
    A2        2.01826  -0.00202  -0.01044   0.04398   0.03366   2.05192
    A3        2.13240   0.00109   0.00534  -0.02260  -0.01732   2.11508
    A4        2.13252   0.00094   0.00511  -0.02139  -0.01634   2.11618
    A5        2.10244  -0.00341   0.00178  -0.02999  -0.02791   2.07453
    A6        2.08002   0.00252  -0.00218   0.02920   0.02686   2.10688
    A7        2.10073   0.00089   0.00040   0.00079   0.00105   2.10178
    A8        2.12981  -0.00113   0.00535  -0.03476  -0.02921   2.10060
    A9        2.08609  -0.00029  -0.00164   0.00534   0.00359   2.08969
   A10        2.06728   0.00142  -0.00371   0.02942   0.02562   2.09290
   A11        2.07268   0.00168  -0.00364   0.03638   0.03264   2.10533
   A12        2.09409  -0.00005  -0.00019  -0.00246  -0.00260   2.09148
   A13        2.11641  -0.00163   0.00384  -0.03392  -0.03004   2.08637
   A14        2.02812  -0.00291  -0.00965   0.02579   0.01585   2.04397
   A15        2.11233   0.00201   0.00230   0.00409   0.00653   2.11886
   A16        2.14273   0.00090   0.00735  -0.02987  -0.02238   2.12035
    D1        0.00000  -0.00000   0.00000  -0.00000   0.00000   0.00000
    D2        3.14159  -0.00000   0.00000  -0.00000   0.00000   3.14159
    D3        0.00000   0.00000   0.00000   0.00000   0.00000   0.00000
    D4        3.14159   0.00000   0.00000  -0.00000   0.00000   3.14159
    D5        0.00000  -0.00000   0.00000   0.00000   0.00000   0.00000
    D6        3.14159  -0.00000   0.00000  -0.00000   0.00000   3.14159
    D7        3.14159   0.00000   0.00000   0.00000   0.00000   3.14159
    D8        0.00000   0.00000   0.00000   0.00000   0.00000   0.00000
    D9        0.00000   0.00000   0.00000  -0.00000   0.00000   0.00000
   D10        3.14159  -0.00000   0.00000  -0.00000   0.00000   3.14159
   D11        3.14159   0.00000   0.00000  -0.00000   0.00000   3.14159
   D12        0.00000   0.00000   0.00000  -0.00000   0.00000   0.00000
   D13        0.00000   0.00000   0.00000   0.00000   0.00000   0.00000
   D14        3.14159  -0.00000   0.00000   0.00000   0.00000   3.14159
   D15        3.14159   0.00000   0.00000   0.00000   0.00000   3.14159
   D16        0.00000   0.00000   0.00000   0.00000   0.00000   0.00000
   D17        0.00000  -0.00000   0.00000  -0.00000   0.00000   0.00000
   D18        3.14159  -0.00000   0.00000  -0.00000   0.00000   3.14159
   D19        3.14159  -0.00000   0.00000  -0.00000   0.00000   3.14159
   D20        0.00000  -0.00000   0.00000   0.00000   0.00000   0.00000
         Item               Value     Threshold  Converged?
 Maximum Force            0.040030     0.000450     NO 
 RMS     Force            0.008462     0.000300     NO 
 Maximum Displacement     0.173498     0.001800     NO 
 RMS     Displacement     0.051876     0.001200     NO 
 Predicted change in Energy=-1.662949D-02
 GradGradGradGradGradGradGradGradGradGradGradGradGradGradGradGradGradGrad

                          Input orientation:                          
 ---------------------------------------------------------------------
 Center     Atomic      Atomic             Coordinates (Angstroms)
 Number     Number       Type             X           Y           Z
 ---------------------------------------------------------------------
      1          6           0       -3.051941    0.176998    0.000000
      2          6           0       -1.894543    0.966498    0.000000
      3          6           0       -0.624464    0.287361    0.000000
      4          6           0       -0.606162   -1.154236    0.000000
      5          6           0       -1.832255   -1.893355    0.000000
      6          6           0       -3.080744   -1.221369    0.000000
      7         17           0       -4.573280   -2.090805    0.000000
      8          1           0        0.268017   -1.638857    0.000000
      9         17           0       -1.794477   -3.625478    0.000000
     10         17           0       -1.988319    2.690313    0.000000
     11          1           0        0.265398    0.825229    0.000000
 ---------------------------------------------------------------------
                    Distance matrix (angstroms):
                    1          2          3          4          5
     1  C    0.000000
     2  C    1.401029   0.000000
     3  C    2.429984   1.440252   0.000000
     4  C    2.784603   2.481418   1.441713   0.000000
     5  C    2.402913   2.860531   2.492845   1.431643   0.000000
     6  C    1.398663   2.488742   2.882633   2.475492   1.417847
     7  Cl   2.730824   4.064817   4.609644   4.076172   2.748127
     8  H    3.784104   3.385932   2.122931   0.999523   2.115635
     9  Cl   4.005001   4.593066   4.084022   2.742103   1.732535
    10  Cl   2.729111   1.726364   2.763020   4.085452   4.586324
    11  H    3.380080   2.164555   1.039787   2.162844   3.433780
                    6          7          8          9         10
     6  C    0.000000
     7  Cl   1.727305   0.000000
     8  H    3.374684   4.862346   0.000000
     9  Cl   2.726578   3.174424   2.863659   0.000000
    10  Cl   4.061361   5.435174   4.881881   6.318765   0.000000
    11  H    3.922400   5.649429   2.464087   4.904271   2.925368
                   11
    11  H    0.000000
 Stoichiometry    C6H2Cl3(2)
 Framework group  CS[SG(C6H2Cl3)]
 Deg. of freedom    19
 Full point group                 CS      NOp   2
 Largest Abelian subgroup         CS      NOp   2
 Largest concise Abelian subgroup C1      NOp   1
                         Standard orientation:                         
 ---------------------------------------------------------------------
[...]
    R3        2.67282  -0.00002  -0.00009   0.00007  -0.00002   2.67280
    R4        3.17701  -0.00004  -0.00010  -0.00002  -0.00012   3.17689
    R5        2.64398  -0.00002  -0.00009   0.00004  -0.00006   2.64392
    R6        2.07758   0.00006   0.00023  -0.00006   0.00018   2.07776
    R7        2.66210  -0.00002  -0.00005   0.00002  -0.00003   2.66208
    R8        2.08162   0.00022   0.00021   0.00038   0.00059   2.08220
    R9        2.68349  -0.00000  -0.00004   0.00004   0.00001   2.68350
   R10        3.18924  -0.00007  -0.00014  -0.00006  -0.00019   3.18905
   R11        3.17263   0.00001  -0.00008   0.00013   0.00005   3.17267
    A1        2.24991   0.00001   0.00004  -0.00002   0.00002   2.24993
    A2        2.01093  -0.00000  -0.00002  -0.00001  -0.00003   2.01090
    A3        2.13999   0.00004  -0.00002   0.00015   0.00013   2.14013
    A4        2.13226  -0.00003   0.00003  -0.00014  -0.00011   2.13216
    A5        2.08780   0.00001  -0.00000   0.00004   0.00004   2.08784
    A6        2.09677  -0.00003   0.00001  -0.00021  -0.00020   2.09657
    A7        2.09862   0.00002  -0.00001   0.00017   0.00016   2.09878
    A8        2.12756  -0.00002   0.00004  -0.00008  -0.00005   2.12751
    A9        2.07725   0.00003  -0.00003   0.00017   0.00014   2.07739
   A10        2.07838  -0.00001  -0.00001  -0.00008  -0.00009   2.07829
   A11        2.08618   0.00001  -0.00003   0.00005   0.00002   2.08620
   A12        2.08862   0.00002  -0.00002   0.00012   0.00010   2.08871
   A13        2.10839  -0.00003   0.00005  -0.00017  -0.00012   2.10827
   A14        2.00399  -0.00001  -0.00003   0.00001  -0.00001   2.00398
   A15        2.12822   0.00005  -0.00004   0.00021   0.00017   2.12839
   A16        2.15097  -0.00004   0.00006  -0.00022  -0.00016   2.15081
    D1        0.00000   0.00000   0.00000   0.00000   0.00000   0.00000
    D2        3.14159  -0.00000   0.00000  -0.00000   0.00000   3.14159
    D3        0.00000   0.00000   0.00000   0.00000   0.00000   0.00000
    D4        3.14159   0.00000   0.00000   0.00000   0.00000   3.14159
    D5        0.00000  -0.00000   0.00000  -0.00000   0.00000   0.00000
    D6        3.14159  -0.00000   0.00000  -0.00000   0.00000   3.14159
    D7        3.14159   0.00000   0.00000   0.00000   0.00000   3.14159
    D8        0.00000  -0.00000   0.00000  -0.00000   0.00000   0.00000
    D9        0.00000   0.00000   0.00000   0.00000   0.00000   0.00000
   D10        3.14159  -0.00000   0.00000  -0.00000   0.00000   3.14159
   D11        3.14159   0.00000   0.00000   0.00000   0.00000   3.14159
   D12        0.00000   0.00000   0.00000   0.00000   0.00000   0.00000
   D13        0.00000   0.00000   0.00000   0.00000   0.00000   0.00000
   D14        3.14159  -0.00000   0.00000  -0.00000   0.00000   3.14159
   D15        3.14159   0.00000   0.00000   0.00000   0.00000   3.14159
   D16        0.00000   0.00000   0.00000   0.00000   0.00000   0.00000
   D17        0.00000  -0.00000   0.00000  -0.00000   0.00000   0.00000
   D18        3.14159  -0.00000   0.00000  -0.00000   0.00000   3.14159
   D19        3.14159  -0.00000   0.00000  -0.00000   0.00000   3.14159
   D20        0.00000  -0.00000   0.00000  -0.00000   0.00000   0.00000
         Item               Value     Threshold  Converged?
 Maximum Force            0.000216     0.000450     YES
 RMS     Force            0.000039     0.000300     YES
 Maximum Displacement     0.000426     0.001800     YES
 RMS     Displacement     0.000152     0.001200     YES
 Predicted change in Energy=-1.035961D-07
 Optimization completed.
    -- Stationary point found.
                           ----------------------------
                           !   Optimized Parameters   !
                           ! (Angstroms and Degrees)  !
 --------------------------                            --------------------------
 ! Name  Definition              Value          Derivative Info.                !
 --------------------------------------------------------------------------------
 ! R1    R(1,2)                  1.3744         -DE/DX =    0.0                 !
 ! R2    R(1,6)                  1.375          -DE/DX =    0.0                 !
 ! R3    R(2,3)                  1.4144         -DE/DX =    0.0                 !
 ! R4    R(2,10)                 1.6812         -DE/DX =    0.0                 !
 ! R5    R(3,4)                  1.3991         -DE/DX =    0.0                 !
 ! R6    R(3,11)                 1.0994         -DE/DX =    0.0001              !
 ! R7    R(4,5)                  1.4087         -DE/DX =    0.0                 !
 ! R8    R(4,8)                  1.1015         -DE/DX =    0.0002              !
 ! R9    R(5,6)                  1.42           -DE/DX =    0.0                 !
 ! R10   R(5,9)                  1.6877         -DE/DX =   -0.0001              !
 ! R11   R(6,7)                  1.6789         -DE/DX =    0.0                 !
 ! A1    A(2,1,6)              128.9106         -DE/DX =    0.0                 !
 ! A2    A(1,2,3)              115.2178         -DE/DX =    0.0                 !
 ! A3    A(1,2,10)             122.6125         -DE/DX =    0.0                 !
 ! A4    A(3,2,10)             122.1698         -DE/DX =    0.0                 !
 ! A5    A(2,3,4)              119.622          -DE/DX =    0.0                 !
 ! A6    A(2,3,11)             120.1361         -DE/DX =    0.0                 !
 ! A7    A(4,3,11)             120.2419         -DE/DX =    0.0                 !
 ! A8    A(3,4,5)              121.9001         -DE/DX =    0.0                 !
 ! A9    A(3,4,8)              119.0176         -DE/DX =    0.0                 !
 ! A10   A(5,4,8)              119.0823         -DE/DX =    0.0                 !
 ! A11   A(4,5,6)              119.5293         -DE/DX =    0.0                 !
 ! A12   A(4,5,9)              119.6689         -DE/DX =    0.0                 !
 ! A13   A(6,5,9)              120.8018         -DE/DX =    0.0                 !
 ! A14   A(1,6,5)              114.8202         -DE/DX =    0.0                 !
 ! A15   A(1,6,7)              121.9383         -DE/DX =    0.0                 !
 ! A16   A(5,6,7)              123.2415         -DE/DX =    0.0                 !
 ! D1    D(6,1,2,3)              0.0            -DE/DX =    0.0                 !
 ! D2    D(6,1,2,10)           180.0            -DE/DX =    0.0                 !
 ! D3    D(2,1,6,5)              0.0            -DE/DX =    0.0                 !
 ! D4    D(2,1,6,7)            180.0            -DE/DX =    0.0                 !
 ! D5    D(1,2,3,4)              0.0            -DE/DX =    0.0                 !
 ! D6    D(1,2,3,11)           180.0            -DE/DX =    0.0                 !
 ! D7    D(10,2,3,4)           180.0            -DE/DX =    0.0                 !
 ! D8    D(10,2,3,11)            0.0            -DE/DX =    0.0                 !
 ! D9    D(2,3,4,5)              0.0            -DE/DX =    0.0                 !
 ! D10   D(2,3,4,8)            180.0            -DE/DX =    0.0                 !
 ! D11   D(11,3,4,5)           180.0            -DE/DX =    0.0                 !
 ! D12   D(11,3,4,8)             0.0            -DE/DX =    0.0                 !
 ! D13   D(3,4,5,6)              0.0            -DE/DX =    0.0                 !
 ! D14   D(3,4,5,9)            180.0            -DE/DX =    0.0                 !
 ! D15   D(8,4,5,6)            180.0            -DE/DX =    0.0                 !
 ! D16   D(8,4,5,9)              0.0            -DE/DX =    0.0                 !
 ! D17   D(4,5,6,1)              0.0            -DE/DX =    0.0                 !
 ! D18   D(4,5,6,7)            180.0            -DE/DX =    0.0                 !
 ! D19   D(9,5,6,1)            180.0            -DE/DX =    0.0                 !
 ! D20   D(9,5,6,7)              0.0            -DE/DX =    0.0                 !
 --------------------------------------------------------------------------------
 GradGradGradGradGradGradGradGradGradGradGradGradGradGradGradGradGradGrad

                          Input orientation:                          
 ---------------------------------------------------------------------
 Center     Atomic      Atomic             Coordinates (Angstroms)
 Number     Number       Type             X           Y           Z
 ---------------------------------------------------------------------
      1          6           0       -3.019556    0.150286    0.000000
      2          6           0       -1.903898    0.952903    0.000000
      3          6           0       -0.667446    0.266100    0.000000
      4          6           0       -0.653491   -1.132964    0.000000
      5          6           0       -1.841973   -1.889281    0.000000
      6          6           0       -3.095807   -1.222630    0.000000
      7         17           0       -4.567595   -2.030393    0.000000
      8          1           0        0.315058   -1.657664    0.000000
      9         17           0       -1.759454   -3.574937    0.000000
     10         17           0       -1.995378    2.631613    0.000000
     11          1           0        0.276770    0.829265    0.000000
 ---------------------------------------------------------------------
                    Distance matrix (angstroms):
                    1          2          3          4          5
     1  C    0.000000
     2  C    1.374368   0.000000
     3  C    2.354959   1.414394   0.000000
     4  C    2.691652   2.431945   1.399134   0.000000
     5  C    2.355108   2.842859   2.454625   1.408725   0.000000
     6  C    1.375031   2.480643   2.848377   2.443961   1.420043
     7  Cl   2.674283   3.999418   4.526041   4.015668   2.729272
     8  H    3.793196   3.426197   2.160135   1.101544   2.169431
     9  Cl   3.932574   4.530144   3.993250   2.680744   1.687675
    10  Cl   2.684386   1.681201   2.712758   3.996586   4.523496
    11  H    3.365527   2.184170   1.099408   2.171572   3.446674
                    6          7          8          9         10
     6  C    0.000000
     7  Cl   1.678881   0.000000
     8  H    3.438496   4.896859   0.000000
     9  Cl   2.705400   3.204883   2.824807   0.000000
    10  Cl   4.008258   5.324529   4.871962   6.211033   0.000000
    11  H    3.947726   5.625435   2.487224   4.852133   2.900192
                   11
    11  H    0.000000
 Stoichiometry    C6H2Cl3(2)
 Framework group  CS[SG(C6H2Cl3)]
 Deg. of freedom    19
 Full point group                 CS      NOp   2
 Largest Abelian subgroup         CS      NOp   2
 Largest concise Abelian subgroup C1      NOp   1
                         Standard orientation:                         
 ---------------------------------------------------------------------
 Center     Atomic      Atomic             Coordinates (Angstroms)
 Number     Number       Type             X           Y           Z
 ---------------------------------------------------------------------
      1          6           0        1.140954    0.115626    0.000000
      2          6           0        1.260386   -1.253543    0.000000
      3          6           0        0.037998   -1.965076    0.000000
      4          6           0       -1.171545   -1.261813    0.000000
      5          6           0       -1.213954    0.146274    0.000000
      6          6           0        0.000000    0.883048    0.000000
      7         17           0        0.058213    2.560920    0.000000
      8          1           0       -2.117654   -1.825973    0.000000
      9         17           0       -2.704859    0.937127    0.000000
     10         17           0        2.749902   -2.033143    0.000000
     11          1           0        0.039283   -3.064483    0.000000
 ---------------------------------------------------------------------
 Rotational constants (GHZ):           1.8609596           0.6063690           0.4573482

 **********************************************************************

            Population analysis using the SCF Density.

 **********************************************************************

 Orbital symmetries:
 Alpha Orbitals:
       Occupied  (A') (A') (A') (A') (A') (A') (A') (A') (A') (A')
                 (A') (A') (A") (A') (A") (A') (A") (A') (A') (A')
                 (A") (A') (A") (A")
       Virtual   (A") (A") (A') (A') (A') (A") (A') (A') (A') (A')
                 (A') (A') (A') (A')
 Beta  Orbitals:
       Occupied  (A') (A') (A') (A') (A') (A') (A') (A') (A') (A')
                 (A') (A') (A") (A') (A") (A') (A") (A') (A') (A')
                 (A") (A") (A")
       Virtual   (A') (A") (A") (A') (A') (A') (A") (A') (A') (A')
                 (A') (A') (A') (A') (A')
 The electronic state is 2-A'.
 Alpha  occ. eigenvalues --   -1.48188  -1.41444  -1.40133  -1.37976  -1.17103
 Alpha  occ. eigenvalues --   -1.15618  -0.89564  -0.87510  -0.69701  -0.64360
 Alpha  occ. eigenvalues --   -0.64140  -0.59391  -0.57451  -0.53189  -0.51353
 Alpha  occ. eigenvalues --   -0.51213  -0.48712  -0.46732  -0.45183  -0.44652
 Alpha  occ. eigenvalues --   -0.44250  -0.40713  -0.39233  -0.36526
 Alpha virt. eigenvalues --   -0.01487  -0.00511   0.02710   0.03447   0.04896
 Alpha virt. eigenvalues --    0.06828   0.11488   0.12286   0.13092   0.13523
 Alpha virt. eigenvalues --    0.15509   0.15975   0.16741   0.17543
  Beta  occ. eigenvalues --   -1.47548  -1.41508  -1.40063  -1.37711  -1.16560
  Beta  occ. eigenvalues --   -1.14355  -0.89185  -0.85361  -0.69661  -0.63745
  Beta  occ. eigenvalues --   -0.62812  -0.59116  -0.57287  -0.52665  -0.51896
  Beta  occ. eigenvalues --   -0.50767  -0.48878  -0.45415  -0.45135  -0.44406
  Beta  occ. eigenvalues --   -0.44137  -0.38019  -0.36415
  Beta virt. eigenvalues --   -0.01879  -0.01439   0.01069   0.02801   0.03458
  Beta virt. eigenvalues --    0.04818   0.07657   0.12165   0.12864   0.13418
  Beta virt. eigenvalues --    0.14183   0.15795   0.16579   0.17634   0.18311
          Condensed to atoms (all electrons):
               1          2          3          4          5          6
     1  C    4.035419   0.000000   0.000000   0.000000   0.000000   0.000000
     2  C    0.000000   4.056579   0.000000   0.000000   0.000000   0.000000
     3  C    0.000000   0.000000   4.112439   0.000000   0.000000   0.000000
     4  C    0.000000   0.000000   0.000000   4.123397   0.000000   0.000000
     5  C    0.000000   0.000000   0.000000   0.000000   4.064620   0.000000
     6  C    0.000000   0.000000   0.000000   0.000000   0.000000   4.052860
     7  Cl   0.000000   0.000000   0.000000   0.000000   0.000000   0.000000
     8  H    0.000000   0.000000   0.000000   0.000000   0.000000   0.000000
     9  Cl   0.000000   0.000000   0.000000   0.000000   0.000000   0.000000
    10  Cl   0.000000   0.000000   0.000000   0.000000   0.000000   0.000000
    11  H    0.000000   0.000000   0.000000   0.000000   0.000000   0.000000
               7          8          9         10         11
     1  C    0.000000   0.000000   0.000000   0.000000   0.000000
     2  C    0.000000   0.000000   0.000000   0.000000   0.000000
     3  C    0.000000   0.000000   0.000000   0.000000   0.000000
     4  C    0.000000   0.000000   0.000000   0.000000   0.000000
     5  C    0.000000   0.000000   0.000000   0.000000   0.000000
     6  C    0.000000   0.000000   0.000000   0.000000   0.000000
     7  Cl   6.942805   0.000000   0.000000   0.000000   0.000000
     8  H    0.000000   0.841894   0.000000   0.000000   0.000000
     9  Cl   0.000000   0.000000   6.971143   0.000000   0.000000
    10  Cl   0.000000   0.000000   0.000000   6.958689   0.000000
    11  H    0.000000   0.000000   0.000000   0.000000   0.840154
          Atomic-Atomic Spin Densities.
               1          2          3          4          5          6
     1  C    1.419054   0.000000   0.000000   0.000000   0.000000   0.000000
     2  C    0.000000  -0.494493   0.000000   0.000000   0.000000   0.000000
     3  C    0.000000   0.000000   0.513180   0.000000   0.000000   0.000000
     4  C    0.000000   0.000000   0.000000  -0.473268   0.000000   0.000000
     5  C    0.000000   0.000000   0.000000   0.000000   0.513292   0.000000
     6  C    0.000000   0.000000   0.000000   0.000000   0.000000  -0.500438
     7  Cl   0.000000   0.000000   0.000000   0.000000   0.000000   0.000000
     8  H    0.000000   0.000000   0.000000   0.000000   0.000000   0.000000
     9  Cl   0.000000   0.000000   0.000000   0.000000   0.000000   0.000000
    10  Cl   0.000000   0.000000   0.000000   0.000000   0.000000   0.000000
    11  H    0.000000   0.000000   0.000000   0.000000   0.000000   0.000000
               7          8          9         10         11
     1  C    0.000000   0.000000   0.000000   0.000000   0.000000
     2  C    0.000000   0.000000   0.000000   0.000000   0.000000
     3  C    0.000000   0.000000   0.000000   0.000000   0.000000
     4  C    0.000000   0.000000   0.000000   0.000000   0.000000
     5  C    0.000000   0.000000   0.000000   0.000000   0.000000
     6  C    0.000000   0.000000   0.000000   0.000000   0.000000
     7  Cl  -0.000398   0.000000   0.000000   0.000000   0.000000
     8  H    0.000000   0.027453   0.000000   0.000000   0.000000
     9  Cl   0.000000   0.000000   0.015824   0.000000   0.000000
    10  Cl   0.000000   0.000000   0.000000   0.000046   0.000000
    11  H    0.000000   0.000000   0.000000   0.000000  -0.020252
 Mulliken charges and spin densities:
               1          2
     1  C   -0.035419   1.419054
     2  C   -0.056579  -0.494493
     3  C   -0.112439   0.513180
     4  C   -0.123397  -0.473268
     5  C   -0.064620   0.513292
     6  C   -0.052860  -0.500438
     7  Cl   0.057195  -0.000398
     8  H    0.158106   0.027453
     9  Cl   0.028857   0.015824
    10  Cl   0.041311   0.000046
    11  H    0.159846  -0.020252
 Sum of Mulliken charges =  -0.00000   1.00000
 Mulliken charges and spin densities with hydrogens summed into heavy atoms:
               1          2
     1  C   -0.035419   1.419054
     2  C   -0.056579  -0.494493
     3  C    0.047407   0.492928
     4  C    0.034709  -0.445815
     5  C   -0.064620   0.513292
     6  C   -0.052860  -0.500438
     7  Cl   0.057195  -0.000398
     9  Cl   0.028857   0.015824
    10  Cl   0.041311   0.000046
 Charge=              0.0000 electrons
 Dipole moment (field-independent basis, Debye):
    X=             -0.9114    Y=             -1.4428    Z=              0.0000  Tot=              1.7066
 N-N= 2.437320868855D+02 E-N=-3.398110139177D+02  KE=-1.121049614523D+02
 Symmetry A'   KE=-8.614244575893D+01
 Symmetry A"   KE=-2.596251569339D+01
 Symmetry A'   SP= 1.000000000000D+00
 Symmetry A"   SP= 2.331468351713D-15
 1\1\GINC-SH02-01N33\FOpt\UAM1\ZDO\C6H2Cl3(2)\JLAPIER\09-Dec-2025\0\\# 
 opt am1 SCF=XQC\\Neutral Radical (removed 2) 1_45\\0,2\C,-3.0195558266
 ,0.1502859289,0.\C,-1.9038976639,0.9529033489,0.\C,-0.6674461517,0.266
 1004664,0.\C,-0.6534911296,-1.1329635024,0.\C,-1.841973487,-1.88928068
 75,0.\C,-3.0958067041,-1.2226295717,0.\Cl,-4.567594908,-2.0303933853,0
 .\H,0.3150579936,-1.6576641791,0.\Cl,-1.759453641,-3.5749368372,0.\Cl,
 -1.9953781703,2.6316134892,0.\H,0.2767696886,0.8292649299,0.\\Version=
 ES64L-G16RevB.01\State=2-A'\HF=0.089184\S2=1.306317\S2-1=0.\S2A=1.0234
 34\RMSD=5.317e-09\RMSF=6.453e-05\Dipole=0.6711739,-0.0179894,0.\PG=CS 
 [SG(C6H2Cl3)]\\@


 GARLIC THEN HAVE POWER TO SAVE FROM DEATH
 BEAR WITH IT THOUGH IT MAKETH UNSAVORY BREATH,
 AND SCORN NOT GARLIC LIKE SOME THAT THINK
 IT ONLY MAKETH MEN WINK AND DRINK AND STINK.
   --  SIR JOHN HARRINGTON,
       "THE ENGLISHMAN'S DOCTOR", 1609
 Job cpu time:       0 days  0 hours  0 minutes  8.6 seconds.
 Elapsed time:       0 days  0 hours  0 minutes 27.3 seconds.
 File lengths (MBytes):  RWF=     10 Int=      0 D2E=      0 Chk=      2 Scr=      1
 Normal termination of Gaussian 16 at Tue Dec  9 08:35:11 2025.
