 Entering Gaussian System, Link 0=g16
 Initial command:
 /share/software/user/restricted/gaussian/g16.B01/l1.exe "/home/users/jlapier/Chloroaromatics/Gau-12496.inp" -scrdir="/home/users/jlapier/Chloroaromatics/"
 Entering Link 1 = /share/software/user/restricted/gaussian/g16.B01/l1.exe PID=     12497.
  
 Copyright (c) 1988-2017, Gaussian, Inc.  All Rights Reserved.
  
 This is part of the Gaussian(R) 16 program.  It is based on
 the Gaussian(R) 09 system (copyright 2009, Gaussian, Inc.),
 the Gaussian(R) 03 system (copyright 2003, Gaussian, Inc.),
 the Gaussian(R) 98 system (copyright 1998, Gaussian, Inc.),
 the Gaussian(R) 94 system (copyright 1995, Gaussian, Inc.),
 the Gaussian 92(TM) system (copyright 1992, Gaussian, Inc.),
 the Gaussian 90(TM) system (copyright 1990, Gaussian, Inc.),
 the Gaussian 88(TM) system (copyright 1988, Gaussian, Inc.),
 the Gaussian 86(TM) system (copyright 1986, Carnegie Mellon
 University), and the Gaussian 82(TM) system (copyright 1983,
 Carnegie Mellon University). Gaussian is a federally registered
 trademark of Gaussian, Inc.
  
 This software contains proprietary and confidential information,
 including trade secrets, belonging to Gaussian, Inc.
  
 This software is provided under written license and may be
 used, copied, transmitted, or stored only in accord with that
 written license.
  
 The following legend is applicable only to US Government
 contracts under FAR:
  
                    RESTRICTED RIGHTS LEGEND
  
 Use, reproduction and disclosure by the US Government is
 subject to restrictions as set forth in subparagraphs (a)
 and (c) of the Commercial Computer Software - Restricted
 Rights clause in FAR 52.227-19.
  
 Gaussian, Inc.
 340 Quinnipiac St., Bldg. 40, Wallingford CT 06492
  
  
 ---------------------------------------------------------------
 Warning -- This program may not be used in any manner that
 competes with the business of Gaussian, Inc. or will provide
 assistance to any competitor of Gaussian, Inc.  The licensee
 of this program is prohibited from giving any competitor of
 Gaussian, Inc. access to this program.  By using this program,
 the user acknowledges that Gaussian, Inc. is engaged in the
 business of creating and licensing software in the field of
 computational chemistry and represents and warrants to the
 licensee that it is not a competitor of Gaussian, Inc. and that
 it will not use this program in any manner prohibited above.
 ---------------------------------------------------------------
  

 Cite this work as:
 Gaussian 16, Revision B.01,
 M. J. Frisch, G. W. Trucks, H. B. Schlegel, G. E. Scuseria, 
 M. A. Robb, J. R. Cheeseman, G. Scalmani, V. Barone, 
 G. A. Petersson, H. Nakatsuji, X. Li, M. Caricato, A. V. Marenich, 
 J. Bloino, B. G. Janesko, R. Gomperts, B. Mennucci, H. P. Hratchian, 
 J. V. Ortiz, A. F. Izmaylov, J. L. Sonnenberg, D. Williams-Young, 
 F. Ding, F. Lipparini, F. Egidi, J. Goings, B. Peng, A. Petrone, 
 T. Henderson, D. Ranasinghe, V. G. Zakrzewski, J. Gao, N. Rega, 
 G. Zheng, W. Liang, M. Hada, M. Ehara, K. Toyota, R. Fukuda, 
 J. Hasegawa, M. Ishida, T. Nakajima, Y. Honda, O. Kitao, H. Nakai, 
 T. Vreven, K. Throssell, J. A. Montgomery, Jr., J. E. Peralta, 
 F. Ogliaro, M. J. Bearpark, J. J. Heyd, E. N. Brothers, K. N. Kudin, 
 V. N. Staroverov, T. A. Keith, R. Kobayashi, J. Normand, 
 K. Raghavachari, A. P. Rendell, J. C. Burant, S. S. Iyengar, 
 J. Tomasi, M. Cossi, J. M. Millam, M. Klene, C. Adamo, R. Cammi, 
 J. W. Ochterski, R. L. Martin, K. Morokuma, O. Farkas, 
 J. B. Foresman, and D. J. Fox, Gaussian, Inc., Wallingford CT, 2016.
 
 ******************************************
 Gaussian 16:  ES64L-G16RevB.01 20-Dec-2017
                 9-Dec-2025 
 ******************************************
 %mem=2GB
 %nprocshare=1
 Will use up to    1 processors via shared memory.
 %chk=geometry_chks/1_4ClBzNeutralRadical.chk
 -----------------
 # opt am1 SCF=XQC
 -----------------
 1/18=20,19=15,26=1,38=1/1,3;
 2/9=110,12=2,17=6,18=5,40=1/2;
 3/5=2,25=1,41=700000,71=1/1,2,3;
 4/35=1/1;
 5/5=2,8=3,13=1,35=1,38=5/2,8;
 6/7=2,8=2,9=2,10=2,28=1/1;
 7//1,2,3,16;
 1/18=20,19=15,26=1/3(2);
 2/9=110/2;
 99//99;
 2/9=110/2;
 3/5=2,25=1,41=700000,71=1,135=20/1,2,3;
 4/5=5,16=3,35=1/1;
 5/5=2,8=3,13=1,35=1,38=5/2,8;
 7//1,2,3,16;
 1/18=20,19=15,26=1/3(-5);
 2/9=110/2;
 6/7=2,8=2,9=2,10=2,19=2,28=1/1;
 99/9=1/99;
 -------------------------------
 Neutral Radical (removed 2) 1_4
 -------------------------------
 Symbolic Z-matrix:
 Charge =  0 Multiplicity = 2
 C                    -3.20928   0.19943   0. 
 C                    -2.0115    0.93555   0. 
 C                    -0.77511   0.2663    0. 
 C                    -0.7365   -1.13907   0. 
 C                    -1.93429  -1.87519   0. 
 C                    -3.17067  -1.20594   0. 
 Cl                   -4.67483  -2.13035   0. 
 H                     0.81614  -1.97951   0. 
 Cl                   -1.8858   -3.64003   0. 
 H                    -2.05998   2.7004    0. 
 H                     0.72905   1.19071   0. 
 
 Add virtual bond connecting atoms H8         and C4         Dist= 3.34D+00.
 Add virtual bond connecting atoms H11        and C3         Dist= 3.34D+00.
 Add virtual bond connecting atoms H10        and C2         Dist= 3.34D+00.

 GradGradGradGradGradGradGradGradGradGradGradGradGradGradGradGradGradGrad
 Berny optimization.
 Initialization pass.
                           ----------------------------
                           !    Initial Parameters    !
                           ! (Angstroms and Degrees)  !
 --------------------------                            --------------------------
 ! Name  Definition              Value          Derivative Info.                !
 --------------------------------------------------------------------------------
 ! R1    R(1,2)                  1.4059         estimate D2E/DX2                !
 ! R2    R(1,6)                  1.4059         estimate D2E/DX2                !
 ! R3    R(2,3)                  1.4059         estimate D2E/DX2                !
 ! R4    R(2,10)                 1.7655         estimate D2E/DX2                !
 ! R5    R(3,4)                  1.4059         estimate D2E/DX2                !
 ! R6    R(3,11)                 1.7655         estimate D2E/DX2                !
 ! R7    R(4,5)                  1.4059         estimate D2E/DX2                !
 ! R8    R(4,8)                  1.7655         estimate D2E/DX2                !
 ! R9    R(5,6)                  1.4059         estimate D2E/DX2                !
 ! R10   R(5,9)                  1.7655         estimate D2E/DX2                !
 ! R11   R(6,7)                  1.7655         estimate D2E/DX2                !
 ! A1    A(2,1,6)              119.9999         estimate D2E/DX2                !
 ! A2    A(1,2,3)              120.0            estimate D2E/DX2                !
 ! A3    A(1,2,10)             120.0001         estimate D2E/DX2                !
 ! A4    A(3,2,10)             119.9999         estimate D2E/DX2                !
 ! A5    A(2,3,4)              120.0001         estimate D2E/DX2                !
 ! A6    A(2,3,11)             120.0            estimate D2E/DX2                !
 ! A7    A(4,3,11)             119.9999         estimate D2E/DX2                !
 ! A8    A(3,4,5)              119.9997         estimate D2E/DX2                !
 ! A9    A(3,4,8)              120.0003         estimate D2E/DX2                !
 ! A10   A(5,4,8)              120.0            estimate D2E/DX2                !
 ! A11   A(4,5,6)              120.0            estimate D2E/DX2                !
 ! A12   A(4,5,9)              119.9996         estimate D2E/DX2                !
 ! A13   A(6,5,9)              120.0004         estimate D2E/DX2                !
 ! A14   A(1,6,5)              120.0003         estimate D2E/DX2                !
 ! A15   A(1,6,7)              119.9999         estimate D2E/DX2                !
 ! A16   A(5,6,7)              119.9998         estimate D2E/DX2                !
 ! D1    D(6,1,2,3)              0.0            estimate D2E/DX2                !
 ! D2    D(6,1,2,10)           180.0            estimate D2E/DX2                !
 ! D3    D(2,1,6,5)              0.0            estimate D2E/DX2                !
 ! D4    D(2,1,6,7)            180.0            estimate D2E/DX2                !
 ! D5    D(1,2,3,4)              0.0            estimate D2E/DX2                !
 ! D6    D(1,2,3,11)           180.0            estimate D2E/DX2                !
 ! D7    D(10,2,3,4)           180.0            estimate D2E/DX2                !
 ! D8    D(10,2,3,11)            0.0            estimate D2E/DX2                !
 ! D9    D(2,3,4,5)              0.0            estimate D2E/DX2                !
 ! D10   D(2,3,4,8)            180.0            estimate D2E/DX2                !
 ! D11   D(11,3,4,5)           180.0            estimate D2E/DX2                !
 ! D12   D(11,3,4,8)             0.0            estimate D2E/DX2                !
 ! D13   D(3,4,5,6)              0.0            estimate D2E/DX2                !
 ! D14   D(3,4,5,9)            180.0            estimate D2E/DX2                !
 ! D15   D(8,4,5,6)            180.0            estimate D2E/DX2                !
 ! D16   D(8,4,5,9)              0.0            estimate D2E/DX2                !
 ! D17   D(4,5,6,1)              0.0            estimate D2E/DX2                !
 ! D18   D(4,5,6,7)            180.0            estimate D2E/DX2                !
 ! D19   D(9,5,6,1)            180.0            estimate D2E/DX2                !
 ! D20   D(9,5,6,7)              0.0            estimate D2E/DX2                !
 --------------------------------------------------------------------------------
 Trust Radius=3.00D-01 FncErr=1.00D-07 GrdErr=1.00D-07 EigMax=2.50D+02 EigMin=1.00D-04
 Number of steps in this run=     57 maximum allowed number of steps=    100.
 GradGradGradGradGradGradGradGradGradGradGradGradGradGradGradGradGradGrad

                          Input orientation:                          
 ---------------------------------------------------------------------
 Center     Atomic      Atomic             Coordinates (Angstroms)
 Number     Number       Type             X           Y           Z
 ---------------------------------------------------------------------
      1          6           0       -3.209280    0.199430    0.000000
      2          6           0       -2.011500    0.935550    0.000000
      3          6           0       -0.775110    0.266300    0.000000
      4          6           0       -0.736500   -1.139070    0.000000
      5          6           0       -1.934290   -1.875190    0.000000
      6          6           0       -3.170670   -1.205940    0.000000
      7         17           0       -4.674830   -2.130350    0.000000
      8          1           0        0.816140   -1.979510    0.000000
      9         17           0       -1.885800   -3.640030    0.000000
     10          1           0       -2.059980    2.700400    0.000000
     11          1           0        0.729050    1.190710    0.000000
 ---------------------------------------------------------------------
                    Distance matrix (angstroms):
                    1          2          3          4          5
     1  C    0.000000
     2  C    1.405898   0.000000
     3  C    2.435088   1.405900   0.000000
     4  C    2.811801   2.435092   1.405900   0.000000
     5  C    2.435087   2.811800   2.435093   1.405907   0.000000
     6  C    1.405900   2.435088   2.811796   2.435088   1.405892
     7  Cl   2.752401   4.061166   4.577308   4.061167   2.752393
     8  H    4.577312   4.061173   2.752406   1.765511   2.752408
     9  Cl   4.061164   4.577306   4.061163   2.752397   1.765506
    10  H    2.752406   1.765516   2.752405   4.061173   4.577316
    11  H    4.061167   2.752403   1.765512   2.752401   4.061173
                    6          7          8          9         10
     6  C    0.000000
     7  Cl   1.765512   0.000000
     8  H    4.061165   5.493041   0.000000
     9  Cl   2.752396   3.171407   3.171404   0.000000
    10  H    4.061173   5.493049   5.493052   6.342822   0.000000
    11  H    4.577308   6.342819   3.171416   5.493040   3.171412
                   11
    11  H    0.000000
 Stoichiometry    C6H3Cl2(2)
 Framework group  CS[SG(C6H3Cl2)]
 Deg. of freedom    19
 Full point group                 CS      NOp   2
 Largest Abelian subgroup         CS      NOp   2
 Largest concise Abelian subgroup C1      NOp   1
                         Standard orientation:                         
 ---------------------------------------------------------------------
 Center     Atomic      Atomic             Coordinates (Angstroms)
 Number     Number       Type             X           Y           Z
 ---------------------------------------------------------------------
      1          6           0        1.203954   -1.449343    0.000000
      2          6           0        2.421498   -0.746395    0.000000
      3          6           0        2.421498    0.659505    0.000000
      4          6           0        1.203954    1.362457    0.000000
      5          6           0       -0.013595    0.659501    0.000000
      6          6           0       -0.013590   -0.746391   -0.000000
      7         17           0       -1.542568   -1.629147   -0.000000
      8          1           0        1.203949    3.127969    0.000000
      9         17           0       -1.542564    1.542260   -0.000000
     10          1           0        3.950481   -1.629151    0.000000
     11          1           0        3.950476    1.542261    0.000000
 ---------------------------------------------------------------------
 Rotational constants (GHZ):           1.9289700           1.3512467           0.7946165
 Standard basis: VSTO-6G (5D, 7F)
 There are    27 symmetry adapted cartesian basis functions of A'  symmetry.
 There are     8 symmetry adapted cartesian basis functions of A"  symmetry.
 There are    27 symmetry adapted basis functions of A'  symmetry.
 There are     8 symmetry adapted basis functions of A"  symmetry.
    35 basis functions,   210 primitive gaussians,    35 cartesian basis functions
    21 alpha electrons       20 beta electrons
       nuclear repulsion energy       192.9561108183 Hartrees.
 Integral buffers will be    131072 words long.
 Regular integral format.
 Two-electron integral symmetry is turned off.
 Do NDO integrals.
 One-electron integrals computed using PRISM.
 NBasis=    35 RedAO= T EigKep=  1.00D+00  NBF=    27     8
 NBsUse=    35 1.00D-06 EigRej= -1.00D+00 NBFU=    27     8
 Simple Huckel Guess.
 Initial guess orbital symmetries:
 Alpha Orbitals:
       Occupied  (A') (A') (A') (A') (A') (A') (A') (A') (A') (A")
                 (A') (A') (A') (A") (A") (A') (A') (A") (A') (A")
                 (A')
       Virtual   (A') (A") (A") (A') (A') (A") (A') (A') (A') (A')
                 (A') (A') (A') (A')
 Beta  Orbitals:
       Occupied  (A') (A') (A') (A') (A') (A') (A') (A') (A') (A")
                 (A') (A') (A') (A") (A") (A') (A') (A") (A') (A")
       Virtual   (A') (A') (A") (A") (A') (A') (A") (A') (A') (A')
                 (A') (A') (A') (A') (A')
 The electronic state of the initial guess is 2-A'.
 Initial guess <Sx>= 0.0000 <Sy>= 0.0000 <Sz>= 0.5000 <S**2>= 0.7500 S= 0.5000
 Keep J ints in memory in canonical form, NReq=862793.
 Overlap will be assumed to be unity.
 Requested convergence on RMS density matrix=1.00D-08 within  32 cycles.
 Requested convergence on MAX density matrix=1.00D-06.
 Requested convergence on             energy=1.00D-06.
 No special actions if energy rises.
 Fock symm off for IB=2 I1=    1 I=   28 J=   23 Cut=1.00D-07 Err=5.73D-03
 Fock matrix is not symmetric: symmetry in diagonalization turned off.
 Rare condition: small coef for last iteration:  0.000D+00
 Rare condition: small coef for last iteration:  0.000D+00
 Rare condition: small coef for last iteration:  0.000D+00
 Rare condition: small coef for last iteration:  0.000D+00
 Rare condition: small coef for last iteration:  0.000D+00
 Rare condition: small coef for last iteration:  0.000D+00
 >>>>>>>>>> Convergence criterion not met.
 SCF Done:  E(UAM1) =  0.480819478156     A.U. after   33 cycles
            NFock= 32  Conv=0.21D-05     -V/T= 1.0053
 <Sx>= 0.0000 <Sy>= 0.0000 <Sz>= 0.5000 <S**2>= 1.0956 S= 0.6600
 <L.S>=  0.00000000000    
 Annihilation of the first spin contaminant:
 S**2 before annihilation     1.0956,   after     0.8509
 Keep J ints in memory in canonical form, NReq=863193.
 LinEq1:  Iter=  0 NonCon=     1 RMS=1.38D-07 Max=2.23D-06 NDo=     1
 AX will form     1 AO Fock derivatives at one time.
 LinEq1:  Iter=  1 NonCon=     1 RMS=1.52D-08 Max=1.39D-07 NDo=     1
 LinEq1:  Iter=  2 NonCon=     1 RMS=4.79D-09 Max=4.00D-08 NDo=     1
 LinEq1:  Iter=  3 NonCon=     1 RMS=1.85D-09 Max=1.18D-08 NDo=     1
 LinEq1:  Iter=  4 NonCon=     1 RMS=4.71D-10 Max=2.98D-09 NDo=     1
 LinEq1:  Iter=  5 NonCon=     1 RMS=9.39D-11 Max=7.03D-10 NDo=     1
 LinEq1:  Iter=  6 NonCon=     1 RMS=2.66D-11 Max=2.15D-10 NDo=     1
 LinEq1:  Iter=  7 NonCon=     0 RMS=8.46D-12 Max=9.14D-11 NDo=     1
 Linear equations converged to 1.403D-11 1.403D-10 after     7 iterations.
 LinEq1:  Iter=  0 NonCon=     1 RMS=1.61D-07 Max=1.74D-06 NDo=     1
 LinEq1:  Iter=  1 NonCon=     1 RMS=6.80D-08 Max=8.59D-07 NDo=     1
 LinEq1:  Iter=  2 NonCon=     1 RMS=2.05D-08 Max=2.58D-07 NDo=     1
 LinEq1:  Iter=  3 NonCon=     1 RMS=5.64D-09 Max=6.09D-08 NDo=     1
 LinEq1:  Iter=  4 NonCon=     1 RMS=1.50D-09 Max=1.12D-08 NDo=     1
 LinEq1:  Iter=  5 NonCon=     1 RMS=4.44D-10 Max=2.98D-09 NDo=     1
 LinEq1:  Iter=  6 NonCon=     1 RMS=1.20D-10 Max=8.00D-10 NDo=     1
 LinEq1:  Iter=  7 NonCon=     1 RMS=2.76D-11 Max=3.23D-10 NDo=     1
 LinEq1:  Iter=  8 NonCon=     0 RMS=9.19D-12 Max=1.08D-10 NDo=     1
 Linear equations converged to 2.221D-11 2.221D-10 after     8 iterations.
 Incorrect curvature in search direction -- initial direction reversed.
     Minimum is close to point 13 DX=  0.00D+00 DF=  0.00D+00 DXR=  0.00D+00 DFR=  0.00D+00 which will be used.
 LinEq1:  Iter=  0 NonCon=     1 RMS=3.48D-04 Max=2.54D-03 NDo=     1
 LinEq1:  Iter=  1 NonCon=     1 RMS=1.40D-04 Max=1.29D-03 NDo=     1
 LinEq1:  Iter=  2 NonCon=     1 RMS=3.95D-05 Max=4.03D-04 NDo=     1
 LinEq1:  Iter=  3 NonCon=     1 RMS=1.09D-05 Max=1.08D-04 NDo=     1
 LinEq1:  Iter=  4 NonCon=     1 RMS=3.52D-06 Max=2.76D-05 NDo=     1
 LinEq1:  Iter=  5 NonCon=     1 RMS=7.76D-07 Max=5.10D-06 NDo=     1
 LinEq1:  Iter=  6 NonCon=     1 RMS=2.42D-07 Max=2.31D-06 NDo=     1
 LinEq1:  Iter=  7 NonCon=     1 RMS=5.96D-08 Max=7.08D-07 NDo=     1
 LinEq1:  Iter=  8 NonCon=     1 RMS=1.62D-08 Max=1.77D-07 NDo=     1
 LinEq1:  Iter=  9 NonCon=     1 RMS=4.33D-09 Max=2.88D-08 NDo=     1
 LinEq1:  Iter= 10 NonCon=     0 RMS=1.19D-09 Max=9.94D-09 NDo=     1
 Linear equations converged to 2.437D-09 2.437D-08 after    10 iterations.
 Incorrect curvature in search direction -- initial direction reversed.
 LinEq1:  Iter=  0 NonCon=     1 RMS=5.03D-04 Max=3.71D-03 NDo=     1
 LinEq1:  Iter=  1 NonCon=     1 RMS=1.89D-04 Max=1.35D-03 NDo=     1
 LinEq1:  Iter=  2 NonCon=     1 RMS=5.02D-05 Max=4.19D-04 NDo=     1
 LinEq1:  Iter=  3 NonCon=     1 RMS=1.30D-05 Max=1.18D-04 NDo=     1
 LinEq1:  Iter=  4 NonCon=     1 RMS=4.01D-06 Max=3.61D-05 NDo=     1
 LinEq1:  Iter=  5 NonCon=     1 RMS=9.03D-07 Max=7.65D-06 NDo=     1
 LinEq1:  Iter=  6 NonCon=     1 RMS=2.80D-07 Max=2.32D-06 NDo=     1
 LinEq1:  Iter=  7 NonCon=     1 RMS=7.14D-08 Max=8.66D-07 NDo=     1
 LinEq1:  Iter=  8 NonCon=     1 RMS=1.86D-08 Max=2.09D-07 NDo=     1
 LinEq1:  Iter=  9 NonCon=     1 RMS=4.44D-09 Max=2.58D-08 NDo=     1
 LinEq1:  Iter= 10 NonCon=     0 RMS=1.19D-09 Max=1.00D-08 NDo=     1
 Linear equations converged to 2.437D-09 2.437D-08 after    10 iterations.
     Accept linear search using points  1 and  2.
 LinEq1:  Iter=  0 NonCon=     1 RMS=1.41D-04 Max=1.16D-03 NDo=     1
 LinEq1:  Iter=  1 NonCon=     1 RMS=4.77D-05 Max=6.35D-04 NDo=     1
 LinEq1:  Iter=  2 NonCon=     1 RMS=1.26D-05 Max=1.20D-04 NDo=     1
 LinEq1:  Iter=  3 NonCon=     1 RMS=3.14D-06 Max=3.84D-05 NDo=     1
 LinEq1:  Iter=  4 NonCon=     1 RMS=9.17D-07 Max=5.95D-06 NDo=     1
 LinEq1:  Iter=  5 NonCon=     1 RMS=2.19D-07 Max=1.45D-06 NDo=     1
 LinEq1:  Iter=  6 NonCon=     1 RMS=5.66D-08 Max=3.56D-07 NDo=     1
 LinEq1:  Iter=  7 NonCon=     1 RMS=1.42D-08 Max=1.62D-07 NDo=     1
 LinEq1:  Iter=  8 NonCon=     1 RMS=3.80D-09 Max=4.04D-08 NDo=     1
 LinEq1:  Iter=  9 NonCon=     0 RMS=8.28D-10 Max=5.52D-09 NDo=     1
 Linear equations converged to 2.437D-09 2.437D-08 after     9 iterations.
     Minimum is close to point  2 DX=  3.85D-02 DF= -2.10D-08 DXR=  3.71D-02 DFR=  1.38D-03 which will be used.
 LinEq1:  Iter=  0 NonCon=     1 RMS=3.97D-06 Max=2.97D-05 NDo=     1
 LinEq1:  Iter=  1 NonCon=     1 RMS=1.52D-06 Max=1.17D-05 NDo=     1
 LinEq1:  Iter=  2 NonCon=     1 RMS=4.16D-07 Max=4.01D-06 NDo=     1
 LinEq1:  Iter=  3 NonCon=     1 RMS=1.09D-07 Max=1.14D-06 NDo=     1
 LinEq1:  Iter=  4 NonCon=     1 RMS=2.74D-08 Max=2.30D-07 NDo=     1
 LinEq1:  Iter=  5 NonCon=     1 RMS=6.20D-09 Max=4.39D-08 NDo=     1
 LinEq1:  Iter=  6 NonCon=     1 RMS=1.70D-09 Max=9.69D-09 NDo=     1
 LinEq1:  Iter=  7 NonCon=     0 RMS=4.28D-10 Max=3.18D-09 NDo=     1
 Linear equations converged to 6.388D-10 6.388D-09 after     7 iterations.
 LinEq1:  Iter=  0 NonCon=     1 RMS=5.72D-07 Max=4.25D-06 NDo=     1
 LinEq1:  Iter=  1 NonCon=     1 RMS=1.95D-07 Max=2.07D-06 NDo=     1
 LinEq1:  Iter=  2 NonCon=     1 RMS=5.43D-08 Max=5.19D-07 NDo=     1
 LinEq1:  Iter=  3 NonCon=     1 RMS=1.29D-08 Max=1.07D-07 NDo=     1
 LinEq1:  Iter=  4 NonCon=     1 RMS=3.50D-09 Max=3.30D-08 NDo=     1
 LinEq1:  Iter=  5 NonCon=     1 RMS=8.57D-10 Max=7.54D-09 NDo=     1
 LinEq1:  Iter=  6 NonCon=     1 RMS=2.18D-10 Max=1.75D-09 NDo=     1
 LinEq1:  Iter=  7 NonCon=     0 RMS=7.44D-11 Max=4.93D-10 NDo=     1
 Linear equations converged to 9.177D-11 9.177D-10 after     7 iterations.
 LinEq1:  Iter=  0 NonCon=     1 RMS=3.61D-08 Max=2.39D-07 NDo=     1
 LinEq1:  Iter=  1 NonCon=     1 RMS=1.46D-08 Max=1.47D-07 NDo=     1
 LinEq1:  Iter=  2 NonCon=     1 RMS=4.00D-09 Max=3.59D-08 NDo=     1
 LinEq1:  Iter=  3 NonCon=     1 RMS=9.94D-10 Max=9.68D-09 NDo=     1
 LinEq1:  Iter=  4 NonCon=     1 RMS=2.59D-10 Max=2.19D-09 NDo=     1
 LinEq1:  Iter=  5 NonCon=     1 RMS=5.72D-11 Max=4.77D-10 NDo=     1
 LinEq1:  Iter=  6 NonCon=     1 RMS=1.51D-11 Max=1.31D-10 NDo=     1
 LinEq1:  Iter=  7 NonCon=     0 RMS=5.01D-12 Max=3.77D-11 NDo=     1
 Linear equations converged to 6.018D-12 6.018D-11 after     7 iterations.
 SCF Done:  E(UAM1) =  0.480413256440     a.u. after    9 cycles
            Convg  =    0.1009D-06                    92 Fock formations.
              S**2 =  1.5621                  -V/T =  1.0053
 <Sx>= 0.0000 <Sy>= 0.0000 <Sz>= 0.5000 <S**2>= 1.5621 S= 0.8462
 <L.S>=  0.00000000000    
 Annihilation of the first spin contaminant:
 S**2 before annihilation     1.5621,   after     1.6350

 **********************************************************************

            Population analysis using the SCF Density.

 **********************************************************************

 Orbital symmetries:
 Alpha Orbitals:
       Occupied  (A') (A') (A') (A') (A') (A') (A') (A') (A') (A')
                 (A") (A') (A") (A') (A") (A') (A') (A') (A') (A")
                 (A")
       Virtual   (A") (A') (A") (A') (A') (A') (A') (A") (A') (A')
                 (A') (A') (A') (A')
 Beta  Orbitals:
       Occupied  (A') (A') (A') (A') (A') (A') (A') (A') (A') (A')
                 (A") (A') (A") (A") (A') (A') (A') (A') (A") (A")
       Virtual   (A') (A') (A") (A') (A") (A') (A') (A') (A") (A')
                 (A') (A') (A') (A') (A')
 The electronic state is 2-A'.
 Alpha  occ. eigenvalues --   -1.42946  -1.36870  -1.35805  -1.11783  -1.11273
 Alpha  occ. eigenvalues --   -0.83019  -0.81973  -0.62585  -0.60181  -0.56539
 Alpha  occ. eigenvalues --   -0.54102  -0.48266  -0.46540  -0.45124  -0.45035
 Alpha  occ. eigenvalues --   -0.44867  -0.43660  -0.40594  -0.37836  -0.37446
 Alpha  occ. eigenvalues --   -0.35647
 Alpha virt. eigenvalues --   -0.00441  -0.00042   0.00730   0.01365   0.02289
 Alpha virt. eigenvalues --    0.03518   0.04894   0.08697   0.13897   0.14258
 Alpha virt. eigenvalues --    0.16046   0.16777   0.17555   0.19407
  Beta  occ. eigenvalues --   -1.42218  -1.36746  -1.35439  -1.11541  -1.08593
  Beta  occ. eigenvalues --   -0.82468  -0.79700  -0.61353  -0.59164  -0.55893
  Beta  occ. eigenvalues --   -0.53809  -0.47483  -0.46455  -0.44775  -0.44547
  Beta  occ. eigenvalues --   -0.43753  -0.41318  -0.39968  -0.36323  -0.35258
  Beta virt. eigenvalues --   -0.03312  -0.01088  -0.00240   0.01387   0.02165
  Beta virt. eigenvalues --    0.02806   0.04525   0.05151   0.09530   0.14501
  Beta virt. eigenvalues --    0.14903   0.17060   0.18003   0.18417   0.20504
          Condensed to atoms (all electrons):
               1          2          3          4          5          6
     1  C    3.988808   0.000000   0.000000   0.000000   0.000000   0.000000
     2  C    0.000000   4.144712   0.000000   0.000000   0.000000   0.000000
     3  C    0.000000   0.000000   4.107908   0.000000   0.000000   0.000000
     4  C    0.000000   0.000000   0.000000   4.139692   0.000000   0.000000
     5  C    0.000000   0.000000   0.000000   0.000000   4.038571   0.000000
     6  C    0.000000   0.000000   0.000000   0.000000   0.000000   4.070138
     7  Cl   0.000000   0.000000   0.000000   0.000000   0.000000   0.000000
     8  H    0.000000   0.000000   0.000000   0.000000   0.000000   0.000000
     9  Cl   0.000000   0.000000   0.000000   0.000000   0.000000   0.000000
    10  H    0.000000   0.000000   0.000000   0.000000   0.000000   0.000000
    11  H    0.000000   0.000000   0.000000   0.000000   0.000000   0.000000
               7          8          9         10         11
     1  C    0.000000   0.000000   0.000000   0.000000   0.000000
     2  C    0.000000   0.000000   0.000000   0.000000   0.000000
     3  C    0.000000   0.000000   0.000000   0.000000   0.000000
     4  C    0.000000   0.000000   0.000000   0.000000   0.000000
     5  C    0.000000   0.000000   0.000000   0.000000   0.000000
     6  C    0.000000   0.000000   0.000000   0.000000   0.000000
     7  Cl   7.003411   0.000000   0.000000   0.000000   0.000000
     8  H    0.000000   0.815140   0.000000   0.000000   0.000000
     9  Cl   0.000000   0.000000   7.015332   0.000000   0.000000
    10  H    0.000000   0.000000   0.000000   0.821483   0.000000
    11  H    0.000000   0.000000   0.000000   0.000000   0.854804
          Atomic-Atomic Spin Densities.
               1          2          3          4          5          6
     1  C    0.653683   0.000000   0.000000   0.000000   0.000000   0.000000
     2  C    0.000000   0.694648   0.000000   0.000000   0.000000   0.000000
     3  C    0.000000   0.000000  -0.802134   0.000000   0.000000   0.000000
     4  C    0.000000   0.000000   0.000000   0.738295   0.000000   0.000000
     5  C    0.000000   0.000000   0.000000   0.000000  -0.360179   0.000000
     6  C    0.000000   0.000000   0.000000   0.000000   0.000000   0.314951
     7  Cl   0.000000   0.000000   0.000000   0.000000   0.000000   0.000000
     8  H    0.000000   0.000000   0.000000   0.000000   0.000000   0.000000
     9  Cl   0.000000   0.000000   0.000000   0.000000   0.000000   0.000000
    10  H    0.000000   0.000000   0.000000   0.000000   0.000000   0.000000
    11  H    0.000000   0.000000   0.000000   0.000000   0.000000   0.000000
               7          8          9         10         11
     1  C    0.000000   0.000000   0.000000   0.000000   0.000000
     2  C    0.000000   0.000000   0.000000   0.000000   0.000000
     3  C    0.000000   0.000000   0.000000   0.000000   0.000000
     4  C    0.000000   0.000000   0.000000   0.000000   0.000000
     5  C    0.000000   0.000000   0.000000   0.000000   0.000000
     6  C    0.000000   0.000000   0.000000   0.000000   0.000000
     7  Cl   0.007011   0.000000   0.000000   0.000000   0.000000
     8  H    0.000000  -0.377937   0.000000   0.000000   0.000000
     9  Cl   0.000000   0.000000   0.013667   0.000000   0.000000
    10  H    0.000000   0.000000   0.000000  -0.370031   0.000000
    11  H    0.000000   0.000000   0.000000   0.000000   0.488027
 Mulliken charges and spin densities:
               1          2
     1  C    0.011192   0.653683
     2  C   -0.144712   0.694648
     3  C   -0.107908  -0.802134
     4  C   -0.139692   0.738295
     5  C   -0.038571  -0.360179
     6  C   -0.070138   0.314951
     7  Cl  -0.003411   0.007011
     8  H    0.184860  -0.377937
     9  Cl  -0.015332   0.013667
    10  H    0.178517  -0.370031
    11  H    0.145196   0.488027
 Sum of Mulliken charges =  -0.00000   1.00000
 Mulliken charges and spin densities with hydrogens summed into heavy atoms:
               1          2
     1  C    0.011192   0.653683
     2  C    0.033805   0.324617
     3  C    0.037288  -0.314108
     4  C    0.045169   0.360358
     5  C   -0.038571  -0.360179
     6  C   -0.070138   0.314951
     7  Cl  -0.003411   0.007011
     9  Cl  -0.015332   0.013667
 Charge=             -0.0000 electrons
 Dipole moment (field-independent basis, Debye):
    X=              3.2299    Y=              1.6550    Z=              0.0000  Tot=              3.6292
 N-N= 1.929561108183D+02 E-N=-2.663559200049D+02  KE=-8.990655901347D+01
 Symmetry A'   KE=-6.948925944587D+01
 Symmetry A"   KE=-2.041729956760D+01
 Symmetry A'   SP= 1.000000000000D+00
 Symmetry A"   SP= 3.330669073875D-16
 Calling FoFJK, ICntrl=      2127 FMM=F ISym2X=1 I1Cent= 0 IOpClX= 1 NMat=1 NMatS=1 NMatT=0.
 ***** Axes restored to original set *****
 -------------------------------------------------------------------
 Center     Atomic                   Forces (Hartrees/Bohr)
 Number     Number              X              Y              Z
 -------------------------------------------------------------------
      1        6           0.069333583   -0.018644670    0.000000000
      2        6          -0.009819301    0.070158344   -0.000000000
      3        6           0.037472392    0.021754045   -0.000000000
      4        6           0.062954239   -0.012487398   -0.000000000
      5        6           0.023093226   -0.024402165   -0.000000000
      6        6          -0.045375090    0.008319532   -0.000000000
      7       17           0.031507403    0.022256110   -0.000000000
      8        1          -0.092047257    0.048904066    0.000000000
      9       17           0.001315635    0.038340349   -0.000000000
     10        1           0.002363365   -0.104616923    0.000000000
     11        1          -0.080798194   -0.049581290    0.000000000
 -------------------------------------------------------------------
 Cartesian Forces:  Max     0.104616923 RMS     0.040146646

 GradGradGradGradGradGradGradGradGradGradGradGradGradGradGradGradGradGrad
 Berny optimization.
 FormGI is forming the generalized inverse of G from B-inverse, IUseBI=4.
 Internal  Forces:  Max     0.104642371 RMS     0.030696475
 Search for a local minimum.
 Step number   1 out of a maximum of   57
 All quantities printed in internal units (Hartrees-Bohrs-Radians)
 Mixed Optimization -- RFO/linear search
 Second derivative matrix not updated -- first step.
 ITU=  0
     Eigenvalues ---    0.02011   0.02011   0.02011   0.02011   0.02011
     Eigenvalues ---    0.02011   0.02011   0.02011   0.06524   0.06524
     Eigenvalues ---    0.06524   0.16000   0.16000   0.16000   0.22076
     Eigenvalues ---    0.23330   0.24905   0.25000   0.25000   0.29033
     Eigenvalues ---    0.29034   0.40955   0.41390   0.44656   0.44657
     Eigenvalues ---    0.44657   0.44657
 RFO step:  Lambda=-1.61007682D-01 EMin= 2.01065791D-02
 Linear search not attempted -- first point.
 Maximum step size (   0.300) exceeded in Quadratic search.
    -- Step size scaled by   0.372
 Iteration  1 RMS(Cart)=  0.04857922 RMS(Int)=  0.00007370
 Iteration  2 RMS(Cart)=  0.00011602 RMS(Int)=  0.00001142
 Iteration  3 RMS(Cart)=  0.00000001 RMS(Int)=  0.00001142
 ClnCor:  largest displacement from symmetrization is 1.18D-09 for atom     8.
 Variable       Old X    -DE/DX   Delta X   Delta X   Delta X     New X
                                 (Linear)    (Quad)   (Total)
    R1        2.65676  -0.05397   0.00000  -0.03351  -0.03349   2.62327
    R2        2.65677  -0.03737   0.00000  -0.02266  -0.02265   2.63412
    R3        2.65677  -0.04699   0.00000  -0.02948  -0.02947   2.62729
    R4        3.33634  -0.10464   0.00000  -0.17227  -0.17227   3.16407
    R5        2.65677  -0.04404   0.00000  -0.02725  -0.02726   2.62951
    R6        3.33633  -0.09480   0.00000  -0.15606  -0.15606   3.18027
    R7        2.65678  -0.02762   0.00000  -0.01651  -0.01653   2.64025
    R8        3.33633  -0.10423   0.00000  -0.17159  -0.17159   3.16474
    R9        2.65675  -0.00596   0.00000  -0.00298  -0.00298   2.65377
   R10        3.33632  -0.03829   0.00000  -0.03160  -0.03160   3.30473
   R11        3.33633  -0.03850   0.00000  -0.03177  -0.03177   3.30456
    A1        2.09439   0.02197   0.00000   0.01954   0.01958   2.11398
    A2        2.09439  -0.00669   0.00000  -0.00832  -0.00830   2.08610
    A3        2.09440   0.00249   0.00000   0.00317   0.00316   2.09756
    A4        2.09439   0.00420   0.00000   0.00515   0.00514   2.09953
    A5        2.09440   0.00512   0.00000   0.00349   0.00349   2.09788
    A6        2.09440  -0.00266   0.00000  -0.00187  -0.00187   2.09253
    A7        2.09439  -0.00245   0.00000  -0.00162  -0.00162   2.09277
    A8        2.09439   0.00618   0.00000   0.00632   0.00629   2.10068
    A9        2.09440  -0.00174   0.00000  -0.00159  -0.00158   2.09282
   A10        2.09440  -0.00444   0.00000  -0.00473  -0.00471   2.08968
   A11        2.09439  -0.00982   0.00000  -0.00724  -0.00727   2.08713
   A12        2.09439   0.00096   0.00000   0.00004   0.00005   2.09444
   A13        2.09440   0.00886   0.00000   0.00720   0.00721   2.10162
   A14        2.09440  -0.01676   0.00000  -0.01379  -0.01379   2.08061
   A15        2.09439   0.00427   0.00000   0.00317   0.00317   2.09756
   A16        2.09439   0.01249   0.00000   0.01062   0.01062   2.10501
    D1        0.00000  -0.00000   0.00000  -0.00000  -0.00000   0.00000
    D2        3.14159   0.00000   0.00000   0.00000   0.00000   3.14159
    D3        0.00000  -0.00000   0.00000   0.00000   0.00000   0.00000
    D4        3.14159  -0.00000   0.00000  -0.00000   0.00000   3.14159
    D5       -0.00000   0.00000   0.00000  -0.00000   0.00000   0.00000
    D6        3.14159   0.00000   0.00000   0.00000   0.00000   3.14159
    D7        3.14159  -0.00000   0.00000  -0.00000   0.00000   3.14159
    D8        0.00000   0.00000   0.00000   0.00000  -0.00000   0.00000
    D9        0.00000  -0.00000   0.00000   0.00000  -0.00000   0.00000
   D10        3.14159   0.00000   0.00000   0.00000   0.00000   3.14159
   D11        3.14159  -0.00000   0.00000  -0.00000   0.00000   3.14159
   D12       -0.00000  -0.00000   0.00000  -0.00000   0.00000   0.00000
   D13       -0.00000  -0.00000   0.00000  -0.00000   0.00000   0.00000
   D14        3.14159   0.00000   0.00000   0.00000   0.00000   3.14159
   D15        3.14159  -0.00000   0.00000  -0.00000   0.00000   3.14159
   D16        0.00000  -0.00000   0.00000  -0.00000  -0.00000   0.00000
   D17        0.00000   0.00000   0.00000   0.00000  -0.00000   0.00000
   D18        3.14159   0.00000   0.00000   0.00000   0.00000   3.14159
   D19        3.14159   0.00000   0.00000  -0.00000   0.00000   3.14159
   D20       -0.00000   0.00000   0.00000  -0.00000   0.00000   0.00000
         Item               Value     Threshold  Converged?
 Maximum Force            0.104642     0.000450     NO 
 RMS     Force            0.030696     0.000300     NO 
 Maximum Displacement     0.182346     0.001800     NO 
 RMS     Displacement     0.048599     0.001200     NO 
 Predicted change in Energy=-5.604657D-02
 GradGradGradGradGradGradGradGradGradGradGradGradGradGradGradGradGradGrad

                          Input orientation:                          
 ---------------------------------------------------------------------
 Center     Atomic      Atomic             Coordinates (Angstroms)
 Number     Number       Type             X           Y           Z
 ---------------------------------------------------------------------
      1          6           0       -3.173418    0.197306   -0.000000
      2          6           0       -1.994528    0.930280   -0.000000
      3          6           0       -0.773913    0.264665   -0.000000
      4          6           0       -0.735165   -1.126270   -0.000000
      5          6           0       -1.920597   -1.865731   -0.000000
      6          6           0       -3.155187   -1.196492    0.000000
      7         17           0       -4.655203   -2.095328    0.000000
      8          1           0        0.739181   -1.920599   -0.000000
      9         17           0       -1.861005   -3.613501    0.000000
     10          1           0       -2.043909    2.603907   -0.000000
     11          1           0        0.660975    1.144062   -0.000000
 ---------------------------------------------------------------------
                    Distance matrix (angstroms):
                    1          2          3          4          5
     1  C    0.000000
     2  C    1.388176   0.000000
     3  C    2.400451   1.390304   0.000000
     4  C    2.774334   2.411512   1.391474   0.000000
     5  C    2.413645   2.796989   2.419395   1.397158   0.000000
     6  C    1.393917   2.422868   2.793823   2.421040   1.404312
     7  Cl   2.729808   4.029081   4.542464   4.038040   2.744227
     8  H    4.449039   3.949769   2.657975   1.674711   2.660344
     9  Cl   4.030469   4.545742   4.027647   2.730171   1.748785
    10  H    2.658480   1.674354   2.661755   3.953103   4.471338
    11  H    3.949547   2.664095   1.682927   2.665260   3.965270
                    6          7          8          9         10
     6  C    0.000000
     7  Cl   1.748700   0.000000
     8  H    3.961115   5.397212   0.000000
     9  Cl   2.741686   3.179999   3.102721   0.000000
    10  H    3.959541   5.376026   5.311943   6.220097   0.000000
    11  H    4.476749   6.225383   3.065658   5.384680   3.073686
                   11
    11  H    0.000000
 Stoichiometry    C6H3Cl2(2)
 Framework group  CS[SG(C6H3Cl2)]
 Deg. of freedom    19
 Full point group                 CS      NOp   2
 Largest Abelian subgroup         CS      NOp   2
 Largest concise Abelian subgroup C1      NOp   1
                         Standard orientation:                         
 ---------------------------------------------------------------------
 Center     Atomic      Atomic             Coordinates (Angstroms)
 Number     Number       Type             X           Y           Z
 ---------------------------------------------------------------------
      1          6           0        1.156281   -1.457824    0.000000
      2          6           0        2.381720   -0.805647    0.000000
      3          6           0        2.418180    0.584179    0.000000
      4          6           0        1.234332    1.315412    0.000000
      5          6           0        0.000000    0.660831   -0.000000
      6          6           0       -0.040335   -0.742903    0.000000
      7         17           0       -1.570340   -1.589683   -0.000000
      8          1           0        1.286718    2.989303   -0.000000
      9         17           0       -1.482088    1.589090   -0.000000
     10          1           0        3.804789   -1.687881    0.000000
     11          1           0        3.898700    1.384369    0.000000
 ---------------------------------------------------------------------
 Rotational constants (GHZ):           1.9405177           1.3798817           0.8064346
 Standard basis: VSTO-6G (5D, 7F)
 There are    27 symmetry adapted cartesian basis functions of A'  symmetry.
 There are     8 symmetry adapted cartesian basis functions of A"  symmetry.
 There are    27 symmetry adapted basis functions of A'  symmetry.
 There are     8 symmetry adapted basis functions of A"  symmetry.
    35 basis functions,   210 primitive gaussians,    35 cartesian basis functions
    21 alpha electrons       20 beta electrons
       nuclear repulsion energy       194.1218934664 Hartrees.
 Integral buffers will be    131072 words long.
 Regular integral format.
 Two-electron integral symmetry is turned off.
 Do NDO integrals.
 One-electron integrals computed using PRISM.
 NBasis=    35 RedAO= T EigKep=  1.00D+00  NBF=    27     8
 NBsUse=    35 1.00D-06 EigRej= -1.00D+00 NBFU=    27     8
 Initial guess from the checkpoint file:  "geometry_chks/1_4ClBzNeutralRadical.chk"
 B after Tr=    -0.000000   -0.000000    0.000000
         Rot=    0.999901    0.000000    0.000000    0.014080 Ang=   1.61 deg.
 Initial guess orbital symmetries:
 Alpha Orbitals:
       Occupied  (A') (A') (A') (A') (A') (A') (A') (A') (A') (A')
                 (A") (A') (A") (A') (A") (A') (A') (A') (A') (A")
                 (A")
       Virtual   (A") (A') (A") (A') (A') (A') (A') (A") (A') (A')
                 (A') (A') (A') (A')
 Beta  Orbitals:
       Occupied  (A') (A') (A') (A') (A') (A') (A') (A') (A') (A')
                 (A") (A') (A") (A") (A') (A') (A') (A') (A") (A")
       Virtual   (A') (A') (A") (A') (A") (A') (A') (A') (A") (A')
                 (A') (A') (A') (A') (A')
 Initial guess <Sx>= 0.0000 <Sy>= 0.0000 <Sz>= 0.5000 <S**2>= 1.5621 S= 0.8462
 Keep J ints in memory in canonical form, NReq=862793.
 Overlap will be assumed to be unity.
 Requested convergence on RMS density matrix=1.00D-08 within  32 cycles.
 Requested convergence on MAX density matrix=1.00D-06.
 Requested convergence on             energy=1.00D-06.
 No special actions if energy rises.
 Fock symm off for IB=2 I1=    1 I=   28 J=   12 Cut=1.00D-07 Err=3.03D-03
 Fock matrix is not symmetric: symmetry in diagonalization turned off.
 Rare condition: small coef for last iteration:  0.000D+00
 Rare condition: small coef for last iteration:  0.000D+00
 Rare condition: small coef for last iteration:  0.000D+00
 Rare condition: small coef for last iteration:  0.000D+00
 Rare condition: small coef for last iteration:  0.000D+00
 Rare condition: small coef for last iteration:  0.000D+00
 Rare condition: small coef for last iteration:  0.000D+00
 Rare condition: small coef for last iteration:  0.000D+00
 Rare condition: small coef for last iteration:  0.000D+00
 Rare condition: small coef for last iteration:  0.000D+00
 >>>>>>>>>> Convergence criterion not met.
 SCF Done:  E(UAM1) =  0.414504535834     A.U. after   33 cycles
            NFock= 32  Conv=0.40D-03     -V/T= 1.0046
 <Sx>= 0.0000 <Sy>= 0.0000 <Sz>= 0.5000 <S**2>= 0.8171 S= 0.5330
 <L.S>=  0.00000000000    
 Annihilation of the first spin contaminant:
 S**2 before annihilation     0.8171,   after     0.7534
 Keep J ints in memory in canonical form, NReq=863193.
 LinEq1:  Iter=  0 NonCon=     1 RMS=4.92D-04 Max=5.87D-03 NDo=     1
 AX will form     1 AO Fock derivatives at one time.
 LinEq1:  Iter=  1 NonCon=     1 RMS=5.44D-05 Max=3.78D-04 NDo=     1
 LinEq1:  Iter=  2 NonCon=     1 RMS=1.43D-05 Max=1.08D-04 NDo=     1
 LinEq1:  Iter=  3 NonCon=     1 RMS=4.34D-06 Max=2.74D-05 NDo=     1
 LinEq1:  Iter=  4 NonCon=     1 RMS=1.13D-06 Max=5.41D-06 NDo=     1
 LinEq1:  Iter=  5 NonCon=     1 RMS=3.10D-07 Max=2.59D-06 NDo=     1
 LinEq1:  Iter=  6 NonCon=     1 RMS=5.58D-08 Max=3.59D-07 NDo=     1
 LinEq1:  Iter=  7 NonCon=     1 RMS=1.16D-08 Max=9.33D-08 NDo=     1
 LinEq1:  Iter=  8 NonCon=     1 RMS=3.11D-09 Max=2.26D-08 NDo=     1
 LinEq1:  Iter=  9 NonCon=     0 RMS=7.65D-10 Max=7.57D-09 NDo=     1
 Linear equations converged to 2.437D-09 2.437D-08 after     9 iterations.
 Incorrect curvature in search direction -- initial direction reversed.
     Minimum is close to point  2 DX= -5.32D-02 DF= -2.30D-05 DXR=  5.62D-02 DFR=  3.17D-03 which will be used.
 LinEq1:  Iter=  0 NonCon=     1 RMS=4.61D-04 Max=4.09D-03 NDo=     1
 LinEq1:  Iter=  1 NonCon=     1 RMS=1.18D-04 Max=7.81D-04 NDo=     1
 LinEq1:  Iter=  2 NonCon=     1 RMS=2.99D-05 Max=2.36D-04 NDo=     1
 LinEq1:  Iter=  3 NonCon=     1 RMS=7.73D-06 Max=6.94D-05 NDo=     1
 LinEq1:  Iter=  4 NonCon=     1 RMS=1.37D-06 Max=7.20D-06 NDo=     1
 LinEq1:  Iter=  5 NonCon=     1 RMS=3.16D-07 Max=2.11D-06 NDo=     1
 LinEq1:  Iter=  6 NonCon=     1 RMS=8.95D-08 Max=8.48D-07 NDo=     1
 LinEq1:  Iter=  7 NonCon=     1 RMS=1.95D-08 Max=1.21D-07 NDo=     1
 LinEq1:  Iter=  8 NonCon=     1 RMS=4.63D-09 Max=2.96D-08 NDo=     1
 LinEq1:  Iter=  9 NonCon=     0 RMS=1.15D-09 Max=6.89D-09 NDo=     1
 Linear equations converged to 2.437D-09 2.437D-08 after     9 iterations.
     Accept linear search using points  1 and  2.
 LinEq1:  Iter=  0 NonCon=     1 RMS=8.38D-05 Max=7.26D-04 NDo=     1
 LinEq1:  Iter=  1 NonCon=     1 RMS=1.42D-05 Max=1.03D-04 NDo=     1
 LinEq1:  Iter=  2 NonCon=     1 RMS=3.54D-06 Max=3.05D-05 NDo=     1
 LinEq1:  Iter=  3 NonCon=     1 RMS=9.21D-07 Max=6.73D-06 NDo=     1
 LinEq1:  Iter=  4 NonCon=     1 RMS=2.46D-07 Max=1.59D-06 NDo=     1
 LinEq1:  Iter=  5 NonCon=     1 RMS=5.03D-08 Max=4.64D-07 NDo=     1
 LinEq1:  Iter=  6 NonCon=     1 RMS=1.23D-08 Max=1.01D-07 NDo=     1
 LinEq1:  Iter=  7 NonCon=     1 RMS=3.40D-09 Max=2.35D-08 NDo=     1
 LinEq1:  Iter=  8 NonCon=     0 RMS=6.88D-10 Max=5.82D-09 NDo=     1
 Linear equations converged to 2.437D-09 2.437D-08 after     8 iterations.
     Minimum is close to point  2 DX=  1.18D-03 DF= -6.05D-12 DXR=  1.18D-03 DFR=  1.39D-06 which will be used.
 LinEq1:  Iter=  0 NonCon=     1 RMS=8.20D-07 Max=7.55D-06 NDo=     1
 LinEq1:  Iter=  1 NonCon=     1 RMS=2.35D-07 Max=1.33D-06 NDo=     1
 LinEq1:  Iter=  2 NonCon=     1 RMS=6.26D-08 Max=4.10D-07 NDo=     1
 LinEq1:  Iter=  3 NonCon=     1 RMS=1.67D-08 Max=1.68D-07 NDo=     1
 LinEq1:  Iter=  4 NonCon=     1 RMS=3.43D-09 Max=2.14D-08 NDo=     1
 LinEq1:  Iter=  5 NonCon=     1 RMS=7.17D-10 Max=5.38D-09 NDo=     1
 LinEq1:  Iter=  6 NonCon=     1 RMS=1.96D-10 Max=1.52D-09 NDo=     1
 LinEq1:  Iter=  7 NonCon=     0 RMS=5.18D-11 Max=3.62D-10 NDo=     1
 Linear equations converged to 1.407D-10 1.407D-09 after     7 iterations.
 LinEq1:  Iter=  0 NonCon=     1 RMS=3.23D-08 Max=2.26D-07 NDo=     1
 LinEq1:  Iter=  1 NonCon=     1 RMS=1.14D-08 Max=6.82D-08 NDo=     1
 LinEq1:  Iter=  2 NonCon=     1 RMS=2.72D-09 Max=1.79D-08 NDo=     1
 LinEq1:  Iter=  3 NonCon=     1 RMS=6.54D-10 Max=4.95D-09 NDo=     1
 LinEq1:  Iter=  4 NonCon=     1 RMS=1.31D-10 Max=1.59D-09 NDo=     1
 LinEq1:  Iter=  5 NonCon=     1 RMS=3.30D-11 Max=1.75D-10 NDo=     1
 LinEq1:  Iter=  6 NonCon=     1 RMS=8.71D-12 Max=4.15D-11 NDo=     1
 LinEq1:  Iter=  7 NonCon=     0 RMS=2.35D-12 Max=2.24D-11 NDo=     1
 Linear equations converged to 5.218D-12 5.218D-11 after     7 iterations.
 SCF Done:  E(UAM1) =  0.406468244446     a.u. after    6 cycles
            Convg  =    0.2610D-07                    49 Fock formations.
              S**2 =  1.5124                  -V/T =  1.0045
 <Sx>= 0.0000 <Sy>= 0.0000 <Sz>= 0.5000 <S**2>= 1.5124 S= 0.8276
 <L.S>=  0.00000000000    
 Annihilation of the first spin contaminant:
 S**2 before annihilation     1.5124,   after     1.4694
 Calling FoFJK, ICntrl=      2127 FMM=F ISym2X=1 I1Cent= 0 IOpClX= 1 NMat=1 NMatS=1 NMatT=0.
 ***** Axes restored to original set *****
 -------------------------------------------------------------------
 Center     Atomic                   Forces (Hartrees/Bohr)
 Number     Number              X              Y              Z
 -------------------------------------------------------------------
      1        6           0.046172741   -0.006176688    0.000000000
      2        6          -0.014086273    0.099883068   -0.000000000
      3        6           0.082926498    0.048512440   -0.000000000
      4        6           0.090686099   -0.033525135   -0.000000000
      5        6           0.015734437   -0.030352203   -0.000000000
      6        6          -0.047740778   -0.004691927   -0.000000000
      7       17           0.025927701    0.017430249   -0.000000000
      8        1          -0.102666373    0.054261158    0.000000000
      9       17           0.000511419    0.030903782   -0.000000000
     10        1           0.002552564   -0.115074705    0.000000000
     11        1          -0.100018036   -0.061170039    0.000000000
 -------------------------------------------------------------------
 Cartesian Forces:  Max     0.115074705 RMS     0.048242889

 GradGradGradGradGradGradGradGradGradGradGradGradGradGradGradGradGradGrad
 Berny optimization.
 Using GEDIIS/GDIIS optimizer.
 FormGI is forming the generalized inverse of G from B-inverse, IUseBI=4.
 Internal  Forces:  Max     0.117240647 RMS     0.031055164
 Search for a local minimum.
 Step number   2 out of a maximum of   57
 All quantities printed in internal units (Hartrees-Bohrs-Radians)
 Mixed Optimization -- RFO/linear search
 Update second derivatives using D2CorX and points    1    2
 DE= -7.39D-02 DEPred=-5.60D-02 R= 1.32D+00
 TightC=F SS=  1.41D+00  RLast= 3.00D-01 DXNew= 5.0454D-01 9.0000D-01
 Trust test= 1.32D+00 RLast= 3.00D-01 DXMaxT set to 5.05D-01
 ITU=  1  0
 Use linear search instead of GDIIS.
     Eigenvalues ---   -0.76021   0.01415   0.02011   0.02011   0.02011
     Eigenvalues ---    0.02011   0.02011   0.02011   0.02011   0.02011
     Eigenvalues ---    0.06524   0.07700   0.15998   0.16000   0.16001
     Eigenvalues ---    0.22136   0.23654   0.24822   0.25000   0.25081
     Eigenvalues ---    0.29034   0.29837   0.40980   0.41247   0.44592
     Eigenvalues ---    0.44656   0.44657
 RFO step:  Lambda=-7.64515003D-01 EMin=-7.60205842D-01
 I=     1 Eig=   -7.60D-01 Dot1=  3.32D-02
 I=     1 Stepn=  6.00D-01 RXN=   6.00D-01 EDone=F
 Mixed    1 eigenvectors in step.  Raw Step.Grad=  3.32D-02.
 RFO eigenvector is Hessian eigenvector with negative curvature.
 Taking step of  6.00D-01 in eigenvector direction(s).  Step.Grad=  3.03D-02.
 Skip linear search -- no minimum in search direction.
 Maximum step size (   0.505) exceeded in Quadratic search.
    -- Step size not scaled.
 Iteration  1 RMS(Cart)=  0.08347614 RMS(Int)=  0.01186493
 Iteration  2 RMS(Cart)=  0.01007677 RMS(Int)=  0.00042667
 Iteration  3 RMS(Cart)=  0.00002445 RMS(Int)=  0.00042624
 Iteration  4 RMS(Cart)=  0.00000001 RMS(Int)=  0.00042624
 ClnCor:  largest displacement from symmetrization is 1.24D-08 for atom     9.
 Variable       Old X    -DE/DX   Delta X   Delta X   Delta X     New X
                                 (Linear)    (Quad)   (Total)
    R1        2.62327  -0.03106   0.00000   0.21071   0.21100   2.83427
    R2        2.63412  -0.01488   0.00000   0.20138   0.20099   2.83511
    R3        2.62729  -0.02054   0.00000   0.24029   0.24095   2.86824
    R4        3.16407  -0.11510   0.00000  -0.11501  -0.11501   3.04906
    R5        2.62951  -0.01941   0.00000   0.22370   0.22407   2.85358
    R6        3.18027  -0.11724   0.00000  -0.26655  -0.26655   2.91372
    R7        2.64025  -0.00717   0.00000   0.18224   0.18194   2.82219
    R8        3.16474  -0.11612   0.00000  -0.13302  -0.13302   3.03172
    R9        2.65377   0.00516   0.00000   0.09541   0.09474   2.74851
   R10        3.30473  -0.03087   0.00000   0.08320   0.08320   3.38792
   R11        3.30456  -0.03120   0.00000   0.08203   0.08203   3.38659
    A1        2.11398   0.01907   0.00000  -0.03675  -0.03691   2.07706
    A2        2.08610  -0.00443   0.00000   0.02766   0.02870   2.11480
    A3        2.09756   0.00088   0.00000  -0.01904  -0.01956   2.07800
    A4        2.09953   0.00355   0.00000  -0.00863  -0.00914   2.09038
    A5        2.09788   0.00086   0.00000  -0.04299  -0.04183   2.05606
    A6        2.09253  -0.00060   0.00000   0.02077   0.02019   2.11272
    A7        2.09277  -0.00026   0.00000   0.02222   0.02164   2.11441
    A8        2.10068   0.00544   0.00000  -0.00809  -0.00798   2.09270
    A9        2.09282  -0.00125   0.00000   0.00501   0.00496   2.09778
   A10        2.08968  -0.00419   0.00000   0.00307   0.00302   2.09270
   A11        2.08713  -0.00607   0.00000   0.03921   0.03819   2.12532
   A12        2.09444   0.00045   0.00000  -0.00460  -0.00409   2.09035
   A13        2.10162   0.00562   0.00000  -0.03461  -0.03410   2.06752
   A14        2.08061  -0.01487   0.00000   0.02095   0.01982   2.10043
   A15        2.09756   0.00475   0.00000   0.00519   0.00576   2.10332
   A16        2.10501   0.01012   0.00000  -0.02615  -0.02558   2.07943
    D1        0.00000   0.00000   0.00000   0.00000   0.00000   0.00000
    D2        3.14159   0.00000   0.00000   0.00000   0.00000   3.14159
    D3       -0.00000   0.00000   0.00000   0.00000   0.00000   0.00000
    D4        3.14159  -0.00000   0.00000  -0.00000   0.00000   3.14159
    D5        0.00000  -0.00000   0.00000  -0.00000  -0.00000   0.00000
    D6        3.14159   0.00000   0.00000  -0.00000   0.00000   3.14159
    D7        3.14159  -0.00000   0.00000  -0.00000   0.00000   3.14159
    D8       -0.00000  -0.00000   0.00000  -0.00000   0.00000   0.00000
    D9       -0.00000   0.00000   0.00000   0.00000   0.00000   0.00000
   D10        3.14159   0.00000   0.00000   0.00000   0.00000   3.14159
   D11        3.14159  -0.00000   0.00000   0.00000   0.00000   3.14159
   D12        0.00000   0.00000   0.00000   0.00000   0.00000   0.00000
   D13        0.00000  -0.00000   0.00000   0.00000   0.00000   0.00000
   D14        3.14159   0.00000   0.00000   0.00000   0.00000   3.14159
   D15        3.14159  -0.00000   0.00000   0.00000   0.00000   3.14159
   D16       -0.00000  -0.00000   0.00000   0.00000   0.00000   0.00000
   D17       -0.00000  -0.00000   0.00000  -0.00000   0.00000   0.00000
   D18        3.14159   0.00000   0.00000   0.00000   0.00000   3.14159
   D19        3.14159  -0.00000   0.00000  -0.00000   0.00000   3.14159
   D20        0.00000   0.00000   0.00000  -0.00000  -0.00000   0.00000
         Item               Value     Threshold  Converged?
 Maximum Force            0.117241     0.000450     NO 
 RMS     Force            0.031055     0.000300     NO 
 Maximum Displacement     0.248073     0.001800     NO 
 RMS     Displacement     0.088025     0.001200     NO 
 Predicted change in Energy=-1.700083D-01
 GradGradGradGradGradGradGradGradGradGradGradGradGradGradGradGradGradGrad

                          Input orientation:                          
 ---------------------------------------------------------------------
 Center     Atomic      Atomic             Coordinates (Angstroms)
 Number     Number       Type             X           Y           Z
 ---------------------------------------------------------------------
      1          6           0       -3.270009    0.269331   -0.000000
      2          6           0       -1.989523    1.050257   -0.000000
      3          6           0       -0.642638    0.350508   -0.000000
      4          6           0       -0.633412   -1.159513   -0.000000
      5          6           0       -1.923458   -1.911932   -0.000000
      6          6           0       -3.207952   -1.229662    0.000000
      7         17           0       -4.712944   -2.202619    0.000000
      8          1           0        0.758147   -1.957888   -0.000000
      9         17           0       -1.908297   -3.704678    0.000000
     10          1           0       -2.054751    2.662429   -0.000000
     11          1           0        0.672069    1.156068   -0.000000
 ---------------------------------------------------------------------
                    Distance matrix (angstroms):
                    1          2          3          4          5
     1  C    0.000000
     2  C    1.499830   0.000000
     3  C    2.628625   1.517810   0.000000
     4  C    2.998873   2.592705   1.510049   0.000000
     5  C    2.563417   2.962925   2.599833   1.493436   0.000000
     6  C    1.500277   2.585073   3.012935   2.575496   1.454447
     7  Cl   2.862272   4.242432   4.804773   4.210778   2.804591
     8  H    4.602884   4.074141   2.700165   1.604319   2.681999
     9  Cl   4.200834   4.755629   4.248108   2.846611   1.792810
    10  H    2.683984   1.613491   2.709067   4.077677   4.576245
    11  H    4.040579   2.663694   1.541876   2.658232   4.018629
                    6          7          8          9         10
     6  C    0.000000
     7  Cl   1.792106   0.000000
     8  H    4.032401   5.476562   0.000000
     9  Cl   2.795497   3.181544   3.187664   0.000000
    10  H    4.059341   5.543887   5.409226   6.368791   0.000000
    11  H    4.554808   6.346585   3.115145   5.503193   3.115232
                   11
    11  H    0.000000
 Stoichiometry    C6H3Cl2(2)
 Framework group  CS[SG(C6H3Cl2)]
 Deg. of freedom    19
 Full point group                 CS      NOp   2
 Largest Abelian subgroup         CS      NOp   2
 Largest concise Abelian subgroup C1      NOp   1
                         Standard orientation:                         
 ---------------------------------------------------------------------
 Center     Atomic      Atomic             Coordinates (Angstroms)
 Number     Number       Type             X           Y           Z
 ---------------------------------------------------------------------
      1          6           0        1.195029   -1.587585    0.000000
      2          6           0        2.518100   -0.881205   -0.000000
      3          6           0        2.599430    0.634424   -0.000000
      4          6           0        1.303370    1.409330   -0.000000
      5          6           0        0.000000    0.680236   -0.000000
      6          6           0       -0.064698   -0.772772    0.000000
      7         17           0       -1.667215   -1.575008    0.000000
      8          1           0        1.322433    3.013535   -0.000000
      9         17           0       -1.536587    1.603853   -0.000000
     10          1           0        3.873709   -1.756235   -0.000000
     11          1           0        3.961102    1.357770   -0.000000
 ---------------------------------------------------------------------
 Rotational constants (GHZ):           1.8599983           1.2441832           0.7455036
 Standard basis: VSTO-6G (5D, 7F)
 There are    27 symmetry adapted cartesian basis functions of A'  symmetry.
 There are     8 symmetry adapted cartesian basis functions of A"  symmetry.
 There are    27 symmetry adapted basis functions of A'  symmetry.
 There are     8 symmetry adapted basis functions of A"  symmetry.
    35 basis functions,   210 primitive gaussians,    35 cartesian basis functions
    21 alpha electrons       20 beta electrons
       nuclear repulsion energy       189.1802391798 Hartrees.
 Integral buffers will be    131072 words long.
 Regular integral format.
 Two-electron integral symmetry is turned off.
 Do NDO integrals.
 One-electron integrals computed using PRISM.
 NBasis=    35 RedAO= T EigKep=  1.00D+00  NBF=    27     8
 NBsUse=    35 1.00D-06 EigRej= -1.00D+00 NBFU=    27     8
 Initial guess from the checkpoint file:  "geometry_chks/1_4ClBzNeutralRadical.chk"
 B after Tr=    -0.000000    0.000000   -0.000000
         Rot=    0.999989    0.000000   -0.000000    0.004588 Ang=   0.53 deg.
 Initial guess orbital symmetries:
 Alpha Orbitals:
       Occupied  (A') (A') (A') (A') (A') (A') (A') (A') (A') (A')
                 (A") (A') (A") (A') (A") (A') (A') (A') (A') (A")
                 (A")
       Virtual   (A') (A") (A") (A') (A') (A') (A') (A") (A') (A')
                 (A') (A') (A') (A')
 Beta  Orbitals:
       Occupied  (A') (A') (A') (A') (A') (A') (A') (A') (A') (A')
                 (A") (A') (A") (A") (A') (A') (A') (A') (A") (A")
       Virtual   (A') (A") (A') (A') (A") (A') (A') (A') (A") (A')
                 (A') (A') (A') (A') (A')
 Initial guess <Sx>= 0.0000 <Sy>= 0.0000 <Sz>= 0.5000 <S**2>= 1.5124 S= 0.8276
 Keep J ints in memory in canonical form, NReq=862793.
 Overlap will be assumed to be unity.
 Requested convergence on RMS density matrix=1.00D-08 within  32 cycles.
 Requested convergence on MAX density matrix=1.00D-06.
 Requested convergence on             energy=1.00D-06.
 No special actions if energy rises.
 Fock symm off for IB=2 I1=    1 I=   28 J=   12 Cut=1.00D-07 Err=3.81D-03
 Fock matrix is not symmetric: symmetry in diagonalization turned off.
 SCF Done:  E(UAM1) =  0.438179064981     A.U. after   23 cycles
            NFock= 22  Conv=0.88D-08     -V/T= 1.0049
 <Sx>= 0.0000 <Sy>= 0.0000 <Sz>= 0.5000 <S**2>= 1.9785 S= 0.9928
 <L.S>=  0.00000000000    
 Annihilation of the first spin contaminant:
 S**2 before annihilation     1.9785,   after     2.5389
 QCSCF skips out because SCF is already converged.
 Calling FoFJK, ICntrl=      2127 FMM=F ISym2X=1 I1Cent= 0 IOpClX= 1 NMat=1 NMatS=1 NMatT=0.
 ***** Axes restored to original set *****
 -------------------------------------------------------------------
 Center     Atomic                   Forces (Hartrees/Bohr)
 Number     Number              X              Y              Z
 -------------------------------------------------------------------
      1        6           0.133780865   -0.053973206   -0.000000000
      2        6          -0.004771779    0.011832833   -0.000000000
      3        6          -0.011034373   -0.005878414   -0.000000000
      4        6           0.015152450    0.013671896    0.000000000
      5        6           0.027555476    0.029782536   -0.000000000
      6        6          -0.002032458    0.041402056   -0.000000000
      7       17           0.045899308    0.034511024    0.000000000
      8        1          -0.106253065    0.059922837    0.000000000
      9       17           0.003725999    0.055623315    0.000000000
     10        1           0.004664135   -0.121977485    0.000000000
     11        1          -0.106686557   -0.064917392    0.000000000
 -------------------------------------------------------------------
 Cartesian Forces:  Max     0.133780865 RMS     0.048208264

 GradGradGradGradGradGradGradGradGradGradGradGradGradGradGradGradGradGrad
 Berny optimization.
 Using GEDIIS/GDIIS optimizer.
 FormGI is forming the generalized inverse of G from B-inverse, IUseBI=4.
 Internal  Forces:  Max     0.129693678 RMS     0.052541040
 Search for a local minimum.
 Step number   3 out of a maximum of   57
 All quantities printed in internal units (Hartrees-Bohrs-Radians)
 Mixed Optimization -- RFO/linear search
 Update second derivatives using D2CorX and points    1    3    2
 ITU=  0  1  0
 Use linear search instead of GDIIS.
     Eigenvalues ---    0.01079   0.02011   0.02011   0.02011   0.02011
     Eigenvalues ---    0.02011   0.02011   0.02011   0.02011   0.06524
     Eigenvalues ---    0.06940   0.15998   0.15999   0.16001   0.21981
     Eigenvalues ---    0.22443   0.24723   0.24999   0.25016   0.28014
     Eigenvalues ---    0.29034   0.38155   0.41697   0.44300   0.44603
     Eigenvalues ---    0.44656   0.58262
 RFO step:  Lambda=-2.02565651D-01 EMin= 1.07877660D-02
 Quartic linear search produced a step of -0.77812.
 Maximum step size (   0.505) exceeded in Quadratic search.
    -- Step size scaled by   0.539
 Iteration  1 RMS(Cart)=  0.11769748 RMS(Int)=  0.00307822
 Iteration  2 RMS(Cart)=  0.00408955 RMS(Int)=  0.00014313
 Iteration  3 RMS(Cart)=  0.00000804 RMS(Int)=  0.00014298
 Iteration  4 RMS(Cart)=  0.00000000 RMS(Int)=  0.00014298
 ClnCor:  largest displacement from symmetrization is 6.25D-09 for atom     9.
 Variable       Old X    -DE/DX   Delta X   Delta X   Delta X     New X
                                 (Linear)    (Quad)   (Total)
    R1        2.83427  -0.12969  -0.16418  -0.04540  -0.20937   2.62489
    R2        2.83511  -0.11345  -0.15640  -0.01803  -0.17424   2.66087
    R3        2.86824  -0.12652  -0.18749  -0.02904  -0.21651   2.65174
    R4        3.04906  -0.12207   0.08950  -0.29040  -0.20090   2.84816
    R5        2.85358  -0.12209  -0.17436  -0.02615  -0.20069   2.65289
    R6        2.91372  -0.12488   0.20741  -0.26430  -0.05690   2.85682
    R7        2.82219  -0.10469  -0.14157  -0.00492  -0.14670   2.67549
    R8        3.03172  -0.12198   0.10351  -0.28966  -0.18615   2.84557
    R9        2.74851  -0.07173  -0.07372   0.01484  -0.05891   2.68960
   R10        3.38792  -0.05559  -0.06474  -0.06355  -0.12828   3.25964
   R11        3.38659  -0.05728  -0.06383  -0.06396  -0.12778   3.25881
    A1        2.07706   0.01975   0.02872   0.04182   0.07108   2.14814
    A2        2.11480  -0.00635  -0.02233  -0.01611  -0.03824   2.07656
    A3        2.07800   0.00276   0.01522   0.00540   0.02051   2.09851
    A4        2.09038   0.00359   0.00712   0.01072   0.01773   2.10811
    A5        2.05606   0.00813   0.03255   0.00218   0.03453   2.09059
    A6        2.11272  -0.00463  -0.01571  -0.00135  -0.01696   2.09576
    A7        2.11441  -0.00350  -0.01684  -0.00083  -0.01758   2.09684
    A8        2.09270   0.00382   0.00621   0.01393   0.01971   2.11241
    A9        2.09778  -0.00055  -0.00386  -0.00354  -0.00719   2.09060
   A10        2.09270  -0.00327  -0.00235  -0.01039  -0.01252   2.08018
   A11        2.12532  -0.00923  -0.02972  -0.01194  -0.04192   2.08339
   A12        2.09035  -0.00249   0.00318  -0.00015   0.00317   2.09352
   A13        2.06752   0.01172   0.02654   0.01209   0.03876   2.10627
   A14        2.10043  -0.01612  -0.01542  -0.02987  -0.04516   2.05528
   A15        2.10332   0.00118  -0.00448   0.00851   0.00396   2.10728
   A16        2.07943   0.01494   0.01991   0.02136   0.04120   2.12063
    D1        0.00000  -0.00000   0.00000  -0.00000   0.00000   0.00000
    D2        3.14159   0.00000   0.00000   0.00000   0.00000   3.14159
    D3       -0.00000   0.00000   0.00000  -0.00000   0.00000   0.00000
    D4        3.14159  -0.00000   0.00000  -0.00000   0.00000   3.14159
    D5       -0.00000  -0.00000   0.00000   0.00000   0.00000   0.00000
    D6        3.14159   0.00000   0.00000   0.00000   0.00000   3.14159
    D7        3.14159  -0.00000   0.00000  -0.00000   0.00000   3.14159
    D8       -0.00000   0.00000   0.00000   0.00000   0.00000   0.00000
    D9       -0.00000   0.00000   0.00000  -0.00000   0.00000   0.00000
   D10        3.14159   0.00000   0.00000   0.00000   0.00000   3.14159
   D11        3.14159  -0.00000   0.00000  -0.00000   0.00000   3.14159
   D12        0.00000  -0.00000   0.00000  -0.00000   0.00000   0.00000
   D13       -0.00000  -0.00000   0.00000  -0.00000   0.00000   0.00000
   D14        3.14159   0.00000   0.00000  -0.00000   0.00000   3.14159
   D15        3.14159  -0.00000   0.00000  -0.00000   0.00000   3.14159
   D16        0.00000   0.00000   0.00000  -0.00000  -0.00000   0.00000
   D17        0.00000   0.00000   0.00000   0.00000  -0.00000   0.00000
   D18        3.14159   0.00000   0.00000   0.00000   0.00000   3.14159
   D19        3.14159  -0.00000   0.00000   0.00000   0.00000   3.14159
   D20       -0.00000   0.00000   0.00000   0.00000   0.00000   0.00000
         Item               Value     Threshold  Converged?
 Maximum Force            0.129694     0.000450     NO 
 RMS     Force            0.052541     0.000300     NO 
 Maximum Displacement     0.374537     0.001800     NO 
 RMS     Displacement     0.120747     0.001200     NO 
 Predicted change in Energy=-1.051948D-01
 GradGradGradGradGradGradGradGradGradGradGradGradGradGradGradGradGradGrad

                          Input orientation:                          
 ---------------------------------------------------------------------
 Center     Atomic      Atomic             Coordinates (Angstroms)
 Number     Number       Type             X           Y           Z
 ---------------------------------------------------------------------
      1          6           0       -3.137673    0.212227   -0.000000
      2          6           0       -1.965956    0.958213   -0.000000
      3          6           0       -0.733218    0.287813   -0.000000
      4          6           0       -0.702757   -1.115703   -0.000000
      5          6           0       -1.899809   -1.871728   -0.000000
      6          6           0       -3.152323   -1.195770    0.000000
      7         17           0       -4.643629   -2.061713    0.000000
      8          1           0        0.620086   -1.835118   -0.000000
      9         17           0       -1.829816   -3.595234    0.000000
     10          1           0       -2.025058    2.464233   -0.000000
     11          1           0        0.557382    1.075081   -0.000000
 ---------------------------------------------------------------------
                    Distance matrix (angstroms):
                    1          2          3          4          5
     1  C    0.000000
     2  C    1.389034   0.000000
     3  C    2.405643   1.403239   0.000000
     4  C    2.773484   2.428333   1.403847   0.000000
     5  C    2.423876   2.830714   2.454497   1.415806   0.000000
     6  C    1.408073   2.459087   2.837796   2.450874   1.423274
     7  Cl   2.727399   4.036073   4.561972   4.052827   2.750389
     8  H    4.279296   3.806614   2.517591   1.505812   2.520161
     9  Cl   4.025822   4.555481   4.034920   2.723661   1.724926
    10  H    2.511860   1.507179   2.530939   3.816336   4.337769
    11  H    3.794462   2.526043   1.511766   2.527348   3.836857
                    6          7          8          9         10
     6  C    0.000000
     7  Cl   1.724486   0.000000
     8  H    3.826203   5.268590   0.000000
     9  Cl   2.739790   3.204564   3.016625   0.000000
    10  H    3.829666   5.228872   5.047891   6.062611   0.000000
    11  H    4.349560   6.073713   2.910874   5.245050   2.932360
                   11
    11  H    0.000000
 Stoichiometry    C6H3Cl2(2)
 Framework group  CS[SG(C6H3Cl2)]
 Deg. of freedom    19
 Full point group                 CS      NOp   2
 Largest Abelian subgroup         CS      NOp   2
 Largest concise Abelian subgroup C1      NOp   1
                         Standard orientation:                         
 ---------------------------------------------------------------------
 Center     Atomic      Atomic             Coordinates (Angstroms)
 Number     Number       Type             X           Y           Z
 ---------------------------------------------------------------------
      1          6           0        1.121445   -1.476252   -0.000000
      2          6           0        2.372164   -0.872003   -0.000000
      3          6           0        2.450296    0.529059    0.000000
      4          6           0        1.272582    1.293111    0.000000
      5          6           0        0.000000    0.672594    0.000000
      6          6           0       -0.083805   -0.748211   -0.000000
      7         17           0       -1.604632   -1.561192   -0.000000
      8          1           0        1.356414    2.796588    0.000000
      9         17           0       -1.429084    1.638560    0.000000
     10          1           0        3.621997   -1.714325   -0.000000
     11          1           0        3.798651    1.212710    0.000000
 ---------------------------------------------------------------------
 Rotational constants (GHZ):           1.9270895           1.3871517           0.8065694
 Standard basis: VSTO-6G (5D, 7F)
 There are    27 symmetry adapted cartesian basis functions of A'  symmetry.
 There are     8 symmetry adapted cartesian basis functions of A"  symmetry.
 There are    27 symmetry adapted basis functions of A'  symmetry.
 There are     8 symmetry adapted basis functions of A"  symmetry.
    35 basis functions,   210 primitive gaussians,    35 cartesian basis functions
    21 alpha electrons       20 beta electrons
       nuclear repulsion energy       194.5516157804 Hartrees.
 Integral buffers will be    131072 words long.
 Regular integral format.
 Two-electron integral symmetry is turned off.
 Do NDO integrals.
 One-electron integrals computed using PRISM.
 NBasis=    35 RedAO= T EigKep=  1.00D+00  NBF=    27     8
 NBsUse=    35 1.00D-06 EigRej= -1.00D+00 NBFU=    27     8
 Lowest energy guess from the checkpoint file:  "geometry_chks/1_4ClBzNeutralRadical.chk"
 B after Tr=     0.000000    0.000000   -0.000000
         Rot=    0.999912    0.000000    0.000000    0.013253 Ang=   1.52 deg.
 B after Tr=     0.000000    0.000000   -0.000000
         Rot=    0.999963   -0.000000    0.000000    0.008645 Ang=   0.99 deg.
 Initial guess orbital symmetries:
 Alpha Orbitals:
       Occupied  (A") (A") (A') (A') (A") (A') (A') (A') (A') (A')
                 (A') (A') (A') (A') (A") (A") (A") (A") (A") (A")
                 (A")
       Virtual   (A") (A") (A') (A') (A") (A') (A') (A') (A') (A')
                 (A') (A') (A') (A')
 Beta  Orbitals:
       Occupied  (A") (A") (A') (A") (A') (A') (A') (A') (A') (A')
                 (A') (A') (A') (A') (A') (A") (A") (A") (A") (A")
       Virtual   (A") (A") (A') (A") (A') (A') (A') (A') (A') (A')
                 (A') (A') (A') (A') (A')
 Initial guess <Sx>= 0.0000 <Sy>= 0.0000 <Sz>= 0.5000 <S**2>= 1.6021 S= 0.8609
 Keep J ints in memory in canonical form, NReq=862793.
 Overlap will be assumed to be unity.
 Requested convergence on RMS density matrix=1.00D-08 within  32 cycles.
 Requested convergence on MAX density matrix=1.00D-06.
 Requested convergence on             energy=1.00D-06.
 No special actions if energy rises.
 An orbital has undefined symmetry, so N**3 symmetry is turned off.
 SCF Done:  E(UAM1) =  0.290117722884     A.U. after   19 cycles
            NFock= 18  Conv=0.42D-08     -V/T= 1.0032
 <Sx>= 0.0000 <Sy>= 0.0000 <Sz>= 0.5000 <S**2>= 1.3505 S= 0.7651
 <L.S>=  0.00000000000    
 Annihilation of the first spin contaminant:
 S**2 before annihilation     1.3505,   after     1.0876
 QCSCF skips out because SCF is already converged.
 Calling FoFJK, ICntrl=      2127 FMM=F ISym2X=1 I1Cent= 0 IOpClX= 1 NMat=1 NMatS=1 NMatT=0.
 ***** Axes restored to original set *****
 -------------------------------------------------------------------
 Center     Atomic                   Forces (Hartrees/Bohr)
 Number     Number              X              Y              Z
 -------------------------------------------------------------------
      1        6           0.043392860   -0.021142412   -0.000000000
      2        6          -0.009748359    0.098314900    0.000000000
      3        6           0.076323094    0.041294534   -0.000000000
      4        6           0.079897626   -0.035836055   -0.000000000
      5        6           0.011352730    0.000258071   -0.000000000
      6        6          -0.017084337    0.009012600   -0.000000000
      7       17           0.019867634    0.012554777   -0.000000000
      8        1          -0.105137689    0.056307551    0.000000000
      9       17           0.000068813    0.021727539    0.000000000
     10        1           0.004155612   -0.119582600    0.000000000
     11        1          -0.103087985   -0.062908906    0.000000000
 -------------------------------------------------------------------
 Cartesian Forces:  Max     0.119582600 RMS     0.046691116

 GradGradGradGradGradGradGradGradGradGradGradGradGradGradGradGradGradGrad
 Berny optimization.
 Using GEDIIS/GDIIS optimizer.
 FormGI is forming the generalized inverse of G from B-inverse, IUseBI=4.
 Internal  Forces:  Max     0.120766976 RMS     0.032494443
 Search for a local minimum.
 Step number   4 out of a maximum of   57
 All quantities printed in internal units (Hartrees-Bohrs-Radians)
 Mixed Optimization -- RFO/linear search
 Update second derivatives using D2CorX and points    3    2    4
 DE= -1.16D-01 DEPred=-1.05D-01 R= 1.11D+00
 TightC=F SS=  1.41D+00  RLast= 5.63D-01 DXNew= 8.4853D-01 1.6903D+00
 Trust test= 1.11D+00 RLast= 5.63D-01 DXMaxT set to 8.49D-01
 ITU=  1  0  1  0
 Use linear search instead of GDIIS.
     Eigenvalues ---    0.00000   0.02011   0.02011   0.02011   0.02011
     Eigenvalues ---    0.02011   0.02011   0.02011   0.02011   0.06511
     Eigenvalues ---    0.06683   0.15999   0.16000   0.16019   0.22016
     Eigenvalues ---    0.22980   0.24909   0.25000   0.25179   0.29033
     Eigenvalues ---    0.31451   0.38530   0.41290   0.44435   0.44650
     Eigenvalues ---    0.45351  59.80613
 RFO could not converge Lambda in  999 iterations.
 Skip linear search -- no minimum in search direction.
 Steepest descent instead of Quadratic search.
 Iteration  1 RMS(Cart)=  0.01950125 RMS(Int)=  0.00001123
 Iteration  2 RMS(Cart)=  0.00001580 RMS(Int)=  0.00000238
 Iteration  3 RMS(Cart)=  0.00000000 RMS(Int)=  0.00000238
 ClnCor:  largest displacement from symmetrization is 8.24D-10 for atom     8.
 Variable       Old X    -DE/DX   Delta X   Delta X   Delta X     New X
                                 (Linear)    (Quad)   (Total)
    R1        2.62489  -0.03447   0.00000  -0.01724  -0.01723   2.60766
    R2        2.66087  -0.03229   0.00000  -0.01615  -0.01615   2.64473
    R3        2.65174  -0.02948   0.00000  -0.01474  -0.01474   2.63700
    R4        2.84816  -0.11965   0.00000  -0.05983  -0.05983   2.78833
    R5        2.65289  -0.03165   0.00000  -0.01582  -0.01583   2.63706
    R6        2.85682  -0.12077   0.00000  -0.06038  -0.06038   2.79644
    R7        2.67549  -0.02616   0.00000  -0.01308  -0.01308   2.66240
    R8        2.84557  -0.11926   0.00000  -0.05963  -0.05963   2.78594
    R9        2.68960  -0.01612   0.00000  -0.00806  -0.00806   2.68154
   R10        3.25964  -0.02171   0.00000  -0.01085  -0.01085   3.24878
   R11        3.25881  -0.02349   0.00000  -0.01174  -0.01174   3.24706
    A1        2.14814   0.01393   0.00000   0.00696   0.00697   2.15511
    A2        2.07656  -0.00628   0.00000  -0.00314  -0.00314   2.07342
    A3        2.09851   0.00238   0.00000   0.00119   0.00119   2.09970
    A4        2.10811   0.00391   0.00000   0.00195   0.00195   2.11006
    A5        2.09059   0.00142   0.00000   0.00071   0.00071   2.09130
    A6        2.09576  -0.00068   0.00000  -0.00034  -0.00034   2.09542
    A7        2.09684  -0.00074   0.00000  -0.00037  -0.00037   2.09647
    A8        2.11241   0.00332   0.00000   0.00166   0.00166   2.11406
    A9        2.09060  -0.00057   0.00000  -0.00029  -0.00028   2.09031
   A10        2.08018  -0.00275   0.00000  -0.00137  -0.00137   2.07881
   A11        2.08339  -0.00292   0.00000  -0.00146  -0.00147   2.08193
   A12        2.09352  -0.00009   0.00000  -0.00004  -0.00004   2.09348
   A13        2.10627   0.00301   0.00000   0.00150   0.00151   2.10778
   A14        2.05528  -0.00946   0.00000  -0.00473  -0.00473   2.05055
   A15        2.10728   0.00330   0.00000   0.00165   0.00165   2.10893
   A16        2.12063   0.00617   0.00000   0.00308   0.00308   2.12371
    D1       -0.00000  -0.00000   0.00000  -0.00000   0.00000   0.00000
    D2        3.14159   0.00000   0.00000   0.00000   0.00000   3.14159
    D3        0.00000  -0.00000   0.00000  -0.00000   0.00000   0.00000
    D4        3.14159  -0.00000   0.00000  -0.00000   0.00000   3.14159
    D5        0.00000   0.00000   0.00000   0.00000  -0.00000   0.00000
    D6        3.14159   0.00000   0.00000   0.00000   0.00000   3.14159
    D7        3.14159  -0.00000   0.00000  -0.00000   0.00000   3.14159
    D8        0.00000   0.00000   0.00000   0.00000   0.00000   0.00000
    D9        0.00000   0.00000   0.00000   0.00000   0.00000   0.00000
   D10        3.14159   0.00000   0.00000   0.00000   0.00000   3.14159
[...]
                                 (Linear)    (Quad)   (Total)
    R1        2.58666  -0.00005  -0.00038   0.00027  -0.00011   2.58655
    R2        2.60072   0.00008  -0.00000   0.00014   0.00014   2.60086
    R3        2.66302   0.00010  -0.00022   0.00050   0.00028   2.66330
    R4        2.07205   0.00005  -0.00029   0.00052   0.00023   2.07228
    R5        2.64664   0.00016  -0.00004   0.00028   0.00024   2.64688
    R6        2.07641   0.00010   0.00024   0.00001   0.00025   2.07666
    R7        2.66081   0.00005  -0.00004   0.00016   0.00012   2.66094
    R8        2.08063   0.00019   0.00035   0.00018   0.00052   2.08116
    R9        2.68187  -0.00003  -0.00023   0.00022  -0.00001   2.68186
   R10        3.19342  -0.00029  -0.00050  -0.00048  -0.00098   3.19244
   R11        3.17553  -0.00016  -0.00025  -0.00037  -0.00062   3.17491
    A1        2.25624  -0.00000   0.00009  -0.00017  -0.00008   2.25616
    A2        2.00498   0.00005   0.00007   0.00024   0.00031   2.00529
    A3        2.14167  -0.00003  -0.00005  -0.00017  -0.00022   2.14145
    A4        2.13653  -0.00002  -0.00002  -0.00007  -0.00009   2.13644
    A5        2.09651  -0.00007  -0.00009  -0.00028  -0.00037   2.09614
    A6        2.09319   0.00003  -0.00001   0.00018   0.00017   2.09336
    A7        2.09349   0.00004   0.00010   0.00010   0.00020   2.09368
    A8        2.12083  -0.00001   0.00000   0.00008   0.00009   2.12092
    A9        2.08340   0.00002  -0.00002   0.00012   0.00010   2.08350
   A10        2.07896  -0.00001   0.00001  -0.00020  -0.00019   2.07877
   A11        2.08692   0.00003   0.00002   0.00008   0.00009   2.08701
   A12        2.08785   0.00002   0.00004   0.00001   0.00005   2.08789
   A13        2.10842  -0.00005  -0.00006  -0.00008  -0.00014   2.10828
   A14        2.00089   0.00001  -0.00010   0.00006  -0.00004   2.00084
   A15        2.13229   0.00004   0.00009   0.00006   0.00014   2.13243
   A16        2.15001  -0.00004   0.00001  -0.00011  -0.00010   2.14991
    D1        0.00000  -0.00000   0.00000  -0.00000  -0.00000   0.00000
    D2        3.14159   0.00000   0.00000   0.00000   0.00000   3.14159
    D3       -0.00000  -0.00000   0.00000  -0.00000   0.00000   0.00000
    D4        3.14159  -0.00000   0.00000  -0.00000   0.00000   3.14159
    D5       -0.00000   0.00000   0.00000   0.00000   0.00000   0.00000
    D6        3.14159   0.00000   0.00000   0.00000   0.00000   3.14159
    D7        3.14159  -0.00000   0.00000  -0.00000   0.00000   3.14159
    D8        0.00000  -0.00000   0.00000  -0.00000  -0.00000   0.00000
    D9        0.00000  -0.00000   0.00000  -0.00000  -0.00000   0.00000
   D10        3.14159   0.00000   0.00000   0.00000   0.00000   3.14159
   D11        3.14159  -0.00000   0.00000  -0.00000   0.00000   3.14159
   D12       -0.00000  -0.00000   0.00000  -0.00000   0.00000   0.00000
   D13       -0.00000  -0.00000   0.00000  -0.00000   0.00000   0.00000
   D14        3.14159   0.00000   0.00000   0.00000   0.00000   3.14159
   D15        3.14159  -0.00000   0.00000  -0.00000   0.00000   3.14159
   D16       -0.00000  -0.00000   0.00000  -0.00000   0.00000   0.00000
   D17       -0.00000   0.00000   0.00000   0.00000   0.00000   0.00000
   D18        3.14159   0.00000   0.00000   0.00000   0.00000   3.14159
   D19        3.14159  -0.00000   0.00000  -0.00000   0.00000   3.14159
   D20        0.00000   0.00000   0.00000   0.00000  -0.00000   0.00000
         Item               Value     Threshold  Converged?
 Maximum Force            0.000294     0.000450     YES
 RMS     Force            0.000070     0.000300     YES
 Maximum Displacement     0.000939     0.001800     YES
 RMS     Displacement     0.000260     0.001200     YES
 Predicted change in Energy=-3.503257D-07
 Optimization completed.
    -- Stationary point found.
                           ----------------------------
                           !   Optimized Parameters   !
                           ! (Angstroms and Degrees)  !
 --------------------------                            --------------------------
 ! Name  Definition              Value          Derivative Info.                !
 --------------------------------------------------------------------------------
 ! R1    R(1,2)                  1.3688         -DE/DX =    0.0                 !
 ! R2    R(1,6)                  1.3762         -DE/DX =    0.0001              !
 ! R3    R(2,3)                  1.4092         -DE/DX =    0.0001              !
 ! R4    R(2,10)                 1.0965         -DE/DX =    0.0001              !
 ! R5    R(3,4)                  1.4005         -DE/DX =    0.0002              !
 ! R6    R(3,11)                 1.0988         -DE/DX =    0.0001              !
 ! R7    R(4,5)                  1.408          -DE/DX =    0.0001              !
 ! R8    R(4,8)                  1.101          -DE/DX =    0.0002              !
 ! R9    R(5,6)                  1.4192         -DE/DX =    0.0                 !
 ! R10   R(5,9)                  1.6899         -DE/DX =   -0.0003              !
 ! R11   R(6,7)                  1.6804         -DE/DX =   -0.0002              !
 ! A1    A(2,1,6)              129.2731         -DE/DX =    0.0                 !
 ! A2    A(1,2,3)              114.877          -DE/DX =    0.0                 !
 ! A3    A(1,2,10)             122.7088         -DE/DX =    0.0                 !
 ! A4    A(3,2,10)             122.4142         -DE/DX =    0.0                 !
 ! A5    A(2,3,4)              120.1211         -DE/DX =   -0.0001              !
 ! A6    A(2,3,11)             119.931          -DE/DX =    0.0                 !
 ! A7    A(4,3,11)             119.9479         -DE/DX =    0.0                 !
 ! A8    A(3,4,5)              121.5147         -DE/DX =    0.0                 !
 ! A9    A(3,4,8)              119.3699         -DE/DX =    0.0                 !
 ! A10   A(5,4,8)              119.1154         -DE/DX =    0.0                 !
 ! A11   A(4,5,6)              119.5717         -DE/DX =    0.0                 !
 ! A12   A(4,5,9)              119.6249         -DE/DX =    0.0                 !
 ! A13   A(6,5,9)              120.8034         -DE/DX =    0.0                 !
 ! A14   A(1,6,5)              114.6424         -DE/DX =    0.0                 !
 ! A15   A(1,6,7)              122.1713         -DE/DX =    0.0                 !
 ! A16   A(5,6,7)              123.1864         -DE/DX =    0.0                 !
 ! D1    D(6,1,2,3)              0.0            -DE/DX =    0.0                 !
 ! D2    D(6,1,2,10)           180.0            -DE/DX =    0.0                 !
 ! D3    D(2,1,6,5)              0.0            -DE/DX =    0.0                 !
 ! D4    D(2,1,6,7)            180.0            -DE/DX =    0.0                 !
 ! D5    D(1,2,3,4)              0.0            -DE/DX =    0.0                 !
 ! D6    D(1,2,3,11)           180.0            -DE/DX =    0.0                 !
 ! D7    D(10,2,3,4)           180.0            -DE/DX =    0.0                 !
 ! D8    D(10,2,3,11)            0.0            -DE/DX =    0.0                 !
 ! D9    D(2,3,4,5)              0.0            -DE/DX =    0.0                 !
 ! D10   D(2,3,4,8)            180.0            -DE/DX =    0.0                 !
 ! D11   D(11,3,4,5)           180.0            -DE/DX =    0.0                 !
 ! D12   D(11,3,4,8)             0.0            -DE/DX =    0.0                 !
 ! D13   D(3,4,5,6)              0.0            -DE/DX =    0.0                 !
 ! D14   D(3,4,5,9)            180.0            -DE/DX =    0.0                 !
 ! D15   D(8,4,5,6)            180.0            -DE/DX =    0.0                 !
 ! D16   D(8,4,5,9)              0.0            -DE/DX =    0.0                 !
 ! D17   D(4,5,6,1)              0.0            -DE/DX =    0.0                 !
 ! D18   D(4,5,6,7)            180.0            -DE/DX =    0.0                 !
 ! D19   D(9,5,6,1)            180.0            -DE/DX =    0.0                 !
 ! D20   D(9,5,6,7)              0.0            -DE/DX =    0.0                 !
 --------------------------------------------------------------------------------
 GradGradGradGradGradGradGradGradGradGradGradGradGradGradGradGradGradGrad

                          Input orientation:                          
 ---------------------------------------------------------------------
 Center     Atomic      Atomic             Coordinates (Angstroms)
 Number     Number       Type             X           Y           Z
 ---------------------------------------------------------------------
      1          6           0       -3.013775    0.207470   -0.000000
      2          6           0       -1.903294    1.007746   -0.000000
      3          6           0       -0.674898    0.317153   -0.000000
      4          6           0       -0.655910   -1.083258   -0.000000
      5          6           0       -1.846186   -1.835473   -0.000000
      6          6           0       -3.097659   -1.166215   -0.000000
      7         17           0       -4.571956   -1.972595    0.000000
      8          1           0        0.310833   -1.610192   -0.000000
      9         17           0       -1.767565   -3.523529    0.000000
     10          1           0       -1.962015    2.102654   -0.000000
     11          1           0        0.269656    0.878539   -0.000000
 ---------------------------------------------------------------------
                    Distance matrix (angstroms):
                    1          2          3          4          5
     1  C    0.000000
     2  C    1.368799   0.000000
     3  C    2.341447   1.409210   0.000000
     4  C    2.688030   2.434803   1.400540   0.000000
     5  C    2.353058   2.843793   2.450656   1.408042   0.000000
     6  C    1.376244   2.480447   2.840801   2.443158   1.419187
     7  Cl   2.679667   4.000524   4.519957   4.015761   2.729217
     8  H    3.789052   3.428697   2.164792   1.101023   2.168752
     9  Cl   3.933623   4.533307   3.993089   2.681548   1.689886
    10  H    2.167469   1.096481   2.201064   3.443247   3.939830
    11  H    3.351306   2.176788   1.098789   2.169175   3.441315
                    6          7          8          9         10
     6  C    0.000000
     7  Cl   1.680417   0.000000
     8  H    3.437286   4.896220   0.000000
     9  Cl   2.706673   3.204685   2.824995   0.000000
    10  H    3.460519   4.839365   4.353282   5.629542   0.000000
    11  H    3.939522   5.618734   2.489072   4.850616   2.545351
                   11
    11  H    0.000000
 Stoichiometry    C6H3Cl2(2)
 Framework group  CS[SG(C6H3Cl2)]
 Deg. of freedom    19
 Full point group                 CS      NOp   2
 Largest Abelian subgroup         CS      NOp   2
 Largest concise Abelian subgroup C1      NOp   1
                         Standard orientation:                         
 ---------------------------------------------------------------------
 Center     Atomic      Atomic             Coordinates (Angstroms)
 Number     Number       Type             X           Y           Z
 ---------------------------------------------------------------------
      1          6           0        1.090238   -1.409549    0.000000
      2          6           0        2.363158   -0.906274    0.000000
      3          6           0        2.444392    0.500593    0.000000
      4          6           0        1.275501    1.272090    0.000000
      5          6           0       -0.000000    0.675700    0.000000
      6          6           0       -0.111649   -0.739088   -0.000000
      7         17           0       -1.585983   -1.545400   -0.000000
      8          1           0        1.353376    2.370355    0.000000
      9         17           0       -1.378914    1.652588   -0.000000
     10          1           0        3.253382   -1.546409    0.000000
     11          1           0        3.426652    0.993037    0.000000
 ---------------------------------------------------------------------
 Rotational constants (GHZ):           1.9726248           1.4412250           0.8327830

 **********************************************************************

            Population analysis using the SCF Density.

 **********************************************************************

 Orbital symmetries:
 Alpha Orbitals:
       Occupied  (A') (A') (A') (A') (A') (A') (A') (A') (A') (A')
                 (A') (A") (A') (A') (A") (A") (A') (A') (A') (A")
                 (A")
       Virtual   (A") (A") (A') (A') (A") (A') (A') (A') (A') (A')
                 (A') (A') (A') (A')
 Beta  Orbitals:
       Occupied  (A') (A') (A') (A') (A') (A') (A') (A') (A') (A')
                 (A') (A") (A') (A') (A") (A") (A') (A') (A") (A")
       Virtual   (A') (A") (A") (A') (A') (A") (A') (A') (A') (A')
                 (A') (A') (A') (A') (A')
 The electronic state is 2-A'.
 Alpha  occ. eigenvalues --   -1.47138  -1.39475  -1.38842  -1.16604  -1.15285
 Alpha  occ. eigenvalues --   -0.88448  -0.86195  -0.68177  -0.62961  -0.61957
 Alpha  occ. eigenvalues --   -0.57329  -0.56075  -0.51693  -0.49370  -0.48452
 Alpha  occ. eigenvalues --   -0.46271  -0.45346  -0.44338  -0.39637  -0.38410
 Alpha  occ. eigenvalues --   -0.36356
 Alpha virt. eigenvalues --   -0.00474   0.00329   0.03394   0.04754   0.08000
 Alpha virt. eigenvalues --    0.12333   0.12755   0.13614   0.14222   0.15246
 Alpha virt. eigenvalues --    0.16604   0.17704   0.18088   0.18856
  Beta  occ. eigenvalues --   -1.46472  -1.39446  -1.38542  -1.16453  -1.13911
  Beta  occ. eigenvalues --   -0.88062  -0.83933  -0.67981  -0.61978  -0.60984
  Beta  occ. eigenvalues --   -0.57141  -0.55828  -0.50633  -0.48999  -0.48304
  Beta  occ. eigenvalues --   -0.46102  -0.44686  -0.44108  -0.37656  -0.36489
  Beta virt. eigenvalues --   -0.00683  -0.00552   0.01796   0.03941   0.05032
  Beta virt. eigenvalues --    0.08750   0.12720   0.13083   0.13648   0.14780
  Beta virt. eigenvalues --    0.15612   0.16894   0.17809   0.19034   0.19845
          Condensed to atoms (all electrons):
               1          2          3          4          5          6
     1  C    4.050957   0.000000   0.000000   0.000000   0.000000   0.000000
     2  C    0.000000   4.113153   0.000000   0.000000   0.000000   0.000000
     3  C    0.000000   0.000000   4.116408   0.000000   0.000000   0.000000
     4  C    0.000000   0.000000   0.000000   4.131090   0.000000   0.000000
     5  C    0.000000   0.000000   0.000000   0.000000   4.062274   0.000000
     6  C    0.000000   0.000000   0.000000   0.000000   0.000000   4.059137
     7  Cl   0.000000   0.000000   0.000000   0.000000   0.000000   0.000000
     8  H    0.000000   0.000000   0.000000   0.000000   0.000000   0.000000
     9  Cl   0.000000   0.000000   0.000000   0.000000   0.000000   0.000000
    10  H    0.000000   0.000000   0.000000   0.000000   0.000000   0.000000
    11  H    0.000000   0.000000   0.000000   0.000000   0.000000   0.000000
               7          8          9         10         11
     1  C    0.000000   0.000000   0.000000   0.000000   0.000000
     2  C    0.000000   0.000000   0.000000   0.000000   0.000000
     3  C    0.000000   0.000000   0.000000   0.000000   0.000000
     4  C    0.000000   0.000000   0.000000   0.000000   0.000000
     5  C    0.000000   0.000000   0.000000   0.000000   0.000000
     6  C    0.000000   0.000000   0.000000   0.000000   0.000000
     7  Cl   6.952565   0.000000   0.000000   0.000000   0.000000
     8  H    0.000000   0.846610   0.000000   0.000000   0.000000
     9  Cl   0.000000   0.000000   6.979329   0.000000   0.000000
    10  H    0.000000   0.000000   0.000000   0.835601   0.000000
    11  H    0.000000   0.000000   0.000000   0.000000   0.852875
          Atomic-Atomic Spin Densities.
               1          2          3          4          5          6
     1  C    1.388837   0.000000   0.000000   0.000000   0.000000   0.000000
     2  C    0.000000  -0.486924   0.000000   0.000000   0.000000   0.000000
     3  C    0.000000   0.000000   0.498192   0.000000   0.000000   0.000000
     4  C    0.000000   0.000000   0.000000  -0.460996   0.000000   0.000000
     5  C    0.000000   0.000000   0.000000   0.000000   0.489773   0.000000
     6  C    0.000000   0.000000   0.000000   0.000000   0.000000  -0.484407
     7  Cl   0.000000   0.000000   0.000000   0.000000   0.000000   0.000000
     8  H    0.000000   0.000000   0.000000   0.000000   0.000000   0.000000
     9  Cl   0.000000   0.000000   0.000000   0.000000   0.000000   0.000000
    10  H    0.000000   0.000000   0.000000   0.000000   0.000000   0.000000
    11  H    0.000000   0.000000   0.000000   0.000000   0.000000   0.000000
               7          8          9         10         11
     1  C    0.000000   0.000000   0.000000   0.000000   0.000000
     2  C    0.000000   0.000000   0.000000   0.000000   0.000000
     3  C    0.000000   0.000000   0.000000   0.000000   0.000000
     4  C    0.000000   0.000000   0.000000   0.000000   0.000000
     5  C    0.000000   0.000000   0.000000   0.000000   0.000000
     6  C    0.000000   0.000000   0.000000   0.000000   0.000000
     7  Cl   0.000086   0.000000   0.000000   0.000000   0.000000
     8  H    0.000000   0.027077   0.000000   0.000000   0.000000
     9  Cl   0.000000   0.000000   0.015149   0.000000   0.000000
    10  H    0.000000   0.000000   0.000000   0.032706   0.000000
    11  H    0.000000   0.000000   0.000000   0.000000  -0.019492
 Mulliken charges and spin densities:
               1          2
     1  C   -0.050957   1.388837
     2  C   -0.113153  -0.486924
     3  C   -0.116408   0.498192
     4  C   -0.131090  -0.460996
     5  C   -0.062274   0.489773
     6  C   -0.059137  -0.484407
     7  Cl   0.047435   0.000086
     8  H    0.153390   0.027077
     9  Cl   0.020671   0.015149
    10  H    0.164399   0.032706
    11  H    0.147125  -0.019492
 Sum of Mulliken charges =  -0.00000   1.00000
 Mulliken charges and spin densities with hydrogens summed into heavy atoms:
               1          2
     1  C   -0.050957   1.388837
     2  C    0.051246  -0.454219
     3  C    0.030717   0.478700
     4  C    0.022300  -0.433920
     5  C   -0.062274   0.489773
     6  C   -0.059137  -0.484407
     7  Cl   0.047435   0.000086
     9  Cl   0.020671   0.015149
 Charge=             -0.0000 electrons
 Dipole moment (field-independent basis, Debye):
    X=              1.7597    Y=              0.8809    Z=              0.0000  Tot=              1.9678
 N-N= 1.980503746809D+02 E-N=-2.751995993305D+02  KE=-9.044537843615D+01
 Symmetry A'   KE=-7.006324396394D+01
 Symmetry A"   KE=-2.038213447221D+01
 Symmetry A'   SP= 1.000000000000D+00
 Symmetry A"   SP= 1.443289932013D-15
 1\1\GINC-SH02-01N35\FOpt\UAM1\ZDO\C6H3Cl2(2)\JLAPIER\09-Dec-2025\0\\# 
 opt am1 SCF=XQC\\Neutral Radical (removed 2) 1_4\\0,2\C,-3.0137752358,
 0.2074700556,0.\C,-1.903293713,1.0077462284,0.\C,-0.674898269,0.317153
 1109,0.\C,-0.6559101362,-1.0832582569,0.\C,-1.8461858066,-1.8354730062
 ,0.\C,-3.097659228,-1.166215289,0.\Cl,-4.5719563464,-1.9725952636,0.\H
 ,0.3108334714,-1.6101920028,0.\Cl,-1.7675653893,-3.5235287899,0.\H,-1.
 962015191,2.10265408,0.\H,0.2696558438,0.8785391335,0.\\Version=ES64L-
 G16RevB.01\State=2-A'\HF=0.0975555\S2=1.251641\S2-1=0.\S2A=0.968238\RM
 SD=3.722e-09\RMSF=1.080e-04\Dipole=0.6652997,0.3959528,0.\PG=CS [SG(C6
 H3Cl2)]\\@


 Human beings, who are almost unique in having the
 ability to learn from the experience of others, are
 also remarkable for their apparent disinclination to do so.
                               -- Douglas Adams,
                                Last Chance to See
 Job cpu time:       0 days  0 hours  0 minutes 11.3 seconds.
 Elapsed time:       0 days  0 hours  0 minutes 26.3 seconds.
 File lengths (MBytes):  RWF=     10 Int=      0 D2E=      0 Chk=      2 Scr=      1
 Normal termination of Gaussian 16 at Tue Dec  9 08:35:09 2025.
