 Entering Gaussian System, Link 0=g16
 Initial command:
 /share/software/user/restricted/gaussian/g16.B01/l1.exe "/home/users/jlapier/Chloroaromatics/Gau-22263.inp" -scrdir="/home/users/jlapier/Chloroaromatics/"
 Entering Link 1 = /share/software/user/restricted/gaussian/g16.B01/l1.exe PID=     22270.
  
 Copyright (c) 1988-2017, Gaussian, Inc.  All Rights Reserved.
  
 This is part of the Gaussian(R) 16 program.  It is based on
 the Gaussian(R) 09 system (copyright 2009, Gaussian, Inc.),
 the Gaussian(R) 03 system (copyright 2003, Gaussian, Inc.),
 the Gaussian(R) 98 system (copyright 1998, Gaussian, Inc.),
 the Gaussian(R) 94 system (copyright 1995, Gaussian, Inc.),
 the Gaussian 92(TM) system (copyright 1992, Gaussian, Inc.),
 the Gaussian 90(TM) system (copyright 1990, Gaussian, Inc.),
 the Gaussian 88(TM) system (copyright 1988, Gaussian, Inc.),
 the Gaussian 86(TM) system (copyright 1986, Carnegie Mellon
 University), and the Gaussian 82(TM) system (copyright 1983,
 Carnegie Mellon University). Gaussian is a federally registered
 trademark of Gaussian, Inc.
  
 This software contains proprietary and confidential information,
 including trade secrets, belonging to Gaussian, Inc.
  
 This software is provided under written license and may be
 used, copied, transmitted, or stored only in accord with that
 written license.
  
 The following legend is applicable only to US Government
 contracts under FAR:
  
                    RESTRICTED RIGHTS LEGEND
  
 Use, reproduction and disclosure by the US Government is
 subject to restrictions as set forth in subparagraphs (a)
 and (c) of the Commercial Computer Software - Restricted
 Rights clause in FAR 52.227-19.
  
 Gaussian, Inc.
 340 Quinnipiac St., Bldg. 40, Wallingford CT 06492
  
  
 ---------------------------------------------------------------
 Warning -- This program may not be used in any manner that
 competes with the business of Gaussian, Inc. or will provide
 assistance to any competitor of Gaussian, Inc.  The licensee
 of this program is prohibited from giving any competitor of
 Gaussian, Inc. access to this program.  By using this program,
 the user acknowledges that Gaussian, Inc. is engaged in the
 business of creating and licensing software in the field of
 computational chemistry and represents and warrants to the
 licensee that it is not a competitor of Gaussian, Inc. and that
 it will not use this program in any manner prohibited above.
 ---------------------------------------------------------------
  

 Cite this work as:
 Gaussian 16, Revision B.01,
 M. J. Frisch, G. W. Trucks, H. B. Schlegel, G. E. Scuseria, 
 M. A. Robb, J. R. Cheeseman, G. Scalmani, V. Barone, 
 G. A. Petersson, H. Nakatsuji, X. Li, M. Caricato, A. V. Marenich, 
 J. Bloino, B. G. Janesko, R. Gomperts, B. Mennucci, H. P. Hratchian, 
 J. V. Ortiz, A. F. Izmaylov, J. L. Sonnenberg, D. Williams-Young, 
 F. Ding, F. Lipparini, F. Egidi, J. Goings, B. Peng, A. Petrone, 
 T. Henderson, D. Ranasinghe, V. G. Zakrzewski, J. Gao, N. Rega, 
 G. Zheng, W. Liang, M. Hada, M. Ehara, K. Toyota, R. Fukuda, 
 J. Hasegawa, M. Ishida, T. Nakajima, Y. Honda, O. Kitao, H. Nakai, 
 T. Vreven, K. Throssell, J. A. Montgomery, Jr., J. E. Peralta, 
 F. Ogliaro, M. J. Bearpark, J. J. Heyd, E. N. Brothers, K. N. Kudin, 
 V. N. Staroverov, T. A. Keith, R. Kobayashi, J. Normand, 
 K. Raghavachari, A. P. Rendell, J. C. Burant, S. S. Iyengar, 
 J. Tomasi, M. Cossi, J. M. Millam, M. Klene, C. Adamo, R. Cammi, 
 J. W. Ochterski, R. L. Martin, K. Morokuma, O. Farkas, 
 J. B. Foresman, and D. J. Fox, Gaussian, Inc., Wallingford CT, 2016.
 
 ******************************************
 Gaussian 16:  ES64L-G16RevB.01 20-Dec-2017
                 8-Dec-2025 
 ******************************************
 %mem=2GB
 %nprocshare=1
 Will use up to    1 processors via shared memory.
 %chk=geometry_chks/1_4ClBzAnionIntermediate.chk
 ---------------------------
 # opt am1 SCF(maxcyc=10000)
 ---------------------------
 1/18=20,19=15,26=1,38=1/1,3;
 2/9=110,12=2,17=6,18=5,40=1/2;
 3/5=2,25=1,41=700000,71=1/1,2,3;
 4/35=1/1;
 5/5=2,7=10000,35=1,38=5/2;
 6/7=2,8=2,9=2,10=2,28=1/1;
 7//1,2,3,16;
 1/18=20,19=15,26=1/3(2);
 2/9=110/2;
 99//99;
 2/9=110/2;
 3/5=2,25=1,41=700000,71=1,135=20/1,2,3;
 4/5=5,16=3,35=1/1;
 5/5=2,7=10000,35=1,38=5/2;
 7//1,2,3,16;
 1/18=20,19=15,26=1/3(-5);
 2/9=110/2;
 6/7=2,8=2,9=2,10=2,19=2,28=1/1;
 99/9=1/99;
 ----------------------------------
 Anion Intermediate (removed 2) 1_4
 ----------------------------------
 Symbolic Z-matrix:
 Charge = -1 Multiplicity = 1
 C                    -3.20928   0.19943   0. 
 C                    -2.0115    0.93555   0. 
 C                    -0.77511   0.2663    0. 
 C                    -0.7365   -1.13907   0. 
 C                    -1.93429  -1.87519   0. 
 C                    -3.17067  -1.20594   0. 
 Cl                   -4.67483  -2.13035   0. 
 H                     0.81614  -1.97951   0. 
 Cl                   -1.8858   -3.64003   0. 
 H                    -2.05998   2.7004    0. 
 H                     0.72905   1.19071   0. 
 
 Add virtual bond connecting atoms H8         and C4         Dist= 3.34D+00.
 Add virtual bond connecting atoms H11        and C3         Dist= 3.34D+00.
 Add virtual bond connecting atoms H10        and C2         Dist= 3.34D+00.

 GradGradGradGradGradGradGradGradGradGradGradGradGradGradGradGradGradGrad
 Berny optimization.
 Initialization pass.
                           ----------------------------
                           !    Initial Parameters    !
                           ! (Angstroms and Degrees)  !
 --------------------------                            --------------------------
 ! Name  Definition              Value          Derivative Info.                !
 --------------------------------------------------------------------------------
 ! R1    R(1,2)                  1.4059         estimate D2E/DX2                !
 ! R2    R(1,6)                  1.4059         estimate D2E/DX2                !
 ! R3    R(2,3)                  1.4059         estimate D2E/DX2                !
 ! R4    R(2,10)                 1.7655         estimate D2E/DX2                !
 ! R5    R(3,4)                  1.4059         estimate D2E/DX2                !
 ! R6    R(3,11)                 1.7655         estimate D2E/DX2                !
 ! R7    R(4,5)                  1.4059         estimate D2E/DX2                !
 ! R8    R(4,8)                  1.7655         estimate D2E/DX2                !
 ! R9    R(5,6)                  1.4059         estimate D2E/DX2                !
 ! R10   R(5,9)                  1.7655         estimate D2E/DX2                !
 ! R11   R(6,7)                  1.7655         estimate D2E/DX2                !
 ! A1    A(2,1,6)              119.9999         estimate D2E/DX2                !
 ! A2    A(1,2,3)              120.0            estimate D2E/DX2                !
 ! A3    A(1,2,10)             120.0001         estimate D2E/DX2                !
 ! A4    A(3,2,10)             119.9999         estimate D2E/DX2                !
 ! A5    A(2,3,4)              120.0001         estimate D2E/DX2                !
 ! A6    A(2,3,11)             120.0            estimate D2E/DX2                !
 ! A7    A(4,3,11)             119.9999         estimate D2E/DX2                !
 ! A8    A(3,4,5)              119.9997         estimate D2E/DX2                !
 ! A9    A(3,4,8)              120.0003         estimate D2E/DX2                !
 ! A10   A(5,4,8)              120.0            estimate D2E/DX2                !
 ! A11   A(4,5,6)              120.0            estimate D2E/DX2                !
 ! A12   A(4,5,9)              119.9996         estimate D2E/DX2                !
 ! A13   A(6,5,9)              120.0004         estimate D2E/DX2                !
 ! A14   A(1,6,5)              120.0003         estimate D2E/DX2                !
 ! A15   A(1,6,7)              119.9999         estimate D2E/DX2                !
 ! A16   A(5,6,7)              119.9998         estimate D2E/DX2                !
 ! D1    D(6,1,2,3)              0.0            estimate D2E/DX2                !
 ! D2    D(6,1,2,10)           180.0            estimate D2E/DX2                !
 ! D3    D(2,1,6,5)              0.0            estimate D2E/DX2                !
 ! D4    D(2,1,6,7)            180.0            estimate D2E/DX2                !
 ! D5    D(1,2,3,4)              0.0            estimate D2E/DX2                !
 ! D6    D(1,2,3,11)           180.0            estimate D2E/DX2                !
 ! D7    D(10,2,3,4)           180.0            estimate D2E/DX2                !
 ! D8    D(10,2,3,11)            0.0            estimate D2E/DX2                !
 ! D9    D(2,3,4,5)              0.0            estimate D2E/DX2                !
 ! D10   D(2,3,4,8)            180.0            estimate D2E/DX2                !
 ! D11   D(11,3,4,5)           180.0            estimate D2E/DX2                !
 ! D12   D(11,3,4,8)             0.0            estimate D2E/DX2                !
 ! D13   D(3,4,5,6)              0.0            estimate D2E/DX2                !
 ! D14   D(3,4,5,9)            180.0            estimate D2E/DX2                !
 ! D15   D(8,4,5,6)            180.0            estimate D2E/DX2                !
 ! D16   D(8,4,5,9)              0.0            estimate D2E/DX2                !
 ! D17   D(4,5,6,1)              0.0            estimate D2E/DX2                !
 ! D18   D(4,5,6,7)            180.0            estimate D2E/DX2                !
 ! D19   D(9,5,6,1)            180.0            estimate D2E/DX2                !
 ! D20   D(9,5,6,7)              0.0            estimate D2E/DX2                !
 --------------------------------------------------------------------------------
 Trust Radius=3.00D-01 FncErr=1.00D-07 GrdErr=1.00D-07 EigMax=2.50D+02 EigMin=1.00D-04
 Number of steps in this run=     57 maximum allowed number of steps=    100.
 GradGradGradGradGradGradGradGradGradGradGradGradGradGradGradGradGradGrad

                          Input orientation:                          
 ---------------------------------------------------------------------
 Center     Atomic      Atomic             Coordinates (Angstroms)
 Number     Number       Type             X           Y           Z
 ---------------------------------------------------------------------
      1          6           0       -3.209280    0.199430    0.000000
      2          6           0       -2.011500    0.935550    0.000000
      3          6           0       -0.775110    0.266300    0.000000
      4          6           0       -0.736500   -1.139070    0.000000
      5          6           0       -1.934290   -1.875190    0.000000
      6          6           0       -3.170670   -1.205940    0.000000
      7         17           0       -4.674830   -2.130350    0.000000
      8          1           0        0.816140   -1.979510    0.000000
      9         17           0       -1.885800   -3.640030    0.000000
     10          1           0       -2.059980    2.700400    0.000000
     11          1           0        0.729050    1.190710    0.000000
 ---------------------------------------------------------------------
                    Distance matrix (angstroms):
                    1          2          3          4          5
     1  C    0.000000
     2  C    1.405898   0.000000
     3  C    2.435088   1.405900   0.000000
     4  C    2.811801   2.435092   1.405900   0.000000
     5  C    2.435087   2.811800   2.435093   1.405907   0.000000
     6  C    1.405900   2.435088   2.811796   2.435088   1.405892
     7  Cl   2.752401   4.061166   4.577308   4.061167   2.752393
     8  H    4.577312   4.061173   2.752406   1.765511   2.752408
     9  Cl   4.061164   4.577306   4.061163   2.752397   1.765506
    10  H    2.752406   1.765516   2.752405   4.061173   4.577316
    11  H    4.061167   2.752403   1.765512   2.752401   4.061173
                    6          7          8          9         10
     6  C    0.000000
     7  Cl   1.765512   0.000000
     8  H    4.061165   5.493041   0.000000
     9  Cl   2.752396   3.171407   3.171404   0.000000
    10  H    4.061173   5.493049   5.493052   6.342822   0.000000
    11  H    4.577308   6.342819   3.171416   5.493040   3.171412
                   11
    11  H    0.000000
 Stoichiometry    C6H3Cl2(1-)
 Framework group  CS[SG(C6H3Cl2)]
 Deg. of freedom    19
 Full point group                 CS      NOp   2
 Largest Abelian subgroup         CS      NOp   2
 Largest concise Abelian subgroup C1      NOp   1
                         Standard orientation:                         
 ---------------------------------------------------------------------
 Center     Atomic      Atomic             Coordinates (Angstroms)
 Number     Number       Type             X           Y           Z
 ---------------------------------------------------------------------
      1          6           0        1.203954   -1.449343    0.000000
      2          6           0        2.421498   -0.746395    0.000000
      3          6           0        2.421498    0.659505    0.000000
      4          6           0        1.203954    1.362457    0.000000
      5          6           0       -0.013595    0.659501    0.000000
      6          6           0       -0.013590   -0.746391   -0.000000
      7         17           0       -1.542568   -1.629147   -0.000000
      8          1           0        1.203949    3.127969    0.000000
      9         17           0       -1.542564    1.542260   -0.000000
     10          1           0        3.950481   -1.629151    0.000000
     11          1           0        3.950476    1.542261    0.000000
 ---------------------------------------------------------------------
 Rotational constants (GHZ):           1.9289700           1.3512467           0.7946165
 Standard basis: VSTO-6G (5D, 7F)
 There are    27 symmetry adapted cartesian basis functions of A'  symmetry.
 There are     8 symmetry adapted cartesian basis functions of A"  symmetry.
 There are    27 symmetry adapted basis functions of A'  symmetry.
 There are     8 symmetry adapted basis functions of A"  symmetry.
    35 basis functions,   210 primitive gaussians,    35 cartesian basis functions
    21 alpha electrons       21 beta electrons
       nuclear repulsion energy       192.9561108183 Hartrees.
 Integral buffers will be    131072 words long.
 Regular integral format.
 Two-electron integral symmetry is turned off.
 Do NDO integrals.
 One-electron integrals computed using PRISM.
 NBasis=    35 RedAO= T EigKep=  1.00D+00  NBF=    27     8
 NBsUse=    35 1.00D-06 EigRej= -1.00D+00 NBFU=    27     8
 Simple Huckel Guess.
 Initial guess orbital symmetries:
       Occupied  (A') (A') (A') (A') (A') (A') (A') (A') (A') (A")
                 (A') (A') (A') (A") (A") (A') (A') (A") (A') (A")
                 (A')
       Virtual   (A') (A") (A") (A') (A') (A") (A') (A') (A') (A')
                 (A') (A') (A') (A')
 The electronic state of the initial guess is 1-A'.
 Keep J ints in memory in canonical form, NReq=862793.
 Overlap will be assumed to be unity.
 Requested convergence on RMS density matrix=1.00D-08 within**** cycles.
 Requested convergence on MAX density matrix=1.00D-06.
 Requested convergence on             energy=1.00D-06.
 No special actions if energy rises.
 Fock symm off for IB=2 I1=    1 I=   28 J=   27 Cut=1.00D-07 Err=6.88D-03
 Fock matrix is not symmetric: symmetry in diagonalization turned off.
 SCF Done:  E(RAM1) =  0.414736414855     A.U. after   17 cycles
            NFock= 16  Conv=0.51D-08     -V/T= 1.0045

 **********************************************************************

            Population analysis using the SCF Density.

 **********************************************************************

 Orbital symmetries:
       Occupied  (A') (A') (A') (A') (A') (A') (A') (A') (A') (A')
                 (A") (A") (A') (A') (A") (A') (A') (A') (A") (A")
                 (A')
       Virtual   (A') (A') (A") (A') (A") (A') (A') (A") (A') (A')
                 (A') (A') (A') (A')
 The electronic state is 1-A'.
 Alpha  occ. eigenvalues --   -1.24639  -1.20551  -1.18215  -0.93320  -0.90584
 Alpha  occ. eigenvalues --   -0.64195  -0.62408  -0.44612  -0.41319  -0.38691
 Alpha  occ. eigenvalues --   -0.36917  -0.31012  -0.30419  -0.29556  -0.28212
 Alpha  occ. eigenvalues --   -0.27703  -0.24964  -0.21991  -0.18325  -0.16577
 Alpha  occ. eigenvalues --   -0.11349
 Alpha virt. eigenvalues --    0.14417   0.16577   0.17409   0.18050   0.19501
 Alpha virt. eigenvalues --    0.20158   0.22278   0.28551   0.32813   0.33105
 Alpha virt. eigenvalues --    0.34956   0.36106   0.37986   0.40724
          Condensed to atoms (all electrons):
               1          2          3          4          5          6
     1  C    4.360941   0.000000   0.000000   0.000000   0.000000   0.000000
     2  C    0.000000   4.109823   0.000000   0.000000   0.000000   0.000000
     3  C    0.000000   0.000000   4.109672   0.000000   0.000000   0.000000
     4  C    0.000000   0.000000   0.000000   4.182762   0.000000   0.000000
     5  C    0.000000   0.000000   0.000000   0.000000   4.052040   0.000000
     6  C    0.000000   0.000000   0.000000   0.000000   0.000000   4.049481
     7  Cl   0.000000   0.000000   0.000000   0.000000   0.000000   0.000000
     8  H    0.000000   0.000000   0.000000   0.000000   0.000000   0.000000
     9  Cl   0.000000   0.000000   0.000000   0.000000   0.000000   0.000000
    10  H    0.000000   0.000000   0.000000   0.000000   0.000000   0.000000
    11  H    0.000000   0.000000   0.000000   0.000000   0.000000   0.000000
               7          8          9         10         11
     1  C    0.000000   0.000000   0.000000   0.000000   0.000000
     2  C    0.000000   0.000000   0.000000   0.000000   0.000000
     3  C    0.000000   0.000000   0.000000   0.000000   0.000000
     4  C    0.000000   0.000000   0.000000   0.000000   0.000000
     5  C    0.000000   0.000000   0.000000   0.000000   0.000000
     6  C    0.000000   0.000000   0.000000   0.000000   0.000000
     7  Cl   7.119638   0.000000   0.000000   0.000000   0.000000
     8  H    0.000000   0.929408   0.000000   0.000000   0.000000
     9  Cl   0.000000   0.000000   7.130494   0.000000   0.000000
    10  H    0.000000   0.000000   0.000000   0.970026   0.000000
    11  H    0.000000   0.000000   0.000000   0.000000   0.985716
 Mulliken charges:
               1
     1  C   -0.360941
     2  C   -0.109823
     3  C   -0.109672
     4  C   -0.182762
     5  C   -0.052040
     6  C   -0.049481
     7  Cl  -0.119638
     8  H    0.070592
     9  Cl  -0.130494
    10  H    0.029974
    11  H    0.014284
 Sum of Mulliken charges =  -1.00000
 Mulliken charges with hydrogens summed into heavy atoms:
               1
     1  C   -0.360941
     2  C   -0.079849
     3  C   -0.095388
     4  C   -0.112170
     5  C   -0.052040
     6  C   -0.049481
     7  Cl  -0.119638
     9  Cl  -0.130494
 Charge=             -1.0000 electrons
 Dipole moment (field-independent basis, Debye):
    X=             -2.9154    Y=              4.0722    Z=              0.0000  Tot=              5.0083
 N-N= 1.929561108183D+02 E-N=-2.722313794608D+02  KE=-9.134020776659D+01
 Symmetry A'   KE=-7.089400783844D+01
 Symmetry A"   KE=-2.044619992815D+01
 Calling FoFJK, ICntrl=      2127 FMM=F ISym2X=1 I1Cent= 0 IOpClX= 0 NMat=1 NMatS=1 NMatT=0.
 ***** Axes restored to original set *****
 -------------------------------------------------------------------
 Center     Atomic                   Forces (Hartrees/Bohr)
 Number     Number              X              Y              Z
 -------------------------------------------------------------------
      1        6           0.021973651    0.007196298   -0.000000000
      2        6           0.004515355    0.045190257    0.000000000
      3        6           0.057020661    0.041192419   -0.000000000
      4        6           0.069267425   -0.019023435   -0.000000000
      5        6           0.018171015   -0.014356111    0.000000000
      6        6          -0.001960165    0.022497375    0.000000000
      7       17           0.022371633    0.014825092    0.000000000
      8        1          -0.103645274    0.055148771    0.000000000
      9       17           0.004590054    0.023133447   -0.000000000
     10        1           0.003422452   -0.115024108    0.000000000
     11        1          -0.095726808   -0.060780004    0.000000000
 -------------------------------------------------------------------
 Cartesian Forces:  Max     0.115024108 RMS     0.040792078

 GradGradGradGradGradGradGradGradGradGradGradGradGradGradGradGradGradGrad
 Berny optimization.
 FormGI is forming the generalized inverse of G from B-inverse, IUseBI=4.
 Internal  Forces:  Max     0.117401131 RMS     0.033215728
 Search for a local minimum.
 Step number   1 out of a maximum of   57
 All quantities printed in internal units (Hartrees-Bohrs-Radians)
 Mixed Optimization -- RFO/linear search
 Second derivative matrix not updated -- first step.
 ITU=  0
     Eigenvalues ---    0.02011   0.02011   0.02011   0.02011   0.02011
     Eigenvalues ---    0.02011   0.02011   0.02011   0.06524   0.06524
     Eigenvalues ---    0.06524   0.16000   0.16000   0.16000   0.22076
     Eigenvalues ---    0.23330   0.24905   0.25000   0.25000   0.29033
     Eigenvalues ---    0.29034   0.40955   0.41390   0.44656   0.44657
     Eigenvalues ---    0.44657   0.44657
 RFO step:  Lambda=-1.81915273D-01 EMin= 2.01065791D-02
 Linear search not attempted -- first point.
 Maximum step size (   0.300) exceeded in Quadratic search.
    -- Step size scaled by   0.361
 Iteration  1 RMS(Cart)=  0.04987989 RMS(Int)=  0.00007220
 Iteration  2 RMS(Cart)=  0.00012571 RMS(Int)=  0.00001537
 Iteration  3 RMS(Cart)=  0.00000002 RMS(Int)=  0.00001537
 ClnCor:  largest displacement from symmetrization is 5.92D-11 for atom     8.
 Variable       Old X    -DE/DX   Delta X   Delta X   Delta X     New X
                                 (Linear)    (Quad)   (Total)
    R1        2.65676  -0.04606   0.00000  -0.02678  -0.02677   2.62999
    R2        2.65677  -0.03027   0.00000  -0.01697  -0.01698   2.63979
    R3        2.65677  -0.04942   0.00000  -0.02916  -0.02913   2.62763
    R4        3.33634  -0.11507   0.00000  -0.16829  -0.16829   3.16805
    R5        2.65677  -0.05169   0.00000  -0.03016  -0.03015   2.62662
    R6        3.33633  -0.11338   0.00000  -0.16581  -0.16581   3.17052
    R7        2.65678  -0.03735   0.00000  -0.02119  -0.02120   2.63558
    R8        3.33633  -0.11740   0.00000  -0.17169  -0.17169   3.16464
    R9        2.65675  -0.00688   0.00000  -0.00322  -0.00325   2.65350
   R10        3.33632  -0.02300   0.00000  -0.01760  -0.01760   3.31872
   R11        3.33633  -0.02682   0.00000  -0.02053  -0.02053   3.31580
    A1        2.09439  -0.01680   0.00000  -0.01402  -0.01402   2.08038
    A2        2.09439   0.01737   0.00000   0.01378   0.01382   2.10821
    A3        2.09440  -0.00825   0.00000  -0.00643  -0.00645   2.08795
    A4        2.09439  -0.00912   0.00000  -0.00735  -0.00737   2.08702
    A5        2.09440   0.00221   0.00000  -0.00008  -0.00004   2.09435
    A6        2.09440   0.00166   0.00000   0.00297   0.00295   2.09735
    A7        2.09439  -0.00388   0.00000  -0.00289  -0.00291   2.09149
    A8        2.09439   0.00267   0.00000   0.00198   0.00198   2.09637
    A9        2.09440   0.00006   0.00000   0.00049   0.00049   2.09489
   A10        2.09440  -0.00274   0.00000  -0.00247  -0.00247   2.09193
   A11        2.09439  -0.01048   0.00000  -0.00742  -0.00746   2.08693
   A12        2.09439  -0.00347   0.00000  -0.00358  -0.00356   2.09083
   A13        2.09440   0.01395   0.00000   0.01100   0.01102   2.10543
   A14        2.09440   0.00503   0.00000   0.00577   0.00573   2.10013
   A15        2.09439  -0.00404   0.00000  -0.00416  -0.00414   2.09025
   A16        2.09439  -0.00098   0.00000  -0.00160  -0.00158   2.09281
    D1        0.00000   0.00000   0.00000   0.00000  -0.00000   0.00000
    D2        3.14159   0.00000   0.00000   0.00000   0.00000   3.14159
    D3        0.00000  -0.00000   0.00000  -0.00000   0.00000   0.00000
    D4        3.14159  -0.00000   0.00000  -0.00000   0.00000   3.14159
    D5       -0.00000  -0.00000   0.00000  -0.00000   0.00000   0.00000
    D6        3.14159   0.00000   0.00000   0.00000   0.00000   3.14159
    D7        3.14159  -0.00000   0.00000  -0.00000   0.00000   3.14159
    D8        0.00000   0.00000   0.00000   0.00000  -0.00000   0.00000
    D9        0.00000  -0.00000   0.00000   0.00000  -0.00000   0.00000
   D10        3.14159   0.00000   0.00000   0.00000   0.00000   3.14159
   D11        3.14159  -0.00000   0.00000  -0.00000   0.00000   3.14159
   D12       -0.00000  -0.00000   0.00000  -0.00000   0.00000   0.00000
   D13       -0.00000   0.00000   0.00000   0.00000   0.00000   0.00000
   D14        3.14159   0.00000   0.00000   0.00000   0.00000   3.14159
   D15        3.14159  -0.00000   0.00000  -0.00000   0.00000   3.14159
   D16        0.00000  -0.00000   0.00000  -0.00000  -0.00000   0.00000
   D17        0.00000  -0.00000   0.00000  -0.00000  -0.00000   0.00000
   D18        3.14159  -0.00000   0.00000  -0.00000   0.00000   3.14159
   D19        3.14159  -0.00000   0.00000  -0.00000   0.00000   3.14159
   D20       -0.00000   0.00000   0.00000  -0.00000   0.00000   0.00000
         Item               Value     Threshold  Converged?
 Maximum Force            0.117401     0.000450     NO 
 RMS     Force            0.033216     0.000300     NO 
 Maximum Displacement     0.190853     0.001800     NO 
 RMS     Displacement     0.049868     0.001200     NO 
 Predicted change in Energy=-6.205607D-02
 GradGradGradGradGradGradGradGradGradGradGradGradGradGradGradGradGradGrad

                          Input orientation:                          
 ---------------------------------------------------------------------
 Center     Atomic      Atomic             Coordinates (Angstroms)
 Number     Number       Type             X           Y           Z
 ---------------------------------------------------------------------
      1          6           0       -3.192351    0.209141   -0.000000
      2          6           0       -1.997847    0.923340   -0.000000
      3          6           0       -0.773936    0.263424   -0.000000
      4          6           0       -0.733557   -1.125934   -0.000000
      5          6           0       -1.919178   -1.860412   -0.000000
      6          6           0       -3.151431   -1.187174    0.000000
      7         17           0       -4.648457   -2.102436    0.000000
      8          1           0        0.740056   -1.921508   -0.000000
      9         17           0       -1.858435   -3.615552    0.000000
     10          1           0       -2.034260    2.599405   -0.000000
     11          1           0        0.656626    1.140006   -0.000000
 ---------------------------------------------------------------------
                    Distance matrix (angstroms):
                    1          2          3          4          5
     1  C    0.000000
     2  C    1.391733   0.000000
     3  C    2.419024   1.390485   0.000000
     4  C    2.797874   2.407894   1.389945   0.000000
     5  C    2.429819   2.784863   2.412935   1.394688   0.000000
     6  C    1.396914   2.405208   2.785088   2.418650   1.404171
     7  Cl   2.731965   4.022568   4.539736   4.034848   2.739989
     8  H    4.472527   3.948326   2.658214   1.674656   2.659936
     9  Cl   4.050631   4.541032   4.027728   2.731949   1.756191
    10  H    2.656038   1.676461   2.654284   3.945882   4.461301
    11  H    3.959942   2.663301   1.677768   2.658401   3.954399
                    6          7          8          9         10
     6  C    0.000000
     7  Cl   1.754648   0.000000
     8  H    3.960167   5.391550   0.000000
     9  Cl   2.751156   3.173916   3.101925   0.000000
    10  H    3.947943   5.379715   5.304289   6.217444   0.000000
    11  H    4.462855   6.217503   3.062651   5.379672   3.061162
                   11
    11  H    0.000000
 Stoichiometry    C6H3Cl2(1-)
 Framework group  CS[SG(C6H3Cl2)]
 Deg. of freedom    19
 Full point group                 CS      NOp   2
 Largest Abelian subgroup         CS      NOp   2
 Largest concise Abelian subgroup C1      NOp   1
                         Standard orientation:                         
 ---------------------------------------------------------------------
 Center     Atomic      Atomic             Coordinates (Angstroms)
 Number     Number       Type             X           Y           Z
 ---------------------------------------------------------------------
      1          6           0        1.169401   -1.471714    0.000000
      2          6           0        2.380792   -0.786548    0.000000
      3          6           0        2.412317    0.603579    0.000000
      4          6           0        1.224626    1.325615    0.000000
      5          6           0        0.000000    0.658197    0.000000
      6          6           0       -0.024070   -0.745768   -0.000000
      7         17           0       -1.559804   -1.594479   -0.000000
      8          1           0        1.261694    2.999861    0.000000
      9         17           0       -1.495567    1.578787   -0.000000
     10          1           0        3.819656   -1.646893    0.000000
     11          1           0        3.881569    1.413643    0.000000
 ---------------------------------------------------------------------
 Rotational constants (GHZ):           1.9395675           1.3804587           0.8064674
 Standard basis: VSTO-6G (5D, 7F)
 There are    27 symmetry adapted cartesian basis functions of A'  symmetry.
 There are     8 symmetry adapted cartesian basis functions of A"  symmetry.
 There are    27 symmetry adapted basis functions of A'  symmetry.
 There are     8 symmetry adapted basis functions of A"  symmetry.
    35 basis functions,   210 primitive gaussians,    35 cartesian basis functions
    21 alpha electrons       21 beta electrons
       nuclear repulsion energy       194.0679480817 Hartrees.
 Integral buffers will be    131072 words long.
 Regular integral format.
 Two-electron integral symmetry is turned off.
 Do NDO integrals.
 One-electron integrals computed using PRISM.
 NBasis=    35 RedAO= T EigKep=  1.00D+00  NBF=    27     8
 NBsUse=    35 1.00D-06 EigRej= -1.00D+00 NBFU=    27     8
 Initial guess from the checkpoint file:  "geometry_chks/1_4ClBzAnionIntermediate.chk"
 B after Tr=    -0.000000   -0.000000    0.000000
         Rot=    0.999943    0.000000    0.000000    0.010672 Ang=   1.22 deg.
 Initial guess orbital symmetries:
       Occupied  (A') (A') (A') (A') (A') (A') (A') (A') (A') (A')
                 (A") (A") (A') (A') (A") (A') (A') (A') (A") (A")
                 (A')
       Virtual   (A') (A') (A") (A') (A") (A') (A') (A") (A') (A')
                 (A') (A') (A') (A')
 Keep J ints in memory in canonical form, NReq=862793.
 Overlap will be assumed to be unity.
 Requested convergence on RMS density matrix=1.00D-08 within**** cycles.
 Requested convergence on MAX density matrix=1.00D-06.
 Requested convergence on             energy=1.00D-06.
 No special actions if energy rises.
 Fock symm off for IB=2 I1=    1 I=   28 J=   24 Cut=1.00D-07 Err=9.52D-04
 Fock matrix is not symmetric: symmetry in diagonalization turned off.
 SCF Done:  E(RAM1) =  0.349243568238     A.U. after   14 cycles
            NFock= 13  Conv=0.28D-08     -V/T= 1.0038
 Calling FoFJK, ICntrl=      2127 FMM=F ISym2X=1 I1Cent= 0 IOpClX= 0 NMat=1 NMatS=1 NMatT=0.
 ***** Axes restored to original set *****
 -------------------------------------------------------------------
 Center     Atomic                   Forces (Hartrees/Bohr)
 Number     Number              X              Y              Z
 -------------------------------------------------------------------
      1        6           0.009188239    0.006462035   -0.000000000
      2        6           0.002479338    0.075732354   -0.000000000
      3        6           0.078761086    0.054634216   -0.000000000
      4        6           0.089093408   -0.035375467   -0.000000000
      5        6           0.009734134   -0.019170105    0.000000000
      6        6          -0.005482614    0.013348153    0.000000000
      7       17           0.016993494    0.010872777    0.000000000
      8        1          -0.107358460    0.057026413    0.000000000
      9       17           0.003535667    0.018493699   -0.000000000
     10        1           0.002871230   -0.119018726    0.000000000
     11        1          -0.099815523   -0.063005348    0.000000000
 -------------------------------------------------------------------
 Cartesian Forces:  Max     0.119018726 RMS     0.045580877

 GradGradGradGradGradGradGradGradGradGradGradGradGradGradGradGradGradGrad
 Berny optimization.
 Using GEDIIS/GDIIS optimizer.
 FormGI is forming the generalized inverse of G from B-inverse, IUseBI=4.
 Internal  Forces:  Max     0.121561404 RMS     0.031671584
 Search for a local minimum.
 Step number   2 out of a maximum of   57
 All quantities printed in internal units (Hartrees-Bohrs-Radians)
 Mixed Optimization -- RFO/linear search
 Update second derivatives using D2CorX and points    1    2
 DE= -6.55D-02 DEPred=-6.21D-02 R= 1.06D+00
 TightC=F SS=  1.41D+00  RLast= 3.00D-01 DXNew= 5.0454D-01 9.0000D-01
 Trust test= 1.06D+00 RLast= 3.00D-01 DXMaxT set to 5.05D-01
 ITU=  1  0
 Use linear search instead of GDIIS.
 Linear search step of   0.600 exceeds DXMaxT=   0.505 but not scaled.
 Quartic linear search produced a step of  2.00000.
 Iteration  1 RMS(Cart)=  0.06873050 RMS(Int)=  0.03470278
 Iteration  2 RMS(Cart)=  0.03247858 RMS(Int)=  0.00009486
 Iteration  3 RMS(Cart)=  0.00001471 RMS(Int)=  0.00009437
 Iteration  4 RMS(Cart)=  0.00000000 RMS(Int)=  0.00009437
 ClnCor:  largest displacement from symmetrization is 6.75D-09 for atom     9.
 Variable       Old X    -DE/DX   Delta X   Delta X   Delta X     New X
                                 (Linear)    (Quad)   (Total)
    R1        2.62999  -0.02539  -0.05354   0.00000  -0.05345   2.57655
    R2        2.63979  -0.01621  -0.03396   0.00000  -0.03404   2.60575
    R3        2.62763  -0.02840  -0.05826   0.00000  -0.05810   2.56953
    R4        3.16805  -0.11905  -0.33658   0.00000  -0.33658   2.83147
    R5        2.62662  -0.02877  -0.06030   0.00000  -0.06023   2.56639
    R6        3.17052  -0.11803  -0.33162   0.00000  -0.33162   2.83890
    R7        2.63558  -0.01911  -0.04240   0.00000  -0.04248   2.59310
    R8        3.16464  -0.12156  -0.34338   0.00000  -0.34338   2.82126
    R9        2.65350  -0.00046  -0.00650   0.00000  -0.00666   2.64684
   R10        3.31872  -0.01836  -0.03520   0.00000  -0.03520   3.28352
   R11        3.31580  -0.02017  -0.04106   0.00000  -0.04106   3.27475
    A1        2.08038  -0.01186  -0.02804   0.00000  -0.02802   2.05236
    A2        2.10821   0.01251   0.02764   0.00000   0.02788   2.13609
    A3        2.08795  -0.00580  -0.01289   0.00000  -0.01301   2.07494
    A4        2.08702  -0.00671  -0.01474   0.00000  -0.01486   2.07216
    A5        2.09435   0.00068  -0.00008   0.00000   0.00015   2.09450
    A6        2.09735   0.00215   0.00590   0.00000   0.00578   2.10313
    A7        2.09149  -0.00283  -0.00581   0.00000  -0.00593   2.08555
    A8        2.09637   0.00210   0.00395   0.00000   0.00394   2.10031
    A9        2.09489   0.00025   0.00098   0.00000   0.00099   2.09588
   A10        2.09193  -0.00235  -0.00494   0.00000  -0.00493   2.08700
   A11        2.08693  -0.00772  -0.01492   0.00000  -0.01517   2.07176
   A12        2.09083  -0.00307  -0.00712   0.00000  -0.00700   2.08383
   A13        2.10543   0.01078   0.02205   0.00000   0.02217   2.12759
   A14        2.10013   0.00430   0.01145   0.00000   0.01122   2.11135
   A15        2.09025  -0.00283  -0.00829   0.00000  -0.00817   2.08208
   A16        2.09281  -0.00147  -0.00317   0.00000  -0.00305   2.08976
    D1        0.00000   0.00000   0.00000   0.00000   0.00000   0.00000
    D2        3.14159   0.00000   0.00000   0.00000   0.00000   3.14159
    D3       -0.00000  -0.00000   0.00000   0.00000   0.00000   0.00000
    D4        3.14159  -0.00000   0.00000   0.00000   0.00000   3.14159
    D5        0.00000   0.00000   0.00000   0.00000   0.00000   0.00000
    D6        3.14159   0.00000   0.00000   0.00000   0.00000   3.14159
    D7        3.14159  -0.00000   0.00000   0.00000   0.00000   3.14159
    D8       -0.00000  -0.00000   0.00000   0.00000   0.00000   0.00000
    D9       -0.00000  -0.00000   0.00000   0.00000   0.00000   0.00000
   D10        3.14159   0.00000   0.00000   0.00000   0.00000   3.14159
   D11        3.14159  -0.00000   0.00000   0.00000   0.00000   3.14159
   D12        0.00000  -0.00000   0.00000   0.00000   0.00000   0.00000
   D13        0.00000   0.00000   0.00000   0.00000   0.00000   0.00000
   D14        3.14159   0.00000   0.00000   0.00000   0.00000   3.14159
   D15        3.14159  -0.00000   0.00000   0.00000   0.00000   3.14159
   D16        0.00000  -0.00000   0.00000   0.00000  -0.00000   0.00000
   D17        0.00000   0.00000   0.00000   0.00000  -0.00000   0.00000
   D18        3.14159   0.00000   0.00000   0.00000   0.00000   3.14159
   D19        3.14159   0.00000   0.00000   0.00000   0.00000   3.14159
   D20       -0.00000   0.00000   0.00000   0.00000   0.00000   0.00000
         Item               Value     Threshold  Converged?
 Maximum Force            0.121561     0.000450     NO 
 RMS     Force            0.031672     0.000300     NO 
 Maximum Displacement     0.381792     0.001800     NO 
 RMS     Displacement     0.099660     0.001200     NO 
 Predicted change in Energy=-1.282832D-01
 GradGradGradGradGradGradGradGradGradGradGradGradGradGradGradGradGradGrad

                          Input orientation:                          
 ---------------------------------------------------------------------
 Center     Atomic      Atomic             Coordinates (Angstroms)
 Number     Number       Type             X           Y           Z
 ---------------------------------------------------------------------
      1          6           0       -3.157354    0.228667   -0.000000
      2          6           0       -1.970120    0.899092   -0.000000
      3          6           0       -0.771306    0.257429   -0.000000
      4          6           0       -0.727504   -1.099939   -0.000000
      5          6           0       -1.888821   -1.830895   -0.000000
      6          6           0       -3.112553   -1.149507   -0.000000
      7         17           0       -4.595518   -2.046074    0.000000
      8          1           0        0.587780   -1.806276   -0.000000
      9         17           0       -1.804164   -3.566393    0.000000
     10          1           0       -1.984972    2.397369   -0.000000
     11          1           0        0.511762    1.038827   -0.000000
 ---------------------------------------------------------------------
                    Distance matrix (angstroms):
                    1          2          3          4          5
     1  C    0.000000
     2  C    1.363449   0.000000
     3  C    2.386221   1.359738   0.000000
     4  C    2.769361   2.353767   1.358074   0.000000
     5  C    2.418878   2.731197   2.368530   1.372207   0.000000
     6  C    1.378902   2.345616   2.731466   2.385564   1.400646
     7  Cl   2.691238   3.945468   4.464384   3.982047   2.715237
     8  H    4.262279   3.723154   2.471031   1.492945   2.476724
     9  Cl   4.029094   4.468568   3.960859   2.691206   1.737562
    10  H    2.465309   1.498350   2.460148   3.716502   4.229357
    11  H    3.757495   2.485812   1.502281   2.471862   3.741404
                    6          7          8          9         10
     6  C    0.000000
     7  Cl   1.732921   0.000000
     8  H    3.758167   5.188842   0.000000
     9  Cl   2.748312   3.178526   2.969748   0.000000
    10  H    3.721797   5.153556   4.928457   5.966502   0.000000
    11  H    4.233730   5.966651   2.846119   5.154761   2.842414
                   11
    11  H    0.000000
 Stoichiometry    C6H3Cl2(1-)
 Framework group  CS[SG(C6H3Cl2)]
 Deg. of freedom    19
 Full point group                 CS      NOp   2
 Largest Abelian subgroup         CS      NOp   2
 Largest concise Abelian subgroup C1      NOp   1
                         Standard orientation:                         
 ---------------------------------------------------------------------
 Center     Atomic      Atomic             Coordinates (Angstroms)
 Number     Number       Type             X           Y           Z
 ---------------------------------------------------------------------
      1          6           0        1.160656   -1.466807    0.000000
      2          6           0        2.331181   -0.767617   -0.000000
      3          6           0        2.367671    0.591631   -0.000000
      4          6           0        1.210266    1.302110   -0.000000
      5          6           0        0.000000    0.655420   -0.000000
      6          6           0       -0.014328   -0.745153    0.000000
      7         17           0       -1.527797   -1.589207    0.000000
      8          1           0        1.248275    2.794572   -0.000000
      9         17           0       -1.465635    1.588712   -0.000000
     10          1           0        3.625330   -1.522754   -0.000000
     11          1           0        3.682070    1.319094   -0.000000
 ---------------------------------------------------------------------
 Rotational constants (GHZ):           1.9607561           1.4416643           0.8308062
 Standard basis: VSTO-6G (5D, 7F)
 There are    27 symmetry adapted cartesian basis functions of A'  symmetry.
 There are     8 symmetry adapted cartesian basis functions of A"  symmetry.
 There are    27 symmetry adapted basis functions of A'  symmetry.
 There are     8 symmetry adapted basis functions of A"  symmetry.
    35 basis functions,   210 primitive gaussians,    35 cartesian basis functions
    21 alpha electrons       21 beta electrons
       nuclear repulsion energy       196.4081720198 Hartrees.
 Integral buffers will be    131072 words long.
 Regular integral format.
 Two-electron integral symmetry is turned off.
 Do NDO integrals.
 One-electron integrals computed using PRISM.
 NBasis=    35 RedAO= T EigKep=  1.00D+00  NBF=    27     8
 NBsUse=    35 1.00D-06 EigRej= -1.00D+00 NBFU=    27     8
 Initial guess from the checkpoint file:  "geometry_chks/1_4ClBzAnionIntermediate.chk"
 B after Tr=     0.000000   -0.000000    0.000000
         Rot=    1.000000    0.000000    0.000000    0.000784 Ang=   0.09 deg.
 Initial guess orbital symmetries:
       Occupied  (A') (A') (A') (A') (A') (A') (A') (A') (A') (A')
                 (A") (A') (A") (A') (A") (A') (A') (A') (A") (A")
                 (A')
       Virtual   (A') (A") (A') (A') (A") (A') (A') (A") (A') (A')
                 (A') (A') (A') (A')
 Keep J ints in memory in canonical form, NReq=862793.
 Overlap will be assumed to be unity.
 Requested convergence on RMS density matrix=1.00D-08 within**** cycles.
 Requested convergence on MAX density matrix=1.00D-06.
 Requested convergence on             energy=1.00D-06.
 No special actions if energy rises.
 Fock symm off for IB=2 I1=    1 I=   28 J=    6 Cut=1.00D-07 Err=2.95D-03
 Fock matrix is not symmetric: symmetry in diagonalization turned off.
 SCF Done:  E(RAM1) =  0.225920534352     A.U. after   14 cycles
            NFock= 13  Conv=0.46D-08     -V/T= 1.0025
 Calling FoFJK, ICntrl=      2127 FMM=F ISym2X=1 I1Cent= 0 IOpClX= 0 NMat=1 NMatS=1 NMatT=0.
 ***** Axes restored to original set *****
 -------------------------------------------------------------------
 Center     Atomic                   Forces (Hartrees/Bohr)
 Number     Number              X              Y              Z
 -------------------------------------------------------------------
      1        6          -0.020403466    0.004337487   -0.000000000
      2        6          -0.003139020    0.133195404   -0.000000000
      3        6           0.119389988    0.079733708    0.000000000
      4        6           0.123057849   -0.068726051   -0.000000000
      5        6          -0.010440280   -0.030642157    0.000000000
      6        6          -0.013613281   -0.006939299   -0.000000000
      7       17           0.005307701    0.002408636   -0.000000000
      8        1          -0.104203132    0.055221522    0.000000000
      9       17           0.001374669    0.008338963    0.000000000
     10        1           0.001391552   -0.115439715    0.000000000
     11        1          -0.098722580   -0.061488499    0.000000000
 -------------------------------------------------------------------
 Cartesian Forces:  Max     0.133195404 RMS     0.055271697

 GradGradGradGradGradGradGradGradGradGradGradGradGradGradGradGradGradGrad
 Berny optimization.
 Using GEDIIS/GDIIS optimizer.
 FormGI is forming the generalized inverse of G from B-inverse, IUseBI=4.
 Internal  Forces:  Max     0.117929160 RMS     0.030392887
 Search for a local minimum.
 Step number   3 out of a maximum of   57
 All quantities printed in internal units (Hartrees-Bohrs-Radians)
 Mixed Optimization -- RFO/linear search
 Update second derivatives using D2CorX and points    2    3
 ITU=  0  1  0
 Use linear search instead of GDIIS.
 Linear search step of   1.087 exceeds DXMaxT=   0.505 scaled by   0.928
 Quartic linear search produced a step of  1.68180.
 Iteration  1 RMS(Cart)=  0.08619887 RMS(Int)=  0.09281781
 Iteration  2 RMS(Cart)=  0.04714676 RMS(Int)=  0.04231496
 Iteration  3 RMS(Cart)=  0.03959994 RMS(Int)=  0.00029910
 Iteration  4 RMS(Cart)=  0.00002669 RMS(Int)=  0.00029815
 Iteration  5 RMS(Cart)=  0.00000000 RMS(Int)=  0.00029815
 ClnCor:  largest displacement from symmetrization is 9.90D-09 for atom     8.
 Variable       Old X    -DE/DX   Delta X   Delta X   Delta X     New X
                                 (Linear)    (Quad)   (Total)
    R1        2.57655   0.02122  -0.08989   0.00000  -0.08959   2.48696
    R2        2.60575   0.01484  -0.05724   0.00000  -0.05751   2.54824
    R3        2.56953   0.02127  -0.09772   0.00000  -0.09720   2.47234
    R4        2.83147  -0.11545  -0.56606   0.00000  -0.56606   2.26541
    R5        2.56639   0.02552  -0.10129   0.00000  -0.10103   2.46536
    R6        2.83890  -0.11630  -0.55772   0.00000  -0.55772   2.28118
    R7        2.59310   0.02276  -0.07145   0.00000  -0.07170   2.52139
    R8        2.82126  -0.11793  -0.57750   0.00000  -0.57750   2.24376
    R9        2.64684   0.01394  -0.01120   0.00000  -0.01172   2.63511
   R10        3.28352  -0.00826  -0.05921   0.00000  -0.05921   3.22431
   R11        3.27475  -0.00579  -0.06905   0.00000  -0.06905   3.20569
    A1        2.05236   0.00028  -0.04712   0.00000  -0.04708   2.00527
    A2        2.13609   0.00039   0.04688   0.00000   0.04762   2.18371
    A3        2.07494   0.00016  -0.02188   0.00000  -0.02225   2.05269
    A4        2.07216  -0.00054  -0.02500   0.00000  -0.02537   2.04679
    A5        2.09450  -0.00358   0.00025   0.00000   0.00099   2.09549
    A6        2.10313   0.00345   0.00973   0.00000   0.00936   2.11249
    A7        2.08555   0.00014  -0.00997   0.00000  -0.01034   2.07521
    A8        2.10031   0.00031   0.00663   0.00000   0.00663   2.10694
    A9        2.09588   0.00076   0.00166   0.00000   0.00166   2.09754
   A10        2.08700  -0.00107  -0.00829   0.00000  -0.00829   2.07871
   A11        2.07176  -0.00087  -0.02551   0.00000  -0.02628   2.04548
   A12        2.08383  -0.00249  -0.01177   0.00000  -0.01139   2.07244
   A13        2.12759   0.00335   0.03728   0.00000   0.03767   2.16526
   A14        2.11135   0.00346   0.01887   0.00000   0.01813   2.12948
   A15        2.08208  -0.00061  -0.01374   0.00000  -0.01337   2.06871
   A16        2.08976  -0.00285  -0.00513   0.00000  -0.00476   2.08500
    D1       -0.00000  -0.00000   0.00000   0.00000   0.00000   0.00000
    D2        3.14159   0.00000   0.00000   0.00000   0.00000   3.14159
    D3       -0.00000  -0.00000   0.00000   0.00000   0.00000   0.00000
    D4        3.14159  -0.00000   0.00000   0.00000   0.00000   3.14159
    D5        0.00000   0.00000   0.00000   0.00000   0.00000   0.00000
    D6        3.14159   0.00000   0.00000   0.00000   0.00000   3.14159
    D7        3.14159  -0.00000   0.00000   0.00000   0.00000   3.14159
    D8        0.00000  -0.00000   0.00000   0.00000  -0.00000   0.00000
    D9        0.00000  -0.00000   0.00000   0.00000  -0.00000   0.00000
   D10        3.14159   0.00000   0.00000   0.00000   0.00000   3.14159
   D11        3.14159  -0.00000   0.00000   0.00000   0.00000   3.14159
   D12       -0.00000  -0.00000   0.00000   0.00000   0.00000   0.00000
   D13       -0.00000  -0.00000   0.00000   0.00000   0.00000   0.00000
   D14        3.14159   0.00000   0.00000   0.00000   0.00000   3.14159
   D15        3.14159  -0.00000   0.00000   0.00000   0.00000   3.14159
   D16        0.00000  -0.00000   0.00000   0.00000  -0.00000   0.00000
   D17        0.00000   0.00000   0.00000   0.00000  -0.00000   0.00000
   D18        3.14159   0.00000   0.00000   0.00000   0.00000   3.14159
   D19        3.14159   0.00000   0.00000   0.00000   0.00000   3.14159
   D20       -0.00000   0.00000   0.00000   0.00000   0.00000   0.00000
         Item               Value     Threshold  Converged?
 Maximum Force            0.117929     0.000450     NO 
 RMS     Force            0.030393     0.000300     NO 
 Maximum Displacement     0.642083     0.001800     NO 
 RMS     Displacement     0.167356     0.001200     NO 
 Predicted change in Energy=-1.666797D-01
 GradGradGradGradGradGradGradGradGradGradGradGradGradGradGradGradGradGrad

                          Input orientation:                          
 ---------------------------------------------------------------------
 Center     Atomic      Atomic             Coordinates (Angstroms)
 Number     Number       Type             X           Y           Z
 ---------------------------------------------------------------------
      1          6           0       -3.094973    0.261813   -0.000000
      2          6           0       -1.922157    0.858861   -0.000000
      3          6           0       -0.765959    0.246598   -0.000000
      4          6           0       -0.716804   -1.057089   -0.000000
      5          6           0       -1.837358   -1.781394   -0.000000
      6          6           0       -3.045897   -1.085764   -0.000000
      7         17           0       -4.505834   -1.949647    0.000000
      8          1           0        0.331355   -1.614900   -0.000000
      9         17           0       -1.714302   -3.483182    0.000000
     10          1           0       -1.908955    2.057593   -0.000000
     11          1           0        0.268115    0.869410   -0.000000
 ---------------------------------------------------------------------
                    Distance matrix (angstroms):
                    1          2          3          4          5
     1  C    0.000000
     2  C    1.316040   0.000000
     3  C    2.329064   1.308304   0.000000
     4  C    2.719410   2.263568   1.304614   0.000000
     5  C    2.399228   2.641617   2.293611   1.334264   0.000000
     6  C    1.348471   2.245965   2.640702   2.329270   1.394442
     7  Cl   2.623182   3.816163   4.337068   3.892738   2.673774
     8  H    3.906632   3.346312   2.160850   1.187345   2.175095
     9  Cl   3.991396   4.347015   3.848456   2.623152   1.706231
    10  H    2.152084   1.198805   2.141528   3.335037   3.839655
    11  H    3.417534   2.190298   1.207147   2.163670   3.385231
                    6          7          8          9         10
     6  C    0.000000
     7  Cl   1.696381   0.000000
     8  H    3.418452   4.848757   0.000000
     9  Cl   2.742400   3.185025   2.770413   0.000000
    10  H    3.342654   4.775118   4.301882   5.544193   0.000000
    11  H    3.847777   5.544157   2.485115   4.782785   2.480204
                   11
    11  H    0.000000
 Stoichiometry    C6H3Cl2(1-)
 Framework group  CS[SG(C6H3Cl2)]
 Deg. of freedom    19
 Full point group                 CS      NOp   2
 Largest Abelian subgroup         CS      NOp   2
 Largest concise Abelian subgroup C1      NOp   1
                         Standard orientation:                         
 ---------------------------------------------------------------------
 Center     Atomic      Atomic             Coordinates (Angstroms)
 Number     Number       Type             X           Y           Z
 ---------------------------------------------------------------------
      1          6           0        1.146291   -1.456614    0.000000
      2          6           0        2.247839   -0.736507    0.000000
      3          6           0        2.292215    0.571044    0.000000
      4          6           0        1.185917    1.262508    0.000000
      5          6           0        0.000000    0.651065   -0.000000
      6          6           0        0.001885   -0.743375    0.000000
      7         17           0       -1.474001   -1.579717   -0.000000
      8          1           0        1.223751    2.449250   -0.000000
      9         17           0       -1.414812    1.604757   -0.000000
     10          1           0        3.294139   -1.321650    0.000000
     11          1           0        3.347060    1.157990    0.000000
 ---------------------------------------------------------------------
 Rotational constants (GHZ):           1.9965787           1.5535327           0.8737051
 Standard basis: VSTO-6G (5D, 7F)
 There are    27 symmetry adapted cartesian basis functions of A'  symmetry.
 There are     8 symmetry adapted cartesian basis functions of A"  symmetry.
 There are    27 symmetry adapted basis functions of A'  symmetry.
 There are     8 symmetry adapted basis functions of A"  symmetry.
    35 basis functions,   210 primitive gaussians,    35 cartesian basis functions
    21 alpha electrons       21 beta electrons
       nuclear repulsion energy       200.7640043026 Hartrees.
 Integral buffers will be    131072 words long.
 Regular integral format.
 Two-electron integral symmetry is turned off.
 Do NDO integrals.
 One-electron integrals computed using PRISM.
 NBasis=    35 RedAO= T EigKep=  1.00D+00  NBF=    27     8
 NBsUse=    35 1.00D-06 EigRej= -1.00D+00 NBFU=    27     8
 Initial guess from the checkpoint file:  "geometry_chks/1_4ClBzAnionIntermediate.chk"
 B after Tr=    -0.000000    0.000000    0.000000
         Rot=    0.999999    0.000000   -0.000000    0.001464 Ang=   0.17 deg.
 Initial guess orbital symmetries:
       Occupied  (A') (A') (A') (A') (A') (A') (A') (A') (A') (A')
                 (A") (A') (A") (A') (A") (A') (A') (A') (A") (A")
                 (A')
       Virtual   (A") (A') (A") (A') (A') (A') (A') (A") (A') (A')
                 (A') (A') (A') (A')
 Keep J ints in memory in canonical form, NReq=862793.
 Overlap will be assumed to be unity.
 Requested convergence on RMS density matrix=1.00D-08 within**** cycles.
 Requested convergence on MAX density matrix=1.00D-06.
 Requested convergence on             energy=1.00D-06.
 No special actions if energy rises.
 Fock symm off for IB=2 I1=    1 I=   28 J=   24 Cut=1.00D-07 Err=2.41D-03
 Fock matrix is not symmetric: symmetry in diagonalization turned off.
 SCF Done:  E(RAM1) =  0.103096036785     A.U. after   14 cycles
            NFock= 13  Conv=0.57D-08     -V/T= 1.0011
 Calling FoFJK, ICntrl=      2127 FMM=F ISym2X=1 I1Cent= 0 IOpClX= 0 NMat=1 NMatS=1 NMatT=0.
 ***** Axes restored to original set *****
 -------------------------------------------------------------------
 Center     Atomic                   Forces (Hartrees/Bohr)
 Number     Number              X              Y              Z
 -------------------------------------------------------------------
      1        6          -0.085486453   -0.001510912   -0.000000000
      2        6          -0.020022595    0.190799357   -0.000000000
      3        6           0.158301630    0.104840667   -0.000000000
      4        6           0.136549520   -0.115571792   -0.000000000
      5        6          -0.056538912   -0.057021965    0.000000000
      6        6          -0.030453057   -0.046829433    0.000000000
      7       17          -0.017258873   -0.013482652   -0.000000000
      8        1          -0.037875721    0.020190999    0.000000000
      9       17          -0.002434559   -0.011638533   -0.000000000
     10        1          -0.000908662   -0.043920177    0.000000000
     11        1          -0.043872318   -0.025855559    0.000000000
 -------------------------------------------------------------------
 Cartesian Forces:  Max     0.190799357 RMS     0.062455806

 GradGradGradGradGradGradGradGradGradGradGradGradGradGradGradGradGradGrad
 Berny optimization.
 Using GEDIIS/GDIIS optimizer.
 FormGI is forming the generalized inverse of G from B-inverse, IUseBI=4.
 Internal  Forces:  Max     0.147401737 RMS     0.042092094
 Search for a local minimum.
 Step number   4 out of a maximum of   57
 All quantities printed in internal units (Hartrees-Bohrs-Radians)
 Mixed Optimization -- RFO/linear search
 Update second derivatives using D2CorX and points    3    4
 ITU=  0  0  1  0
 Use linear search instead of GDIIS.
     Eigenvalues ---    0.02011   0.02011   0.02011   0.02011   0.02011
     Eigenvalues ---    0.02011   0.02011   0.02011   0.06502   0.06524
     Eigenvalues ---    0.08773   0.15998   0.16000   0.16001   0.22087
     Eigenvalues ---    0.23312   0.24952   0.24978   0.25021   0.28774
     Eigenvalues ---    0.29041   0.40822   0.41364   0.44628   0.44656
     Eigenvalues ---    0.44657   0.67412
 RFO step:  Lambda=-1.48838181D-01 EMin= 2.01065872D-02
 Quartic linear search produced a step of  0.06932.
 Maximum step size (   0.505) exceeded in Quadratic search.
    -- Step size scaled by   0.863
 Iteration  1 RMS(Cart)=  0.05852343 RMS(Int)=  0.01131766
 Iteration  2 RMS(Cart)=  0.01073978 RMS(Int)=  0.00045315
 Iteration  3 RMS(Cart)=  0.00002204 RMS(Int)=  0.00045284
 Iteration  4 RMS(Cart)=  0.00000000 RMS(Int)=  0.00045284
 ClnCor:  largest displacement from symmetrization is 3.92D-09 for atom     9.
 Variable       Old X    -DE/DX   Delta X   Delta X   Delta X     New X
                                 (Linear)    (Quad)   (Total)
    R1        2.48696   0.11776  -0.00621   0.15158   0.14565   2.63260
    R2        2.54824   0.07650  -0.00399   0.09526   0.09078   2.63902
    R3        2.47234   0.13213  -0.00674   0.17147   0.16548   2.63781
    R4        2.26541  -0.04393  -0.03924  -0.19617  -0.23541   2.03000
    R5        2.46536   0.14740  -0.00700   0.19028   0.18376   2.64913
    R6        2.28118  -0.05092  -0.03866  -0.21987  -0.25853   2.02265
    R7        2.52139   0.11222  -0.00497   0.14272   0.13750   2.65889
    R8        2.24376  -0.04292  -0.04003  -0.19418  -0.23421   2.00955
    R9        2.63511   0.04369  -0.00081   0.05220   0.05064   2.68576
   R10        3.22431   0.01143  -0.00410   0.02005   0.01594   3.24025
   R11        3.20569   0.02172  -0.00479   0.03801   0.03323   3.23892
    A1        2.00527   0.02808  -0.00326   0.04910   0.04552   2.05079
    A2        2.18371  -0.02791   0.00330  -0.04699  -0.04267   2.14104
    A3        2.05269   0.01347  -0.00154   0.02249   0.02044   2.07313
    A4        2.04679   0.01443  -0.00176   0.02450   0.02223   2.06902
    A5        2.09549  -0.01604   0.00007  -0.01888  -0.01754   2.07795
    A6        2.11249   0.00747   0.00065   0.00832   0.00834   2.12082
    A7        2.07521   0.00858  -0.00072   0.01055   0.00920   2.08441
    A8        2.10694  -0.00529   0.00046  -0.00543  -0.00472   2.10222
    A9        2.09754   0.00261   0.00012   0.00275   0.00274   2.10028
   A10        2.07871   0.00268  -0.00057   0.00268   0.00198   2.08069
   A11        2.04548   0.01571  -0.00182   0.02264   0.01981   2.06529
   A12        2.07244  -0.00259  -0.00079  -0.00133  -0.00161   2.07083
   A13        2.16526  -0.01312   0.00261  -0.02131  -0.01820   2.14706
   A14        2.12948   0.00545   0.00126  -0.00044  -0.00040   2.12908
   A15        2.06871   0.00179  -0.00093   0.00886   0.00854   2.07725
   A16        2.08500  -0.00724  -0.00033  -0.00842  -0.00814   2.07686
    D1        0.00000   0.00000   0.00000   0.00000  -0.00000   0.00000
    D2        3.14159   0.00000   0.00000   0.00000   0.00000   3.14159
    D3       -0.00000  -0.00000   0.00000  -0.00000   0.00000   0.00000
    D4        3.14159  -0.00000   0.00000  -0.00000   0.00000   3.14159
    D5       -0.00000  -0.00000   0.00000   0.00000   0.00000   0.00000
    D6        3.14159  -0.00000   0.00000   0.00000   0.00000   3.14159
    D7        3.14159  -0.00000   0.00000  -0.00000   0.00000   3.14159
    D8        0.00000  -0.00000   0.00000  -0.00000  -0.00000   0.00000
    D9        0.00000  -0.00000   0.00000  -0.00000  -0.00000   0.00000
   D10        3.14159   0.00000   0.00000   0.00000   0.00000   3.14159
   D11        3.14159  -0.00000   0.00000  -0.00000   0.00000   3.14159
   D12        0.00000   0.00000   0.00000   0.00000   0.00000   0.00000
   D13        0.00000   0.00000   0.00000   0.00000   0.00000   0.00000
   D14        3.14159   0.00000   0.00000   0.00000   0.00000   3.14159
   D15        3.14159  -0.00000   0.00000  -0.00000   0.00000   3.14159
   D16       -0.00000  -0.00000   0.00000  -0.00000   0.00000   0.00000
   D17        0.00000  -0.00000   0.00000   0.00000   0.00000   0.00000
   D18        3.14159   0.00000   0.00000   0.00000   0.00000   3.14159
   D19        3.14159  -0.00000   0.00000  -0.00000   0.00000   3.14159
   D20        0.00000   0.00000   0.00000   0.00000  -0.00000   0.00000
         Item               Value     Threshold  Converged?
 Maximum Force            0.147402     0.000450     NO 
 RMS     Force            0.042092     0.000300     NO 
 Maximum Displacement     0.207836     0.001800     NO 
 RMS     Displacement     0.059533     0.001200     NO 
 Predicted change in Energy=-9.521695D-02
 GradGradGradGradGradGradGradGradGradGradGradGradGradGradGradGradGradGrad

                          Input orientation:                          
 ---------------------------------------------------------------------
 Center     Atomic      Atomic             Coordinates (Angstroms)
 Number     Number       Type             X           Y           Z
 ---------------------------------------------------------------------
      1          6           0       -3.118551    0.282410   -0.000000
      2          6           0       -1.906291    0.968843   -0.000000
      3          6           0       -0.671610    0.317675   -0.000000
      4          6           0       -0.641010   -1.083849   -0.000000
      5          6           0       -1.838138   -1.823178   -0.000000
      6          6           0       -3.069359   -1.113234   -0.000000
      7         17           0       -4.537952   -1.996924    0.000000
      8          1           0        0.288287   -1.600799   -0.000000
      9         17           0       -1.746929   -3.535418    0.000000
     10          1           0       -1.920143    2.042985   -0.000000
     11          1           0        0.248928    0.863788   -0.000000
 ---------------------------------------------------------------------
                    Distance matrix (angstroms):
                    1          2          3          4          5
     1  C    0.000000
     2  C    1.393113   0.000000
     3  C    2.447195   1.395871   0.000000
     4  C    2.829288   2.411323   1.401858   0.000000
     5  C    2.464337   2.792852   2.438040   1.407026   0.000000
     6  C    1.396510   2.384904   2.792257   2.428526   1.421241
     7  Cl   2.685156   3.965023   4.506214   4.002482   2.705399
     8  H    3.892688   3.379235   2.145215   1.063405   2.138021
     9  Cl   4.056742   4.507079   4.000329   2.689470   1.714667
    10  H    2.129743   1.074232   2.129678   3.378353   3.867033
    11  H    3.417297   2.157779   1.070341   2.141326   3.402298
                    6          7          8          9         10
     6  C    0.000000
     7  Cl   1.713964   0.000000
     8  H    3.392861   4.842468   0.000000
     9  Cl   2.759673   3.186969   2.807998   0.000000
    10  H    3.358930   4.813916   4.260790   5.581091   0.000000
    11  H    3.862596   5.576549   2.464901   4.830782   2.468882
                   11
    11  H    0.000000
 Stoichiometry    C6H3Cl2(1-)
 Framework group  CS[SG(C6H3Cl2)]
 Deg. of freedom    19
 Full point group                 CS      NOp   2
 Largest Abelian subgroup         CS      NOp   2
 Largest concise Abelian subgroup C1      NOp   1
                         Standard orientation:                         
 ---------------------------------------------------------------------
 Center     Atomic      Atomic             Coordinates (Angstroms)
 Number     Number       Type             X           Y           Z
 ---------------------------------------------------------------------
      1          6           0        1.118557   -1.527478   -0.000000
      2          6           0        2.339614   -0.856818   -0.000000
      3          6           0        2.434434    0.535829   -0.000000
      4          6           0        1.258109    1.298367   -0.000000
      5          6           0       -0.000000    0.668379   -0.000000
      6          6           0       -0.042995   -0.752211    0.000000
      7         17           0       -1.566581   -1.537297    0.000000
      8          1           0        1.306640    2.360664   -0.000000
      9         17           0       -1.408830    1.645765    0.000000
     10          1           0        3.246207   -1.433068   -0.000000
     11          1           0        3.382808    1.032032   -0.000000
 ---------------------------------------------------------------------
 Rotational constants (GHZ):           1.9546628           1.4467936           0.8314067
 Standard basis: VSTO-6G (5D, 7F)
 There are    27 symmetry adapted cartesian basis functions of A'  symmetry.
 There are     8 symmetry adapted cartesian basis functions of A"  symmetry.
 There are    27 symmetry adapted basis functions of A'  symmetry.
 There are     8 symmetry adapted basis functions of A"  symmetry.
    35 basis functions,   210 primitive gaussians,    35 cartesian basis functions
    21 alpha electrons       21 beta electrons
       nuclear repulsion energy       197.7951306080 Hartrees.
 Integral buffers will be    131072 words long.
 Regular integral format.
 Two-electron integral symmetry is turned off.
 Do NDO integrals.
 One-electron integrals computed using PRISM.
 NBasis=    35 RedAO= T EigKep=  1.00D+00  NBF=    27     8
 NBsUse=    35 1.00D-06 EigRej= -1.00D+00 NBFU=    27     8
 Initial guess from the checkpoint file:  "geometry_chks/1_4ClBzAnionIntermediate.chk"
 B after Tr=    -0.000000   -0.000000   -0.000000
         Rot=    0.999886   -0.000000    0.000000    0.015102 Ang=   1.73 deg.
 Initial guess orbital symmetries:
       Occupied  (A') (A') (A') (A') (A') (A') (A') (A') (A') (A')
                 (A") (A') (A') (A") (A") (A') (A') (A') (A") (A")
                 (A')
       Virtual   (A") (A') (A") (A') (A') (A') (A") (A') (A') (A')
                 (A') (A') (A') (A')
 Keep J ints in memory in canonical form, NReq=862793.
 Overlap will be assumed to be unity.
 Requested convergence on RMS density matrix=1.00D-08 within**** cycles.
 Requested convergence on MAX density matrix=1.00D-06.
 Requested convergence on             energy=1.00D-06.
 No special actions if energy rises.
 Fock symm off for IB=2 I1=    1 I=   28 J=   13 Cut=1.00D-07 Err=3.10D-03
 Fock matrix is not symmetric: symmetry in diagonalization turned off.
 SCF Done:  E(RAM1) =  0.487592469402E-01 A.U. after   14 cycles
            NFock= 13  Conv=0.79D-08     -V/T= 1.0005
 Calling FoFJK, ICntrl=      2127 FMM=F ISym2X=1 I1Cent= 0 IOpClX= 0 NMat=1 NMatS=1 NMatT=0.
 ***** Axes restored to original set *****
 -------------------------------------------------------------------
 Center     Atomic                   Forces (Hartrees/Bohr)
 Number     Number              X              Y              Z
 -------------------------------------------------------------------
      1        6           0.002481467   -0.013060423   -0.000000000
      2        6           0.001050064   -0.013890962    0.000000000
      3        6          -0.023188396   -0.017768862   -0.000000000
      4        6          -0.024425154    0.005381780   -0.000000000
      5        6          -0.011341197    0.024531418   -0.000000000
      6        6           0.019133291    0.000476401    0.000000000
      7       17          -0.002876682   -0.002096402   -0.000000000
      8        1           0.022627347   -0.011547221    0.000000000
      9       17          -0.000005778   -0.000653258    0.000000000
     10        1          -0.000906874    0.018728760    0.000000000
     11        1           0.017451911    0.009898770    0.000000000
 -------------------------------------------------------------------
 Cartesian Forces:  Max     0.024531418 RMS     0.011493184

 GradGradGradGradGradGradGradGradGradGradGradGradGradGradGradGradGradGrad
 Berny optimization.
 Using GEDIIS/GDIIS optimizer.
 FormGI is forming the generalized inverse of G from B-inverse, IUseBI=4.
 Internal  Forces:  Max     0.025387186 RMS     0.006895301
 Search for a local minimum.
 Step number   5 out of a maximum of   57
 All quantities printed in internal units (Hartrees-Bohrs-Radians)
 Mixed Optimization -- RFO/linear search
 Update second derivatives using D2CorX and points    4    5
 DE= -5.43D-02 DEPred=-9.52D-02 R= 5.71D-01
 TightC=F SS=  1.41D+00  RLast= 5.45D-01 DXNew= 8.4853D-01 1.6341D+00
 Trust test= 5.71D-01 RLast= 5.45D-01 DXMaxT set to 8.49D-01
 ITU=  1  0  0  1  0
 Use linear search instead of GDIIS.
     Eigenvalues ---    0.02011   0.02011   0.02011   0.02011   0.02011
     Eigenvalues ---    0.02011   0.02011   0.02011   0.06519   0.06531
     Eigenvalues ---    0.15993   0.15998   0.16000   0.17425   0.22076
     Eigenvalues ---    0.23398   0.24940   0.24980   0.25017   0.28786
     Eigenvalues ---    0.29034   0.40816   0.41521   0.44577   0.44654
     Eigenvalues ---    0.44656   0.74619
 RFO step:  Lambda=-6.22690256D-03 EMin= 2.01065858D-02
 Quartic linear search produced a step of -0.13369.
 Iteration  1 RMS(Cart)=  0.03205746 RMS(Int)=  0.00011583
 Iteration  2 RMS(Cart)=  0.00015573 RMS(Int)=  0.00005742
 Iteration  3 RMS(Cart)=  0.00000001 RMS(Int)=  0.00005742
 ClnCor:  largest displacement from symmetrization is 1.29D-12 for atom     9.
 Variable       Old X    -DE/DX   Delta X   Delta X   Delta X     New X
                                 (Linear)    (Quad)   (Total)
    R1        2.63260  -0.00118  -0.01947   0.03399   0.01447   2.64708
    R2        2.63902  -0.01114  -0.01214   0.00067  -0.01142   2.62761
    R3        2.63781  -0.00092  -0.02212   0.03835   0.01613   2.65394
    R4        2.03000   0.01874   0.03147   0.04702   0.07849   2.10849
    R5        2.64913  -0.00487  -0.02457   0.03378   0.00916   2.65829
    R6        2.02265   0.02006   0.03456   0.06001   0.09458   2.11723
    R7        2.65889  -0.01005  -0.01838   0.01225  -0.00609   2.65281
    R8        2.00955   0.02539   0.03131   0.12368   0.15499   2.16454
    R9        2.68576  -0.02050  -0.00677  -0.02952  -0.03620   2.64956
   R10        3.24025   0.00065  -0.00213   0.00840   0.00627   3.24652
   R11        3.23892   0.00355  -0.00444   0.02122   0.01678   3.25570
    A1        2.05079   0.00049  -0.00609   0.01327   0.00719   2.05799
    A2        2.14104  -0.00515   0.00570  -0.02507  -0.01951   2.12153
    A3        2.07313   0.00190  -0.00273   0.00906   0.00640   2.07953
    A4        2.06902   0.00325  -0.00297   0.01601   0.01311   2.08213
    A5        2.07795   0.00133   0.00234   0.00667   0.00887   2.08682
    A6        2.12082  -0.00027  -0.00111  -0.00125  -0.00229   2.11853
    A7        2.08441  -0.00106  -0.00123  -0.00542  -0.00658   2.07783
    A8        2.10222  -0.00477   0.00063  -0.01875  -0.01812   2.08410
    A9        2.10028   0.00147  -0.00037   0.00473   0.00437   2.10465
   A10        2.08069   0.00330  -0.00027   0.01402   0.01375   2.09444
   A11        2.06529   0.00681  -0.00265   0.02438   0.02188   2.08717
   A12        2.07083  -0.00334   0.00022  -0.00918  -0.00904   2.06179
   A13        2.14706  -0.00347   0.00243  -0.01520  -0.01284   2.13422
   A14        2.12908   0.00129   0.00005  -0.00051  -0.00031   2.12877
   A15        2.07725  -0.00014  -0.00114   0.00402   0.00280   2.08005
   A16        2.07686  -0.00115   0.00109  -0.00351  -0.00250   2.07436
    D1       -0.00000   0.00000   0.00000   0.00000   0.00000   0.00000
    D2        3.14159   0.00000   0.00000   0.00000   0.00000   3.14159
    D3        0.00000  -0.00000   0.00000  -0.00000  -0.00000   0.00000
    D4        3.14159  -0.00000   0.00000  -0.00000   0.00000   3.14159
    D5        0.00000   0.00000   0.00000   0.00000  -0.00000   0.00000
    D6        3.14159   0.00000   0.00000   0.00000   0.00000   3.14159
    D7        3.14159  -0.00000   0.00000  -0.00000   0.00000   3.14159
    D8        0.00000   0.00000   0.00000   0.00000   0.00000   0.00000
    D9       -0.00000  -0.00000   0.00000  -0.00000   0.00000   0.00000
   D10        3.14159   0.00000   0.00000   0.00000   0.00000   3.14159
   D11        3.14159  -0.00000   0.00000  -0.00000   0.00000   3.14159
   D12        0.00000   0.00000   0.00000   0.00000   0.00000   0.00000
   D13        0.00000   0.00000   0.00000   0.00000  -0.00000   0.00000
   D14        3.14159   0.00000   0.00000   0.00000   0.00000   3.14159
   D15        3.14159  -0.00000   0.00000  -0.00000   0.00000   3.14159
   D16       -0.00000  -0.00000   0.00000  -0.00000   0.00000   0.00000
   D17       -0.00000   0.00000   0.00000   0.00000   0.00000   0.00000
   D18        3.14159  -0.00000   0.00000   0.00000   0.00000   3.14159
   D19        3.14159   0.00000   0.00000   0.00000   0.00000   3.14159
   D20        0.00000  -0.00000   0.00000  -0.00000  -0.00000   0.00000
         Item               Value     Threshold  Converged?
 Maximum Force            0.025387     0.000450     NO 
 RMS     Force            0.006895     0.000300     NO 
 Maximum Displacement     0.122899     0.001800     NO 
 RMS     Displacement     0.032054     0.001200     NO 
 Predicted change in Energy=-4.438195D-03
 GradGradGradGradGradGradGradGradGradGradGradGradGradGradGradGradGradGrad

                          Input orientation:                          
 ---------------------------------------------------------------------
 Center     Atomic      Atomic             Coordinates (Angstroms)
 Number     Number       Type             X           Y           Z
 ---------------------------------------------------------------------
      1          6           0       -3.128565    0.271434   -0.000000
      2          6           0       -1.918802    0.977577   -0.000000
      3          6           0       -0.680785    0.314503   -0.000000
      4          6           0       -0.646596   -1.091786   -0.000000
      5          6           0       -1.852377   -1.810648   -0.000000
      6          6           0       -3.071347   -1.117858   -0.000000
      7         17           0       -4.539736   -2.018982    0.000000
      8          1           0        0.353322   -1.650500   -0.000000
      9         17           0       -1.772326   -3.526765    0.000000
     10          1           0       -1.940692    2.093130   -0.000000
     11          1           0        0.285133    0.882196   -0.000000
 ---------------------------------------------------------------------
                    Distance matrix (angstroms):
                    1          2          3          4          5
     1  C    0.000000
     2  C    1.400772   0.000000
     3  C    2.448159   1.404406   0.000000
     4  C    2.831703   2.429150   1.406704   0.000000
     5  C    2.442073   2.789016   2.426704   1.403806   0.000000
     6  C    1.390470   2.391486   2.786835   2.424892   1.402087
     7  Cl   2.690244   3.981038   4.509619   4.002029   2.695423
     8  H    3.977106   3.474095   2.220499   1.145425   2.211505
     9  Cl   4.033075   4.506723   3.993345   2.682609   1.717983
    10  H    2.174768   1.115768   2.179651   3.437786   3.904776
    11  H    3.467905   2.205999   1.120390   2.182824   3.438074
                    6          7          8          9         10
     6  C    0.000000
     7  Cl   1.722844   0.000000
     8  H    3.465843   4.906913   0.000000
     9  Cl   2.736839   3.151502   2.835269   0.000000
    10  H    3.404236   4.864617   4.390588   5.622416   0.000000
    11  H    3.907196   5.629938   2.533614   4.865396   2.533902
                   11
    11  H    0.000000
 Stoichiometry    C6H3Cl2(1-)
 Framework group  CS[SG(C6H3Cl2)]
 Deg. of freedom    19
 Full point group                 CS      NOp   2
 Largest Abelian subgroup         CS      NOp   2
 Largest concise Abelian subgroup C1      NOp   1
                         Standard orientation:                         
 ---------------------------------------------------------------------
 Center     Atomic      Atomic             Coordinates (Angstroms)
 Number     Number       Type             X           Y           Z
 ---------------------------------------------------------------------
      1          6           0        1.137336   -1.504841   -0.000000
      2          6           0        2.362590   -0.825932   -0.000000
      3          6           0        2.425413    0.577068   -0.000000
      4          6           0        1.234151    1.325206   -0.000000
      5          6           0       -0.000000    0.656221   -0.000000
      6          6           0       -0.027547   -0.745596    0.000000
      7         17           0       -1.552575   -1.547144    0.000000
      8          1           0        1.264981    2.470216   -0.000000
      9         17           0       -1.434127    1.602131    0.000000
     10          1           0        3.310244   -1.414905   -0.000000
     11          1           0        3.407037    1.117148   -0.000000
 ---------------------------------------------------------------------
 Rotational constants (GHZ):           1.9810881           1.4391365           0.8335874
 Standard basis: VSTO-6G (5D, 7F)
 There are    27 symmetry adapted cartesian basis functions of A'  symmetry.
 There are     8 symmetry adapted cartesian basis functions of A"  symmetry.
 There are    27 symmetry adapted basis functions of A'  symmetry.
 There are     8 symmetry adapted basis functions of A"  symmetry.
    35 basis functions,   210 primitive gaussians,    35 cartesian basis functions
    21 alpha electrons       21 beta electrons
       nuclear repulsion energy       197.5231417641 Hartrees.
 Integral buffers will be    131072 words long.
 Regular integral format.
 Two-electron integral symmetry is turned off.
 Do NDO integrals.
 One-electron integrals computed using PRISM.
 NBasis=    35 RedAO= T EigKep=  1.00D+00  NBF=    27     8
 NBsUse=    35 1.00D-06 EigRej= -1.00D+00 NBFU=    27     8
 Initial guess from the checkpoint file:  "geometry_chks/1_4ClBzAnionIntermediate.chk"
 B after Tr=    -0.000000   -0.000000   -0.000000
         Rot=    0.999969    0.000000    0.000000   -0.007920 Ang=  -0.91 deg.
 Initial guess orbital symmetries:
       Occupied  (A') (A') (A') (A') (A') (A') (A') (A') (A') (A')
[...]
 SCF Done:  E(RAM1) =  0.460778995232E-01 A.U. after   10 cycles
            NFock=  9  Conv=0.42D-08     -V/T= 1.0005
 Calling FoFJK, ICntrl=      2127 FMM=F ISym2X=1 I1Cent= 0 IOpClX= 0 NMat=1 NMatS=1 NMatT=0.
 ***** Axes restored to original set *****
 -------------------------------------------------------------------
 Center     Atomic                   Forces (Hartrees/Bohr)
 Number     Number              X              Y              Z
 -------------------------------------------------------------------
      1        6          -0.000002879    0.000011024   -0.000000000
      2        6          -0.000001398    0.000003668   -0.000000000
      3        6           0.000005806   -0.000001440   -0.000000000
      4        6           0.000004514    0.000002475   -0.000000000
      5        6          -0.000006907    0.000014854   -0.000000000
      6        6          -0.000000030   -0.000022982    0.000000000
      7       17           0.000000550    0.000002583   -0.000000000
      8        1           0.000002513   -0.000002604    0.000000000
      9       17          -0.000000109   -0.000004165    0.000000000
     10        1           0.000000444   -0.000002889    0.000000000
     11        1          -0.000002503   -0.000000524    0.000000000
 -------------------------------------------------------------------
 Cartesian Forces:  Max     0.000022982 RMS     0.000005658

 GradGradGradGradGradGradGradGradGradGradGradGradGradGradGradGradGradGrad
 Berny optimization.
 Using GEDIIS/GDIIS optimizer.
 FormGI is forming the generalized inverse of G from B-inverse, IUseBI=4.
 Internal  Forces:  Max     0.000011095 RMS     0.000002844
 Search for a local minimum.
 Step number  13 out of a maximum of   57
 All quantities printed in internal units (Hartrees-Bohrs-Radians)
 Mixed Optimization -- En-DIIS/RFO-DIIS
 Swapping is turned off.
 Update second derivatives using D2CorX and points    4    5    6    8    7
                                                      9   10   11   12   13
 DE= -7.33D-07 DEPred=-7.36D-07 R= 9.96D-01
 Trust test= 9.96D-01 RLast= 1.97D-03 DXMaxT set to 1.06D-01
 ITU=  0  1 -1  1  1 -1  1 -1  1  0  0  1  0
     Eigenvalues ---    0.02011   0.02011   0.02011   0.02011   0.02011
     Eigenvalues ---    0.02011   0.02011   0.02011   0.15562   0.15980
     Eigenvalues ---    0.16009   0.18802   0.22179   0.24300   0.24915
     Eigenvalues ---    0.25375   0.27704   0.29219   0.34431   0.35582
     Eigenvalues ---    0.36661   0.42720   0.44351   0.44970   0.46004
     Eigenvalues ---    0.58549   0.82403
 En-DIIS/RFO-DIIS/Sim-DIIS IScMMF=       -3 using points:    13   12   11   10    9
 RFO step:  Lambda=-1.10390485D-09.
 DIIS inversion failure, remove point   5.
 RFO-DIIS uses    4 points instead of    5
 DidBck=F Rises=F RFO-DIIS coefs:    0.99759    0.01001   -0.00167   -0.00593    0.00000
 Iteration  1 RMS(Cart)=  0.00000864 RMS(Int)=  0.00000000
 Iteration  2 RMS(Cart)=  0.00000000 RMS(Int)=  0.00000000
 ClnCor:  largest displacement from symmetrization is 8.68D-14 for atom     7.
 Variable       Old X    -DE/DX   Delta X   Delta X   Delta X     New X
                                 (Linear)    (Quad)   (Total)
    R1        2.63198   0.00000   0.00000   0.00000   0.00000   2.63198
    R2        2.62090   0.00001  -0.00000   0.00003   0.00003   2.62093
    R3        2.63556   0.00000  -0.00000   0.00001   0.00001   2.63556
    R4        2.07704  -0.00000  -0.00000  -0.00001  -0.00001   2.07703
    R5        2.64108  -0.00000  -0.00000  -0.00000  -0.00001   2.64107
    R6        2.07739  -0.00000  -0.00001   0.00000  -0.00001   2.07739
    R7        2.64342   0.00000  -0.00000   0.00001   0.00001   2.64343
    R8        2.07282   0.00000  -0.00001   0.00002   0.00001   2.07282
    R9        2.64745  -0.00001  -0.00001  -0.00001  -0.00002   2.64744
   R10        3.25623   0.00000   0.00000   0.00002   0.00002   3.25625
   R11        3.25806  -0.00000   0.00000  -0.00001  -0.00001   3.25806
    A1        2.05631  -0.00000   0.00000  -0.00001  -0.00000   2.05631
    A2        2.12253   0.00000  -0.00000   0.00001   0.00001   2.12254
    A3        2.07815  -0.00000   0.00000  -0.00000  -0.00000   2.07815
    A4        2.08250  -0.00000   0.00000  -0.00001  -0.00001   2.08249
    A5        2.09406  -0.00000   0.00000  -0.00000  -0.00000   2.09406
    A6        2.11420  -0.00000  -0.00000  -0.00000  -0.00001   2.11419
    A7        2.07493   0.00000  -0.00000   0.00001   0.00001   2.07493
    A8        2.08005  -0.00000  -0.00000  -0.00001  -0.00001   2.08003
    A9        2.10245   0.00000   0.00000   0.00001   0.00001   2.10246
   A10        2.10069  -0.00000   0.00000  -0.00000   0.00000   2.10070
   A11        2.08670   0.00001   0.00001   0.00002   0.00003   2.08673
   A12        2.05571  -0.00000  -0.00001  -0.00001  -0.00002   2.05569
   A13        2.14078  -0.00000  -0.00000  -0.00001  -0.00001   2.14076
   A14        2.12672  -0.00000  -0.00000  -0.00002  -0.00002   2.12670
   A15        2.07618  -0.00000  -0.00000  -0.00000  -0.00001   2.07618
   A16        2.08029   0.00001   0.00000   0.00002   0.00002   2.08031
    D1       -0.00000   0.00000   0.00000   0.00000   0.00000   0.00000
    D2        3.14159   0.00000   0.00000   0.00000   0.00000   3.14159
    D3        0.00000  -0.00000   0.00000  -0.00000   0.00000   0.00000
    D4        3.14159  -0.00000   0.00000  -0.00000   0.00000   3.14159
    D5        0.00000  -0.00000   0.00000  -0.00000  -0.00000   0.00000
    D6        3.14159   0.00000   0.00000   0.00000   0.00000   3.14159
    D7        3.14159  -0.00000   0.00000  -0.00000   0.00000   3.14159
    D8        0.00000  -0.00000   0.00000  -0.00000  -0.00000   0.00000
    D9        0.00000  -0.00000   0.00000  -0.00000   0.00000   0.00000
   D10        3.14159   0.00000   0.00000   0.00000   0.00000   3.14159
   D11        3.14159  -0.00000   0.00000  -0.00000   0.00000   3.14159
   D12        0.00000  -0.00000   0.00000  -0.00000   0.00000   0.00000
   D13       -0.00000  -0.00000   0.00000  -0.00000   0.00000   0.00000
   D14        3.14159   0.00000   0.00000   0.00000   0.00000   3.14159
   D15        3.14159  -0.00000   0.00000  -0.00000   0.00000   3.14159
   D16        0.00000  -0.00000   0.00000  -0.00000   0.00000   0.00000
   D17       -0.00000   0.00000   0.00000   0.00000   0.00000   0.00000
   D18        3.14159   0.00000   0.00000   0.00000   0.00000   3.14159
   D19        3.14159  -0.00000   0.00000  -0.00000   0.00000   3.14159
   D20       -0.00000  -0.00000   0.00000  -0.00000   0.00000   0.00000
         Item               Value     Threshold  Converged?
 Maximum Force            0.000011     0.000450     YES
 RMS     Force            0.000003     0.000300     YES
 Maximum Displacement     0.000028     0.001800     YES
 RMS     Displacement     0.000009     0.001200     YES
 Predicted change in Energy=-6.122900D-10
 Optimization completed.
    -- Stationary point found.
                           ----------------------------
                           !   Optimized Parameters   !
                           ! (Angstroms and Degrees)  !
 --------------------------                            --------------------------
 ! Name  Definition              Value          Derivative Info.                !
 --------------------------------------------------------------------------------
 ! R1    R(1,2)                  1.3928         -DE/DX =    0.0                 !
 ! R2    R(1,6)                  1.3869         -DE/DX =    0.0                 !
 ! R3    R(2,3)                  1.3947         -DE/DX =    0.0                 !
 ! R4    R(2,10)                 1.0991         -DE/DX =    0.0                 !
 ! R5    R(3,4)                  1.3976         -DE/DX =    0.0                 !
 ! R6    R(3,11)                 1.0993         -DE/DX =    0.0                 !
 ! R7    R(4,5)                  1.3988         -DE/DX =    0.0                 !
 ! R8    R(4,8)                  1.0969         -DE/DX =    0.0                 !
 ! R9    R(5,6)                  1.401          -DE/DX =    0.0                 !
 ! R10   R(5,9)                  1.7231         -DE/DX =    0.0                 !
 ! R11   R(6,7)                  1.7241         -DE/DX =    0.0                 !
 ! A1    A(2,1,6)              117.8181         -DE/DX =    0.0                 !
 ! A2    A(1,2,3)              121.6123         -DE/DX =    0.0                 !
 ! A3    A(1,2,10)             119.0692         -DE/DX =    0.0                 !
 ! A4    A(3,2,10)             119.3185         -DE/DX =    0.0                 !
 ! A5    A(2,3,4)              119.9807         -DE/DX =    0.0                 !
 ! A6    A(2,3,11)             121.1347         -DE/DX =    0.0                 !
 ! A7    A(4,3,11)             118.8846         -DE/DX =    0.0                 !
 ! A8    A(3,4,5)              119.1778         -DE/DX =    0.0                 !
 ! A9    A(3,4,8)              120.4613         -DE/DX =    0.0                 !
 ! A10   A(5,4,8)              120.3609         -DE/DX =    0.0                 !
 ! A11   A(4,5,6)              119.5593         -DE/DX =    0.0                 !
 ! A12   A(4,5,9)              117.7833         -DE/DX =    0.0                 !
 ! A13   A(6,5,9)              122.6575         -DE/DX =    0.0                 !
 ! A14   A(1,6,5)              121.8518         -DE/DX =    0.0                 !
 ! A15   A(1,6,7)              118.9564         -DE/DX =    0.0                 !
 ! A16   A(5,6,7)              119.1918         -DE/DX =    0.0                 !
 ! D1    D(6,1,2,3)              0.0            -DE/DX =    0.0                 !
 ! D2    D(6,1,2,10)           180.0            -DE/DX =    0.0                 !
 ! D3    D(2,1,6,5)              0.0            -DE/DX =    0.0                 !
 ! D4    D(2,1,6,7)            180.0            -DE/DX =    0.0                 !
 ! D5    D(1,2,3,4)              0.0            -DE/DX =    0.0                 !
 ! D6    D(1,2,3,11)           180.0            -DE/DX =    0.0                 !
 ! D7    D(10,2,3,4)           180.0            -DE/DX =    0.0                 !
 ! D8    D(10,2,3,11)            0.0            -DE/DX =    0.0                 !
 ! D9    D(2,3,4,5)              0.0            -DE/DX =    0.0                 !
 ! D10   D(2,3,4,8)            180.0            -DE/DX =    0.0                 !
 ! D11   D(11,3,4,5)           180.0            -DE/DX =    0.0                 !
 ! D12   D(11,3,4,8)             0.0            -DE/DX =    0.0                 !
 ! D13   D(3,4,5,6)              0.0            -DE/DX =    0.0                 !
 ! D14   D(3,4,5,9)            180.0            -DE/DX =    0.0                 !
 ! D15   D(8,4,5,6)            180.0            -DE/DX =    0.0                 !
 ! D16   D(8,4,5,9)              0.0            -DE/DX =    0.0                 !
 ! D17   D(4,5,6,1)              0.0            -DE/DX =    0.0                 !
 ! D18   D(4,5,6,7)            180.0            -DE/DX =    0.0                 !
 ! D19   D(9,5,6,1)            180.0            -DE/DX =    0.0                 !
 ! D20   D(9,5,6,7)              0.0            -DE/DX =    0.0                 !
 --------------------------------------------------------------------------------
 GradGradGradGradGradGradGradGradGradGradGradGradGradGradGradGradGradGrad

                          Input orientation:                          
 ---------------------------------------------------------------------
 Center     Atomic      Atomic             Coordinates (Angstroms)
 Number     Number       Type             X           Y           Z
 ---------------------------------------------------------------------
      1          6           0       -3.117399    0.272458   -0.000000
      2          6           0       -1.911637    0.969581   -0.000000
      3          6           0       -0.684267    0.307247   -0.000000
      4          6           0       -0.644566   -1.089789   -0.000000
      5          6           0       -1.846042   -1.806171   -0.000000
      6          6           0       -3.063755   -1.113426   -0.000000
      7         17           0       -4.538902   -2.005859    0.000000
      8          1           0        0.316335   -1.618781   -0.000000
      9         17           0       -1.755189   -3.526899    0.000000
     10          1           0       -1.930159    2.068548   -0.000000
     11          1           0        0.262810    0.865392   -0.000000
 ---------------------------------------------------------------------
                    Distance matrix (angstroms):
                    1          2          3          4          5
     1  C    0.000000
     2  C    1.392783   0.000000
     3  C    2.433381   1.394677   0.000000
     4  C    2.823229   2.417949   1.397600   0.000000
     5  C    2.436606   2.776528   2.411692   1.398837   0.000000
     6  C    1.386922   2.380398   2.771331   2.419304   1.400971
     7  Cl   2.685405   3.969353   4.495405   4.000629   2.700254
     8  H    3.920117   3.415183   2.170435   1.096888   2.170481
     9  Cl   4.036178   4.499201   3.980898   2.678243   1.723125
    10  H    2.153016   1.099122   2.157412   3.409962   3.875632
    11  H    3.431820   2.176942   1.099309   2.155474   3.403602
                    6          7          8          9         10
     6  C    0.000000
     7  Cl   1.724093   0.000000
     8  H    3.417658   4.870642   0.000000
     9  Cl   2.745395   3.172163   2.816403   0.000000
    10  H    3.377869   4.838009   4.317769   5.598182   0.000000
    11  H    3.870627   5.594687   2.484750   4.833689   2.501339
                   11
    11  H    0.000000
 Stoichiometry    C6H3Cl2(1-)
 Framework group  CS[SG(C6H3Cl2)]
 Deg. of freedom    19
 Full point group                 CS      NOp   2
 Largest Abelian subgroup         CS      NOp   2
 Largest concise Abelian subgroup C1      NOp   1
                         Standard orientation:                         
 ---------------------------------------------------------------------
 Center     Atomic      Atomic             Coordinates (Angstroms)
 Number     Number       Type             X           Y           Z
 ---------------------------------------------------------------------
      1          6           0        1.142563   -1.496596    0.000000
      2          6           0        2.356207   -0.813287    0.000000
      3          6           0        2.410519    0.580332    0.000000
      4          6           0        1.228042    1.325339    0.000000
      5          6           0        0.000000    0.655520    0.000000
      6          6           0       -0.023219   -0.745259   -0.000000
      7         17           0       -1.542067   -1.561099   -0.000000
      8          1           0        1.261564    2.421714    0.000000
      9         17           0       -1.435109    1.609260   -0.000000
     10          1           0        3.292858   -1.388400    0.000000
     11          1           0        3.372899    1.111658    0.000000
 ---------------------------------------------------------------------
 Rotational constants (GHZ):           1.9696675           1.4500928           0.8352049

 **********************************************************************

            Population analysis using the SCF Density.

 **********************************************************************

 Orbital symmetries:
       Occupied  (A') (A') (A') (A') (A') (A') (A') (A') (A') (A')
                 (A') (A") (A') (A") (A') (A') (A") (A') (A") (A")
                 (A')
       Virtual   (A") (A") (A') (A') (A") (A') (A') (A') (A') (A')
                 (A') (A') (A') (A')
 The electronic state is 1-A'.
 Alpha  occ. eigenvalues --   -1.26732  -1.21087  -1.19029  -0.96211  -0.94440
 Alpha  occ. eigenvalues --   -0.67564  -0.65766  -0.48843  -0.43262  -0.41488
 Alpha  occ. eigenvalues --   -0.37569  -0.37049  -0.32621  -0.30772  -0.29498
 Alpha  occ. eigenvalues --   -0.28450  -0.27873  -0.25304  -0.17586  -0.15922
 Alpha  occ. eigenvalues --   -0.10704
 Alpha virt. eigenvalues --    0.18304   0.20157   0.20494   0.23374   0.29733
 Alpha virt. eigenvalues --    0.30178   0.31181   0.32837   0.34633   0.34844
 Alpha virt. eigenvalues --    0.36293   0.37332   0.40333   0.41869
          Condensed to atoms (all electrons):
               1          2          3          4          5          6
     1  C    4.371200   0.000000   0.000000   0.000000   0.000000   0.000000
     2  C    0.000000   4.153975   0.000000   0.000000   0.000000   0.000000
     3  C    0.000000   0.000000   4.160006   0.000000   0.000000   0.000000
     4  C    0.000000   0.000000   0.000000   4.216465   0.000000   0.000000
     5  C    0.000000   0.000000   0.000000   0.000000   4.064213   0.000000
     6  C    0.000000   0.000000   0.000000   0.000000   0.000000   4.057248
     7  Cl   0.000000   0.000000   0.000000   0.000000   0.000000   0.000000
     8  H    0.000000   0.000000   0.000000   0.000000   0.000000   0.000000
     9  Cl   0.000000   0.000000   0.000000   0.000000   0.000000   0.000000
    10  H    0.000000   0.000000   0.000000   0.000000   0.000000   0.000000
    11  H    0.000000   0.000000   0.000000   0.000000   0.000000   0.000000
               7          8          9         10         11
     1  C    0.000000   0.000000   0.000000   0.000000   0.000000
     2  C    0.000000   0.000000   0.000000   0.000000   0.000000
     3  C    0.000000   0.000000   0.000000   0.000000   0.000000
     4  C    0.000000   0.000000   0.000000   0.000000   0.000000
     5  C    0.000000   0.000000   0.000000   0.000000   0.000000
     6  C    0.000000   0.000000   0.000000   0.000000   0.000000
     7  Cl   7.122095   0.000000   0.000000   0.000000   0.000000
     8  H    0.000000   0.900172   0.000000   0.000000   0.000000
     9  Cl   0.000000   0.000000   7.121492   0.000000   0.000000
    10  H    0.000000   0.000000   0.000000   0.912426   0.000000
    11  H    0.000000   0.000000   0.000000   0.000000   0.920708
 Mulliken charges:
               1
     1  C   -0.371200
     2  C   -0.153975
     3  C   -0.160006
     4  C   -0.216465
     5  C   -0.064213
     6  C   -0.057248
     7  Cl  -0.122095
     8  H    0.099828
     9  Cl  -0.121492
    10  H    0.087574
    11  H    0.079292
 Sum of Mulliken charges =  -1.00000
 Mulliken charges with hydrogens summed into heavy atoms:
               1
     1  C   -0.371200
     2  C   -0.066401
     3  C   -0.080714
     4  C   -0.116637
     5  C   -0.064213
     6  C   -0.057248
     7  Cl  -0.122095
     9  Cl  -0.121492
 Charge=             -1.0000 electrons
 Dipole moment (field-independent basis, Debye):
    X=             -1.9502    Y=              4.5002    Z=              0.0000  Tot=              4.9046
 N-N= 1.979055287889D+02 E-N=-2.812368939023D+02  KE=-9.212663051170D+01
 Symmetry A'   KE=-7.167974173687D+01
 Symmetry A"   KE=-2.044688877483D+01
 1\1\GINC-SH03-01N66\FOpt\RAM1\ZDO\C6H3Cl2(1-)\JLAPIER\08-Dec-2025\0\\#
  opt am1 SCF(maxcyc=10000)\\Anion Intermediate (removed 2) 1_4\\-1,1\C
 ,-3.1173992971,0.2724579648,0.\C,-1.9116368116,0.9695813954,0.\C,-0.68
 42667497,0.307246673,0.\C,-0.6445661484,-1.0897893768,0.\C,-1.84604151
 95,-1.8061712624,0.\C,-3.0637545809,-1.1134260393,0.\Cl,-4.5389015741,
 -2.0058591398,0.\H,0.3163347192,-1.6187811325,0.\Cl,-1.7551893247,-3.5
 268992034,0.\H,-1.9301588025,2.0685476246,0.\H,0.2628100893,0.86539249
 64,0.\\Version=ES64L-G16RevB.01\State=1-A'\HF=0.0460779\RMSD=4.206e-09
 \RMSF=5.658e-06\Dipole=1.1337804,-1.5613937,0.\PG=CS [SG(C6H3Cl2)]\\@


 EDUCATION WITHOUT COMMON SENSE IS A LOAD OF BOOKS ON THE BACK OF AN ASS.
 Job cpu time:       0 days  0 hours  0 minutes  4.7 seconds.
 Elapsed time:       0 days  0 hours  0 minutes 20.2 seconds.
 File lengths (MBytes):  RWF=     10 Int=      0 D2E=      0 Chk=      2 Scr=      1
 Normal termination of Gaussian 16 at Mon Dec  8 17:08:52 2025.
