 Entering Gaussian System, Link 0=g16
 Initial command:
 /share/software/user/restricted/gaussian/g16.B01/l1.exe "/home/users/jlapier/Chloroaromatics/Gau-28428.inp" -scrdir="/home/users/jlapier/Chloroaromatics/"
 Entering Link 1 = /share/software/user/restricted/gaussian/g16.B01/l1.exe PID=     28434.
  
 Copyright (c) 1988-2017, Gaussian, Inc.  All Rights Reserved.
  
 This is part of the Gaussian(R) 16 program.  It is based on
 the Gaussian(R) 09 system (copyright 2009, Gaussian, Inc.),
 the Gaussian(R) 03 system (copyright 2003, Gaussian, Inc.),
 the Gaussian(R) 98 system (copyright 1998, Gaussian, Inc.),
 the Gaussian(R) 94 system (copyright 1995, Gaussian, Inc.),
 the Gaussian 92(TM) system (copyright 1992, Gaussian, Inc.),
 the Gaussian 90(TM) system (copyright 1990, Gaussian, Inc.),
 the Gaussian 88(TM) system (copyright 1988, Gaussian, Inc.),
 the Gaussian 86(TM) system (copyright 1986, Carnegie Mellon
 University), and the Gaussian 82(TM) system (copyright 1983,
 Carnegie Mellon University). Gaussian is a federally registered
 trademark of Gaussian, Inc.
  
 This software contains proprietary and confidential information,
 including trade secrets, belonging to Gaussian, Inc.
  
 This software is provided under written license and may be
 used, copied, transmitted, or stored only in accord with that
 written license.
  
 The following legend is applicable only to US Government
 contracts under FAR:
  
                    RESTRICTED RIGHTS LEGEND
  
 Use, reproduction and disclosure by the US Government is
 subject to restrictions as set forth in subparagraphs (a)
 and (c) of the Commercial Computer Software - Restricted
 Rights clause in FAR 52.227-19.
  
 Gaussian, Inc.
 340 Quinnipiac St., Bldg. 40, Wallingford CT 06492
  
  
 ---------------------------------------------------------------
 Warning -- This program may not be used in any manner that
 competes with the business of Gaussian, Inc. or will provide
 assistance to any competitor of Gaussian, Inc.  The licensee
 of this program is prohibited from giving any competitor of
 Gaussian, Inc. access to this program.  By using this program,
 the user acknowledges that Gaussian, Inc. is engaged in the
 business of creating and licensing software in the field of
 computational chemistry and represents and warrants to the
 licensee that it is not a competitor of Gaussian, Inc. and that
 it will not use this program in any manner prohibited above.
 ---------------------------------------------------------------
  

 Cite this work as:
 Gaussian 16, Revision B.01,
 M. J. Frisch, G. W. Trucks, H. B. Schlegel, G. E. Scuseria, 
 M. A. Robb, J. R. Cheeseman, G. Scalmani, V. Barone, 
 G. A. Petersson, H. Nakatsuji, X. Li, M. Caricato, A. V. Marenich, 
 J. Bloino, B. G. Janesko, R. Gomperts, B. Mennucci, H. P. Hratchian, 
 J. V. Ortiz, A. F. Izmaylov, J. L. Sonnenberg, D. Williams-Young, 
 F. Ding, F. Lipparini, F. Egidi, J. Goings, B. Peng, A. Petrone, 
 T. Henderson, D. Ranasinghe, V. G. Zakrzewski, J. Gao, N. Rega, 
 G. Zheng, W. Liang, M. Hada, M. Ehara, K. Toyota, R. Fukuda, 
 J. Hasegawa, M. Ishida, T. Nakajima, Y. Honda, O. Kitao, H. Nakai, 
 T. Vreven, K. Throssell, J. A. Montgomery, Jr., J. E. Peralta, 
 F. Ogliaro, M. J. Bearpark, J. J. Heyd, E. N. Brothers, K. N. Kudin, 
 V. N. Staroverov, T. A. Keith, R. Kobayashi, J. Normand, 
 K. Raghavachari, A. P. Rendell, J. C. Burant, S. S. Iyengar, 
 J. Tomasi, M. Cossi, J. M. Millam, M. Klene, C. Adamo, R. Cammi, 
 J. W. Ochterski, R. L. Martin, K. Morokuma, O. Farkas, 
 J. B. Foresman, and D. J. Fox, Gaussian, Inc., Wallingford CT, 2016.
 
 ******************************************
 Gaussian 16:  ES64L-G16RevB.01 20-Dec-2017
                 8-Dec-2025 
 ******************************************
 %mem=2GB
 %nprocshare=1
 Will use up to    1 processors via shared memory.
 %chk=geometry_chks/1_5ClBzAnionIntermediate.chk
 ---------------------------
 # opt am1 SCF(maxcyc=10000)
 ---------------------------
 1/18=20,19=15,26=1,38=1/1,3;
 2/9=110,12=2,17=6,18=5,40=1/2;
 3/5=2,25=1,41=700000,71=1/1,2,3;
 4/35=1/1;
 5/5=2,7=10000,35=1,38=5/2;
 6/7=2,8=2,9=2,10=2,28=1/1;
 7//1,2,3,16;
 1/18=20,19=15,26=1/3(2);
 2/9=110/2;
 99//99;
 2/9=110/2;
 3/5=2,25=1,41=700000,71=1,135=20/1,2,3;
 4/5=5,16=3,35=1/1;
 5/5=2,7=10000,35=1,38=5/2;
 7//1,2,3,16;
 1/18=20,19=15,26=1/3(-5);
 2/9=110/2;
 6/7=2,8=2,9=2,10=2,19=2,28=1/1;
 99/9=1/99;
 ----------------------------------
 Anion Intermediate (removed 3) 1_5
 ----------------------------------
 Symbolic Z-matrix:
 Charge = -1 Multiplicity = 1
 C                    -3.20928   0.19943   0. 
 C                    -2.0115    0.93555   0. 
 C                    -0.77511   0.2663    0. 
 C                    -0.7365   -1.13907   0. 
 C                    -1.93429  -1.87519   0. 
 C                    -3.17067  -1.20594   0. 
 Cl                   -4.67483  -2.13035   0. 
 H                    -4.76193   1.03987   0. 
 H                    -1.8858   -3.64003   0. 
 Cl                   -2.05998   2.7004    0. 
 H                     0.72905   1.19071   0. 
 
 Add virtual bond connecting atoms H9         and C5         Dist= 3.34D+00.
 Add virtual bond connecting atoms H11        and C3         Dist= 3.34D+00.
 Add virtual bond connecting atoms H8         and C1         Dist= 3.34D+00.

 GradGradGradGradGradGradGradGradGradGradGradGradGradGradGradGradGradGrad
 Berny optimization.
 Initialization pass.
                           ----------------------------
                           !    Initial Parameters    !
                           ! (Angstroms and Degrees)  !
 --------------------------                            --------------------------
 ! Name  Definition              Value          Derivative Info.                !
 --------------------------------------------------------------------------------
 ! R1    R(1,2)                  1.4059         estimate D2E/DX2                !
 ! R2    R(1,6)                  1.4059         estimate D2E/DX2                !
 ! R3    R(1,8)                  1.7655         estimate D2E/DX2                !
 ! R4    R(2,3)                  1.4059         estimate D2E/DX2                !
 ! R5    R(2,10)                 1.7655         estimate D2E/DX2                !
 ! R6    R(3,4)                  1.4059         estimate D2E/DX2                !
 ! R7    R(3,11)                 1.7655         estimate D2E/DX2                !
 ! R8    R(4,5)                  1.4059         estimate D2E/DX2                !
 ! R9    R(5,6)                  1.4059         estimate D2E/DX2                !
 ! R10   R(5,9)                  1.7655         estimate D2E/DX2                !
 ! R11   R(6,7)                  1.7655         estimate D2E/DX2                !
 ! A1    A(2,1,6)              119.9999         estimate D2E/DX2                !
 ! A2    A(2,1,8)              119.9999         estimate D2E/DX2                !
 ! A3    A(6,1,8)              120.0001         estimate D2E/DX2                !
 ! A4    A(1,2,3)              120.0            estimate D2E/DX2                !
 ! A5    A(1,2,10)             120.0001         estimate D2E/DX2                !
 ! A6    A(3,2,10)             119.9999         estimate D2E/DX2                !
 ! A7    A(2,3,4)              120.0001         estimate D2E/DX2                !
 ! A8    A(2,3,11)             120.0            estimate D2E/DX2                !
 ! A9    A(4,3,11)             119.9999         estimate D2E/DX2                !
 ! A10   A(3,4,5)              119.9997         estimate D2E/DX2                !
 ! A11   A(4,5,6)              120.0            estimate D2E/DX2                !
 ! A12   A(4,5,9)              119.9996         estimate D2E/DX2                !
 ! A13   A(6,5,9)              120.0004         estimate D2E/DX2                !
 ! A14   A(1,6,5)              120.0003         estimate D2E/DX2                !
 ! A15   A(1,6,7)              119.9999         estimate D2E/DX2                !
 ! A16   A(5,6,7)              119.9998         estimate D2E/DX2                !
 ! D1    D(6,1,2,3)              0.0            estimate D2E/DX2                !
 ! D2    D(6,1,2,10)           180.0            estimate D2E/DX2                !
 ! D3    D(8,1,2,3)            180.0            estimate D2E/DX2                !
 ! D4    D(8,1,2,10)             0.0            estimate D2E/DX2                !
 ! D5    D(2,1,6,5)              0.0            estimate D2E/DX2                !
 ! D6    D(2,1,6,7)            180.0            estimate D2E/DX2                !
 ! D7    D(8,1,6,5)            180.0            estimate D2E/DX2                !
 ! D8    D(8,1,6,7)              0.0            estimate D2E/DX2                !
 ! D9    D(1,2,3,4)              0.0            estimate D2E/DX2                !
 ! D10   D(1,2,3,11)           180.0            estimate D2E/DX2                !
 ! D11   D(10,2,3,4)           180.0            estimate D2E/DX2                !
 ! D12   D(10,2,3,11)            0.0            estimate D2E/DX2                !
 ! D13   D(2,3,4,5)              0.0            estimate D2E/DX2                !
 ! D14   D(11,3,4,5)           180.0            estimate D2E/DX2                !
 ! D15   D(3,4,5,6)              0.0            estimate D2E/DX2                !
 ! D16   D(3,4,5,9)            180.0            estimate D2E/DX2                !
 ! D17   D(4,5,6,1)              0.0            estimate D2E/DX2                !
 ! D18   D(4,5,6,7)            180.0            estimate D2E/DX2                !
 ! D19   D(9,5,6,1)            180.0            estimate D2E/DX2                !
 ! D20   D(9,5,6,7)              0.0            estimate D2E/DX2                !
 --------------------------------------------------------------------------------
 Trust Radius=3.00D-01 FncErr=1.00D-07 GrdErr=1.00D-07 EigMax=2.50D+02 EigMin=1.00D-04
 Number of steps in this run=     57 maximum allowed number of steps=    100.
 GradGradGradGradGradGradGradGradGradGradGradGradGradGradGradGradGradGrad

                          Input orientation:                          
 ---------------------------------------------------------------------
 Center     Atomic      Atomic             Coordinates (Angstroms)
 Number     Number       Type             X           Y           Z
 ---------------------------------------------------------------------
      1          6           0       -3.209280    0.199430    0.000000
      2          6           0       -2.011500    0.935550    0.000000
      3          6           0       -0.775110    0.266300    0.000000
      4          6           0       -0.736500   -1.139070    0.000000
      5          6           0       -1.934290   -1.875190    0.000000
      6          6           0       -3.170670   -1.205940    0.000000
      7         17           0       -4.674830   -2.130350    0.000000
      8          1           0       -4.761930    1.039870    0.000000
      9          1           0       -1.885800   -3.640030    0.000000
     10         17           0       -2.059980    2.700400    0.000000
     11          1           0        0.729050    1.190710    0.000000
 ---------------------------------------------------------------------
                    Distance matrix (angstroms):
                    1          2          3          4          5
     1  C    0.000000
     2  C    1.405898   0.000000
     3  C    2.435088   1.405900   0.000000
     4  C    2.811801   2.435092   1.405900   0.000000
     5  C    2.435087   2.811800   2.435093   1.405907   0.000000
     6  C    1.405900   2.435088   2.811796   2.435088   1.405892
     7  Cl   2.752401   4.061166   4.577308   4.061167   2.752393
     8  H    1.765520   2.752408   4.061175   4.577321   4.061173
     9  H    4.061164   4.577306   4.061163   2.752397   1.765506
    10  Cl   2.752406   1.765516   2.752405   4.061173   4.577316
    11  H    4.061167   2.752403   1.765512   2.752401   4.061173
                    6          7          8          9         10
     6  C    0.000000
     7  Cl   1.765512   0.000000
     8  H    2.752412   3.171416   0.000000
     9  H    2.752396   3.171407   5.493049   0.000000
    10  Cl   4.061173   5.493049   3.171418   6.342822   0.000000
    11  H    4.577308   6.342819   5.493051   5.493040   3.171412
                   11
    11  H    0.000000
 Stoichiometry    C6H3Cl2(1-)
 Framework group  CS[SG(C6H3Cl2)]
 Deg. of freedom    19
 Full point group                 CS      NOp   2
 Largest Abelian subgroup         CS      NOp   2
 Largest concise Abelian subgroup C1      NOp   1
                         Standard orientation:                         
 ---------------------------------------------------------------------
 Center     Atomic      Atomic             Coordinates (Angstroms)
 Number     Number       Type             X           Y           Z
 ---------------------------------------------------------------------
      1          6           0       -0.000001    0.667352    0.000000
      2          6           0        1.217543   -0.035597    0.000000
      3          6           0        1.217543   -1.441497    0.000000
      4          6           0       -0.000001   -2.144449    0.000000
      5          6           0       -1.217550   -1.441492    0.000000
      6          6           0       -1.217545   -0.035601    0.000000
      7         17           0       -2.746523    0.847155    0.000000
      8          1           0       -0.000000    2.432872    0.000000
      9          1           0       -2.746519   -2.324252    0.000000
     10         17           0        2.746526    0.847159    0.000000
     11          1           0        2.746521   -2.324253    0.000000
 ---------------------------------------------------------------------
 Rotational constants (GHZ):           2.8492399           0.8231885           0.6386677
 Standard basis: VSTO-6G (5D, 7F)
 There are    27 symmetry adapted cartesian basis functions of A'  symmetry.
 There are     8 symmetry adapted cartesian basis functions of A"  symmetry.
 There are    27 symmetry adapted basis functions of A'  symmetry.
 There are     8 symmetry adapted basis functions of A"  symmetry.
    35 basis functions,   210 primitive gaussians,    35 cartesian basis functions
    21 alpha electrons       21 beta electrons
       nuclear repulsion energy       190.9941391445 Hartrees.
 Integral buffers will be    131072 words long.
 Regular integral format.
 Two-electron integral symmetry is turned off.
 Do NDO integrals.
 One-electron integrals computed using PRISM.
 NBasis=    35 RedAO= T EigKep=  1.00D+00  NBF=    27     8
 NBsUse=    35 1.00D-06 EigRej= -1.00D+00 NBFU=    27     8
 Simple Huckel Guess.
 Initial guess orbital symmetries:
       Occupied  (A') (A') (A') (A') (A') (A') (A') (A') (A') (A")
                 (A') (A') (A') (A") (A') (A") (A') (A') (A") (A")
                 (A')
       Virtual   (A") (A') (A") (A') (A') (A") (A') (A') (A') (A')
                 (A') (A') (A') (A')
 The electronic state of the initial guess is 1-A'.
 Keep J ints in memory in canonical form, NReq=862793.
 Overlap will be assumed to be unity.
 Requested convergence on RMS density matrix=1.00D-08 within**** cycles.
 Requested convergence on MAX density matrix=1.00D-06.
 Requested convergence on             energy=1.00D-06.
 No special actions if energy rises.
 Fock symm off for IB=2 I1=    1 I=   28 J=   23 Cut=1.00D-07 Err=6.89D-03
 Fock matrix is not symmetric: symmetry in diagonalization turned off.
 SCF Done:  E(RAM1) =  0.413149714344     A.U. after   16 cycles
            NFock= 15  Conv=0.39D-08     -V/T= 1.0045

 **********************************************************************

            Population analysis using the SCF Density.

 **********************************************************************

 Orbital symmetries:
       Occupied  (A') (A') (A') (A') (A') (A') (A') (A') (A') (A")
                 (A') (A") (A') (A') (A') (A") (A') (A') (A") (A")
                 (A')
       Virtual   (A') (A") (A') (A') (A") (A') (A') (A") (A') (A')
                 (A') (A') (A') (A')
 The electronic state is 1-A'.
 Alpha  occ. eigenvalues --   -1.24570  -1.22183  -1.18500  -0.93424  -0.90202
 Alpha  occ. eigenvalues --   -0.63718  -0.62837  -0.45794  -0.41532  -0.36866
 Alpha  occ. eigenvalues --   -0.36780  -0.33524  -0.31688  -0.30496  -0.28847
 Alpha  occ. eigenvalues --   -0.27542  -0.24255  -0.21263  -0.18219  -0.16590
 Alpha  occ. eigenvalues --   -0.11026
 Alpha virt. eigenvalues --    0.14722   0.17857   0.18042   0.18256   0.19177
 Alpha virt. eigenvalues --    0.19575   0.21487   0.28992   0.33069   0.33117
 Alpha virt. eigenvalues --    0.35061   0.35646   0.38661   0.41430
          Condensed to atoms (all electrons):
               1          2          3          4          5          6
     1  C    4.177715   0.000000   0.000000   0.000000   0.000000   0.000000
     2  C    0.000000   4.062176   0.000000   0.000000   0.000000   0.000000
     3  C    0.000000   0.000000   4.096328   0.000000   0.000000   0.000000
     4  C    0.000000   0.000000   0.000000   4.392436   0.000000   0.000000
     5  C    0.000000   0.000000   0.000000   0.000000   4.096325   0.000000
     6  C    0.000000   0.000000   0.000000   0.000000   0.000000   4.062178
     7  Cl   0.000000   0.000000   0.000000   0.000000   0.000000   0.000000
     8  H    0.000000   0.000000   0.000000   0.000000   0.000000   0.000000
     9  H    0.000000   0.000000   0.000000   0.000000   0.000000   0.000000
    10  Cl   0.000000   0.000000   0.000000   0.000000   0.000000   0.000000
    11  H    0.000000   0.000000   0.000000   0.000000   0.000000   0.000000
               7          8          9         10         11
     1  C    0.000000   0.000000   0.000000   0.000000   0.000000
     2  C    0.000000   0.000000   0.000000   0.000000   0.000000
     3  C    0.000000   0.000000   0.000000   0.000000   0.000000
     4  C    0.000000   0.000000   0.000000   0.000000   0.000000
     5  C    0.000000   0.000000   0.000000   0.000000   0.000000
     6  C    0.000000   0.000000   0.000000   0.000000   0.000000
     7  Cl   7.146845   0.000000   0.000000   0.000000   0.000000
     8  H    0.000000   0.911506   0.000000   0.000000   0.000000
     9  H    0.000000   0.000000   0.953822   0.000000   0.000000
    10  Cl   0.000000   0.000000   0.000000   7.146846   0.000000
    11  H    0.000000   0.000000   0.000000   0.000000   0.953825
 Mulliken charges:
               1
     1  C   -0.177715
     2  C   -0.062176
     3  C   -0.096328
     4  C   -0.392436
     5  C   -0.096325
     6  C   -0.062178
     7  Cl  -0.146845
     8  H    0.088494
     9  H    0.046178
    10  Cl  -0.146846
    11  H    0.046175
 Sum of Mulliken charges =  -1.00000
 Mulliken charges with hydrogens summed into heavy atoms:
               1
     1  C   -0.089221
     2  C   -0.062176
     3  C   -0.050153
     4  C   -0.392436
     5  C   -0.050146
     6  C   -0.062178
     7  Cl  -0.146845
    10  Cl  -0.146846
 Charge=             -1.0000 electrons
 Dipole moment (field-independent basis, Debye):
    X=             -0.0001    Y=              5.6154    Z=              0.0000  Tot=              5.6154
 N-N= 1.909941391445D+02 E-N=-2.680997654905D+02  KE=-9.146509488782D+01
 Symmetry A'   KE=-7.101415613174D+01
 Symmetry A"   KE=-2.045093875608D+01
 Calling FoFJK, ICntrl=      2127 FMM=F ISym2X=1 I1Cent= 0 IOpClX= 0 NMat=1 NMatS=1 NMatT=0.
 ***** Axes restored to original set *****
 -------------------------------------------------------------------
 Center     Atomic                   Forces (Hartrees/Bohr)
 Number     Number              X              Y              Z
 -------------------------------------------------------------------
      1        6          -0.064388153    0.034854277    0.000000000
      2        6           0.002078141    0.009780575    0.000000000
      3        6           0.049829453    0.007625520    0.000000000
      4        6          -0.017403900    0.009418365    0.000000000
      5        6           0.020870583   -0.045891579   -0.000000000
      6        6          -0.007057407   -0.007085314   -0.000000000
      7       17           0.017662863    0.014089735    0.000000000
      8        1           0.103249902   -0.055888661   -0.000000000
      9        1          -0.004089559    0.115109635   -0.000000000
     10       17          -0.002138801   -0.022495385   -0.000000000
     11        1          -0.098613122   -0.059517169   -0.000000000
 -------------------------------------------------------------------
 Cartesian Forces:  Max     0.115109635 RMS     0.039838301

 GradGradGradGradGradGradGradGradGradGradGradGradGradGradGradGradGradGrad
 Berny optimization.
 FormGI is forming the generalized inverse of G from B-inverse, IUseBI=4.
 Internal  Forces:  Max     0.117405642 RMS     0.033285193
 Search for a local minimum.
 Step number   1 out of a maximum of   57
 All quantities printed in internal units (Hartrees-Bohrs-Radians)
 Mixed Optimization -- RFO/linear search
 Second derivative matrix not updated -- first step.
 ITU=  0
     Eigenvalues ---    0.02011   0.02011   0.02011   0.02011   0.02011
     Eigenvalues ---    0.02011   0.02011   0.02011   0.06524   0.06524
     Eigenvalues ---    0.06524   0.16000   0.16000   0.16000   0.23188
     Eigenvalues ---    0.23477   0.23493   0.25000   0.25000   0.29033
     Eigenvalues ---    0.29033   0.40971   0.41413   0.44656   0.44657
     Eigenvalues ---    0.44657   0.44657
 RFO step:  Lambda=-1.83014159D-01 EMin= 2.01067519D-02
 Linear search not attempted -- first point.
 Maximum step size (   0.300) exceeded in Quadratic search.
    -- Step size scaled by   0.361
 Iteration  1 RMS(Cart)=  0.05149615 RMS(Int)=  0.00005934
 Iteration  2 RMS(Cart)=  0.00008800 RMS(Int)=  0.00000457
 Iteration  3 RMS(Cart)=  0.00000001 RMS(Int)=  0.00000457
 ClnCor:  largest displacement from symmetrization is 1.97D-13 for atom    11.
 Variable       Old X    -DE/DX   Delta X   Delta X   Delta X     New X
                                 (Linear)    (Quad)   (Total)
    R1        2.65676  -0.03646   0.00000  -0.02064  -0.02065   2.63611
    R2        2.65677  -0.03646   0.00000  -0.02064  -0.02065   2.63612
    R3        3.33635  -0.11741   0.00000  -0.17063  -0.17063   3.16572
    R4        2.65677  -0.02809   0.00000  -0.01610  -0.01610   2.64067
    R5        3.33634  -0.02243   0.00000  -0.01709  -0.01709   3.31925
    R6        2.65677  -0.04887   0.00000  -0.02826  -0.02825   2.62851
    R7        3.33633  -0.11518   0.00000  -0.16739  -0.16739   3.16895
    R8        2.65678  -0.04888   0.00000  -0.02826  -0.02825   2.62852
    R9        2.65675  -0.02809   0.00000  -0.01610  -0.01610   2.64065
   R10        3.33632  -0.11518   0.00000  -0.16739  -0.16739   3.16893
   R11        3.33633  -0.02243   0.00000  -0.01709  -0.01709   3.31924
    A1        2.09439   0.00129   0.00000   0.00164   0.00163   2.09602
    A2        2.09439  -0.00065   0.00000  -0.00082  -0.00081   2.09358
    A3        2.09440  -0.00065   0.00000  -0.00082  -0.00081   2.09358
    A4        2.09439  -0.00967   0.00000  -0.00798  -0.00799   2.08640
    A5        2.09440   0.00024   0.00000   0.00016   0.00017   2.09456
    A6        2.09439   0.00943   0.00000   0.00782   0.00783   2.10222
    A7        2.09440   0.01835   0.00000   0.01571   0.01571   2.11011
    A8        2.09440  -0.01072   0.00000  -0.00948  -0.00948   2.08491
    A9        2.09439  -0.00763   0.00000  -0.00623  -0.00623   2.08816
   A10        2.09439  -0.01864   0.00000  -0.01709  -0.01707   2.07732
   A11        2.09439   0.01835   0.00000   0.01571   0.01571   2.11011
   A12        2.09439  -0.00763   0.00000  -0.00623  -0.00623   2.08816
   A13        2.09440  -0.01072   0.00000  -0.00948  -0.00948   2.08492
   A14        2.09440  -0.00968   0.00000  -0.00799  -0.00799   2.08641
   A15        2.09439   0.00024   0.00000   0.00016   0.00017   2.09456
   A16        2.09439   0.00944   0.00000   0.00782   0.00783   2.10222
    D1        0.00000  -0.00000   0.00000  -0.00000   0.00000   0.00000
    D2        3.14159  -0.00000   0.00000  -0.00000   0.00000   3.14159
    D3        3.14159   0.00000   0.00000   0.00000   0.00000   3.14159
    D4        0.00000  -0.00000   0.00000  -0.00000   0.00000   0.00000
    D5        0.00000   0.00000   0.00000   0.00000   0.00000   0.00000
    D6        3.14159  -0.00000   0.00000  -0.00000   0.00000   3.14159
    D7        3.14159  -0.00000   0.00000  -0.00000   0.00000   3.14159
    D8        0.00000  -0.00000   0.00000  -0.00000   0.00000   0.00000
    D9        0.00000   0.00000   0.00000   0.00000   0.00000   0.00000
   D10        3.14159  -0.00000   0.00000  -0.00000   0.00000   3.14159
   D11        3.14159   0.00000   0.00000   0.00000   0.00000   3.14159
   D12        0.00000  -0.00000   0.00000  -0.00000   0.00000   0.00000
   D13        0.00000   0.00000   0.00000   0.00000   0.00000   0.00000
   D14        3.14159   0.00000   0.00000   0.00000   0.00000   3.14159
   D15        0.00000  -0.00000   0.00000  -0.00000   0.00000   0.00000
   D16        3.14159  -0.00000   0.00000  -0.00000   0.00000   3.14159
   D17        0.00000  -0.00000   0.00000  -0.00000   0.00000   0.00000
   D18        3.14159   0.00000   0.00000   0.00000   0.00000   3.14159
   D19        3.14159  -0.00000   0.00000   0.00000   0.00000   3.14159
   D20        0.00000   0.00000   0.00000   0.00000   0.00000   0.00000
         Item               Value     Threshold  Converged?
 Maximum Force            0.117406     0.000450     NO 
 RMS     Force            0.033285     0.000300     NO 
 Maximum Displacement     0.204239     0.001800     NO 
 RMS     Displacement     0.051494     0.001200     NO 
 Predicted change in Energy=-6.235344D-02
 GradGradGradGradGradGradGradGradGradGradGradGradGradGradGradGradGradGrad

                          Input orientation:                          
 ---------------------------------------------------------------------
 Center     Atomic      Atomic             Coordinates (Angstroms)
 Number     Number       Type             X           Y           Z
 ---------------------------------------------------------------------
      1          6           0       -3.201612    0.195279    0.000000
      2          6           0       -2.013736    0.926644    0.000000
      3          6           0       -0.789645    0.252645    0.000000
      4          6           0       -0.739578   -1.137404    0.000000
      5          6           0       -1.930803   -1.855554    0.000000
      6          6           0       -3.164436   -1.199198    0.000000
      7         17           0       -4.661486   -2.117903    0.000000
      8          1           0       -4.674857    0.992738    0.000000
      9          1           0       -1.888608   -3.531951    0.000000
     10         17           0       -2.063104    2.682419    0.000000
     11          1           0        0.637023    1.133965    0.000000
 ---------------------------------------------------------------------
                    Distance matrix (angstroms):
                    1          2          3          4          5
     1  C    0.000000
     2  C    1.394971   0.000000
     3  C    2.412649   1.397381   0.000000
     4  C    2.799581   2.425648   1.390950   0.000000
     5  C    2.412649   2.783434   2.397237   1.390955   0.000000
     6  C    1.394973   2.417295   2.783430   2.425646   1.397374
     7  Cl   2.735332   4.034829   4.539895   4.042615   2.743256
     8  H    1.675229   2.661942   3.955074   4.474810   3.955073
     9  H    3.951737   4.460350   3.940924   2.655960   1.676928
    10  Cl   2.735336   1.756470   2.743265   4.042619   4.539902
    11  H    3.951740   2.658854   1.676934   2.655965   3.940933
                    6          7          8          9         10
     6  C    0.000000
     7  Cl   1.756467   0.000000
     8  H    2.661946   3.110670   0.000000
     9  H    2.658849   3.112617   5.313756   0.000000
    10  Cl   4.034834   5.458450   3.110671   6.216820   0.000000
    11  H    4.460352   6.216819   5.313757   5.305618   3.112618
                   11
    11  H    0.000000
 Stoichiometry    C6H3Cl2(1-)
 Framework group  CS[SG(C6H3Cl2)]
 Deg. of freedom    19
 Full point group                 CS      NOp   2
 Largest Abelian subgroup         CS      NOp   2
 Largest concise Abelian subgroup C1      NOp   1
                         Standard orientation:                         
 ---------------------------------------------------------------------
 Center     Atomic      Atomic             Coordinates (Angstroms)
 Number     Number       Type             X           Y           Z
 ---------------------------------------------------------------------
      1          6           0        0.000000    0.660988    0.000000
      2          6           0        1.208647   -0.035515    0.000000
      3          6           0        1.198615   -1.432860    0.000000
      4          6           0       -0.000002   -2.138593    0.000000
      5          6           0       -1.198622   -1.432855    0.000000
      6          6           0       -1.208648   -0.035517    0.000000
      7         17           0       -2.729223    0.843703    0.000000
      8          1           0        0.000002    2.336217    0.000000
      9          1           0       -2.652809   -2.267976    0.000000
     10         17           0        2.729227    0.843700    0.000000
     11          1           0        2.652809   -2.267980    0.000000
 ---------------------------------------------------------------------
 Rotational constants (GHZ):           2.8881769           0.8357956           0.6482125
 Standard basis: VSTO-6G (5D, 7F)
 There are    27 symmetry adapted cartesian basis functions of A'  symmetry.
 There are     8 symmetry adapted cartesian basis functions of A"  symmetry.
 There are    27 symmetry adapted basis functions of A'  symmetry.
 There are     8 symmetry adapted basis functions of A"  symmetry.
    35 basis functions,   210 primitive gaussians,    35 cartesian basis functions
    21 alpha electrons       21 beta electrons
       nuclear repulsion energy       192.1351645070 Hartrees.
 Integral buffers will be    131072 words long.
 Regular integral format.
 Two-electron integral symmetry is turned off.
 Do NDO integrals.
 One-electron integrals computed using PRISM.
 NBasis=    35 RedAO= T EigKep=  1.00D+00  NBF=    27     8
 NBsUse=    35 1.00D-06 EigRej= -1.00D+00 NBFU=    27     8
 Initial guess from the checkpoint file:  "geometry_chks/1_5ClBzAnionIntermediate.chk"
 B after Tr=     0.000000   -0.000000    0.000000
         Rot=    1.000000    0.000000    0.000000    0.000000 Ang=   0.00 deg.
 Initial guess orbital symmetries:
       Occupied  (A') (A') (A') (A') (A') (A') (A') (A') (A') (A")
                 (A') (A") (A') (A') (A') (A") (A') (A') (A") (A")
                 (A')
       Virtual   (A') (A") (A') (A') (A") (A') (A') (A") (A') (A')
                 (A') (A') (A') (A')
 Keep J ints in memory in canonical form, NReq=862793.
 Overlap will be assumed to be unity.
 Requested convergence on RMS density matrix=1.00D-08 within**** cycles.
 Requested convergence on MAX density matrix=1.00D-06.
 Requested convergence on             energy=1.00D-06.
 No special actions if energy rises.
 Fock symm off for IB=2 I1=    1 I=   28 J=    6 Cut=1.00D-07 Err=1.31D-03
 Fock matrix is not symmetric: symmetry in diagonalization turned off.
 SCF Done:  E(RAM1) =  0.347431219657     A.U. after   12 cycles
            NFock= 11  Conv=0.87D-08     -V/T= 1.0038
 Calling FoFJK, ICntrl=      2127 FMM=F ISym2X=1 I1Cent= 0 IOpClX= 0 NMat=1 NMatS=1 NMatT=0.
 ***** Axes restored to original set *****
 -------------------------------------------------------------------
 Center     Atomic                   Forces (Hartrees/Bohr)
 Number     Number              X              Y              Z
 -------------------------------------------------------------------
      1        6          -0.085210366    0.046124417    0.000000000
      2        6           0.003385312    0.016229977   -0.000000000
      3        6           0.071320046    0.029021131    0.000000000
      4        6          -0.005535425    0.002994000    0.000000000
      5        6           0.014706253   -0.075583196   -0.000000000
      6        6          -0.011741565   -0.011706297   -0.000000000
      7       17           0.013880986    0.011186503    0.000000000
      8        1           0.106890775   -0.057859481   -0.000000000
      9        1          -0.004001251    0.119115334   -0.000000000
     10       17          -0.001776000   -0.017740828   -0.000000000
     11        1          -0.101918765   -0.061781560   -0.000000000
 -------------------------------------------------------------------
 Cartesian Forces:  Max     0.119115334 RMS     0.044603795

 GradGradGradGradGradGradGradGradGradGradGradGradGradGradGradGradGradGrad
 Berny optimization.
 Using GEDIIS/GDIIS optimizer.
 FormGI is forming the generalized inverse of G from B-inverse, IUseBI=4.
 Internal  Forces:  Max     0.121545701 RMS     0.031738269
 Search for a local minimum.
 Step number   2 out of a maximum of   57
 All quantities printed in internal units (Hartrees-Bohrs-Radians)
 Mixed Optimization -- RFO/linear search
 Update second derivatives using D2CorX and points    1    2
 DE= -6.57D-02 DEPred=-6.24D-02 R= 1.05D+00
 TightC=F SS=  1.41D+00  RLast= 3.00D-01 DXNew= 5.0454D-01 9.0000D-01
 Trust test= 1.05D+00 RLast= 3.00D-01 DXMaxT set to 5.05D-01
 ITU=  1  0
 Use linear search instead of GDIIS.
 Linear search step of   0.600 exceeds DXMaxT=   0.505 but not scaled.
 Quartic linear search produced a step of  2.00000.
 Iteration  1 RMS(Cart)=  0.06975646 RMS(Int)=  0.03461786
 Iteration  2 RMS(Cart)=  0.03459787 RMS(Int)=  0.00002717
 Iteration  3 RMS(Cart)=  0.00000906 RMS(Int)=  0.00002673
 Iteration  4 RMS(Cart)=  0.00000000 RMS(Int)=  0.00002673
 ClnCor:  largest displacement from symmetrization is 1.99D-15 for atom     7.
 Variable       Old X    -DE/DX   Delta X   Delta X   Delta X     New X
                                 (Linear)    (Quad)   (Total)
    R1        2.63611  -0.01856  -0.04130   0.00000  -0.04134   2.59478
    R2        2.63612  -0.01856  -0.04130   0.00000  -0.04134   2.59478
    R3        3.16572  -0.12155  -0.34125   0.00000  -0.34125   2.82447
    R4        2.64067  -0.01436  -0.03220   0.00000  -0.03220   2.60847
    R5        3.31925  -0.01768  -0.03419   0.00000  -0.03419   3.28506
    R6        2.62851  -0.02713  -0.05650   0.00000  -0.05647   2.57205
    R7        3.16895  -0.11918  -0.33478   0.00000  -0.33478   2.83417
    R8        2.62852  -0.02713  -0.05651   0.00000  -0.05647   2.57205
    R9        2.64065  -0.01436  -0.03219   0.00000  -0.03219   2.60847
   R10        3.16893  -0.11918  -0.33478   0.00000  -0.33478   2.83416
   R11        3.31924  -0.01768  -0.03419   0.00000  -0.03419   3.28506
    A1        2.09602   0.00140   0.00325   0.00000   0.00317   2.09919
    A2        2.09358  -0.00070  -0.00163   0.00000  -0.00159   2.09199
    A3        2.09358  -0.00070  -0.00163   0.00000  -0.00159   2.09200
    A4        2.08640  -0.00732  -0.01598   0.00000  -0.01603   2.07038
    A5        2.09456  -0.00011   0.00033   0.00000   0.00035   2.09492
    A6        2.10222   0.00744   0.01565   0.00000   0.01567   2.11789
    A7        2.11011   0.01349   0.03143   0.00000   0.03146   2.14157
    A8        2.08491  -0.00833  -0.01897   0.00000  -0.01898   2.06593
    A9        2.08816  -0.00516  -0.01246   0.00000  -0.01248   2.07568
   A10        2.07732  -0.01374  -0.03414   0.00000  -0.03404   2.04328
   A11        2.11011   0.01349   0.03143   0.00000   0.03146   2.14157
   A12        2.08816  -0.00516  -0.01246   0.00000  -0.01248   2.07568
   A13        2.08492  -0.00833  -0.01897   0.00000  -0.01898   2.06594
   A14        2.08641  -0.00732  -0.01599   0.00000  -0.01603   2.07038
   A15        2.09456  -0.00011   0.00033   0.00000   0.00035   2.09491
   A16        2.10222   0.00744   0.01565   0.00000   0.01567   2.11789
    D1        0.00000  -0.00000   0.00000   0.00000   0.00000   0.00000
    D2        3.14159  -0.00000   0.00000   0.00000   0.00000   3.14159
    D3        3.14159   0.00000   0.00000   0.00000   0.00000   3.14159
    D4        0.00000   0.00000   0.00000   0.00000   0.00000   0.00000
    D5        0.00000  -0.00000   0.00000   0.00000   0.00000   0.00000
    D6        3.14159  -0.00000   0.00000   0.00000   0.00000   3.14159
    D7        3.14159  -0.00000   0.00000   0.00000   0.00000   3.14159
    D8        0.00000  -0.00000   0.00000   0.00000   0.00000   0.00000
    D9        0.00000   0.00000   0.00000   0.00000   0.00000   0.00000
   D10        3.14159  -0.00000   0.00000   0.00000   0.00000   3.14159
   D11        3.14159   0.00000   0.00000   0.00000   0.00000   3.14159
   D12        0.00000  -0.00000   0.00000   0.00000   0.00000   0.00000
   D13        0.00000  -0.00000   0.00000   0.00000   0.00000   0.00000
   D14        3.14159   0.00000   0.00000   0.00000   0.00000   3.14159
   D15        0.00000  -0.00000   0.00000   0.00000   0.00000   0.00000
   D16        3.14159  -0.00000   0.00000   0.00000   0.00000   3.14159
   D17        0.00000   0.00000   0.00000   0.00000   0.00000   0.00000
   D18        3.14159   0.00000   0.00000   0.00000   0.00000   3.14159
   D19        3.14159   0.00000   0.00000   0.00000   0.00000   3.14159
   D20        0.00000   0.00000   0.00000   0.00000   0.00000   0.00000
         Item               Value     Threshold  Converged?
 Maximum Force            0.121546     0.000450     NO 
 RMS     Force            0.031738     0.000300     NO 
 Maximum Displacement     0.408512     0.001800     NO 
 RMS     Displacement     0.102972     0.001200     NO 
 Predicted change in Energy=-1.284245D-01
 GradGradGradGradGradGradGradGradGradGradGradGradGradGradGradGradGradGrad

                          Input orientation:                          
 ---------------------------------------------------------------------
 Center     Atomic      Atomic             Coordinates (Angstroms)
 Number     Number       Type             X           Y           Z
 ---------------------------------------------------------------------
      1          6           0       -3.186382    0.187036    0.000000
      2          6           0       -2.018275    0.908785    0.000000
      3          6           0       -0.818849    0.225614    0.000000
      4          6           0       -0.746715   -1.133541    0.000000
      5          6           0       -1.924138   -1.816323    0.000000
      6          6           0       -3.151968   -1.185632    0.000000
      7         17           0       -4.634720   -2.093045    0.000000
      8          1           0       -4.500816    0.898532    0.000000
      9          1           0       -1.893208   -3.315776    0.000000
     10         17           0       -2.069278    2.646414    0.000000
     11          1           0        0.453509    1.019617    0.000000
 ---------------------------------------------------------------------
                    Distance matrix (angstroms):
                    1          2          3          4          5
     1  C    0.000000
     2  C    1.373097   0.000000
     3  C    2.367847   1.380343   0.000000
     4  C    2.774148   2.405818   1.361068   0.000000
     5  C    2.367849   2.726734   2.321890   1.361072   0.000000
     6  C    1.373099   2.381563   2.726731   2.405817   1.380340
     7  Cl   2.701195   3.982056   4.465093   4.004652   2.724671
     8  H    1.494646   2.482562   3.742954   4.268794   3.742955
     9  H    3.733897   4.226412   3.700769   2.465075   1.499772
    10  Cl   2.701196   1.738377   2.724673   4.004651   4.465097
    11  H    3.733898   2.474267   1.499778   2.465081   3.700778
                    6          7          8          9         10
     6  C    0.000000
     7  Cl   1.738376   0.000000
     8  H    2.482566   2.994573   0.000000
     9  H    2.474265   3.001826   4.955806   0.000000
    10  Cl   3.982059   5.389245   2.994573   5.964789   0.000000
    11  H    4.226415   5.964792   4.955804   4.929778   3.001820
                   11
    11  H    0.000000
 Stoichiometry    C6H3Cl2(1-)
 Framework group  CS[SG(C6H3Cl2)]
 Deg. of freedom    19
 Full point group                 CS      NOp   2
 Largest Abelian subgroup         CS      NOp   2
 Largest concise Abelian subgroup C1      NOp   1
                         Standard orientation:                         
 ---------------------------------------------------------------------
 Center     Atomic      Atomic             Coordinates (Angstroms)
 Number     Number       Type             X           Y           Z
 ---------------------------------------------------------------------
      1          6           0        0.648294   -0.000000   -0.000000
      2          6           0       -0.035398   -1.190781   -0.000000
      3          6           0       -1.415419   -1.160943    0.000000
      4          6           0       -2.125854   -0.000001    0.000000
      5          6           0       -1.415419    1.160946    0.000000
      6          6           0       -0.035401    1.190782    0.000000
      7         17           0        0.836619    2.694622    0.000000
      8          1           0        2.142940   -0.000001   -0.000000
      9          1           0       -2.156403    2.464886    0.000000
     10         17           0        0.836619   -2.694623   -0.000000
     11          1           0       -2.156398   -2.464892   -0.000000
 ---------------------------------------------------------------------
 Rotational constants (GHZ):           2.9686145           0.8617721           0.6678880
 Standard basis: VSTO-6G (5D, 7F)
 There are    27 symmetry adapted cartesian basis functions of A'  symmetry.
 There are     8 symmetry adapted cartesian basis functions of A"  symmetry.
 There are    27 symmetry adapted basis functions of A'  symmetry.
 There are     8 symmetry adapted basis functions of A"  symmetry.
    35 basis functions,   210 primitive gaussians,    35 cartesian basis functions
    21 alpha electrons       21 beta electrons
       nuclear repulsion energy       194.5283791422 Hartrees.
 Integral buffers will be    131072 words long.
 Regular integral format.
 Two-electron integral symmetry is turned off.
 Do NDO integrals.
 One-electron integrals computed using PRISM.
 NBasis=    35 RedAO= T EigKep=  1.00D+00  NBF=    27     8
 NBsUse=    35 1.00D-06 EigRej= -1.00D+00 NBFU=    27     8
 Initial guess from the checkpoint file:  "geometry_chks/1_5ClBzAnionIntermediate.chk"
 B after Tr=     0.000000   -0.000000    0.000000
         Rot=    0.707107   -0.000000    0.000000    0.707107 Ang=  90.00 deg.
 Initial guess orbital symmetries:
       Occupied  (A') (A') (A') (A') (A') (A') (A') (A') (A') (A")
                 (A') (A") (A') (A') (A') (A") (A') (A') (A") (A")
                 (A')
       Virtual   (A') (A") (A') (A') (A") (A') (A') (A") (A') (A')
                 (A') (A') (A') (A')
 Keep J ints in memory in canonical form, NReq=862793.
 Overlap will be assumed to be unity.
 Requested convergence on RMS density matrix=1.00D-08 within**** cycles.
 Requested convergence on MAX density matrix=1.00D-06.
 Requested convergence on             energy=1.00D-06.
 No special actions if energy rises.
 Fock symm off for IB=2 I1=    1 I=   28 J=    6 Cut=1.00D-07 Err=3.31D-03
 Fock matrix is not symmetric: symmetry in diagonalization turned off.
 SCF Done:  E(RAM1) =  0.223961657636     A.U. after   13 cycles
            NFock= 12  Conv=0.68D-08     -V/T= 1.0024
 Calling FoFJK, ICntrl=      2127 FMM=F ISym2X=1 I1Cent= 0 IOpClX= 0 NMat=1 NMatS=1 NMatT=0.
 ***** Axes restored to original set *****
 -------------------------------------------------------------------
 Center     Atomic                   Forces (Hartrees/Bohr)
 Number     Number              X              Y              Z
 -------------------------------------------------------------------
      1        6          -0.122040568    0.066058549    0.000000000
      2        6           0.006609334    0.031211702    0.000000000
      3        6           0.109539313    0.071545411    0.000000000
      4        6           0.022000162   -0.011910583   -0.000000000
      5        6          -0.000003329   -0.130833250    0.000000000
      6        6          -0.022520203   -0.022597727   -0.000000000
      7       17           0.005715008    0.004905361   -0.000000000
      8        1           0.103847796   -0.056212416   -0.000000000
      9        1          -0.003472459    0.115607305   -0.000000000
     10       17          -0.000982254   -0.007467754   -0.000000000
     11        1          -0.098692801   -0.060306600   -0.000000000
 -------------------------------------------------------------------
 Cartesian Forces:  Max     0.130833250 RMS     0.054206685

 GradGradGradGradGradGradGradGradGradGradGradGradGradGradGradGradGradGrad
 Berny optimization.
 Using GEDIIS/GDIIS optimizer.
 FormGI is forming the generalized inverse of G from B-inverse, IUseBI=4.
 Internal  Forces:  Max     0.118085564 RMS     0.030398343
 Search for a local minimum.
 Step number   3 out of a maximum of   57
 All quantities printed in internal units (Hartrees-Bohrs-Radians)
 Mixed Optimization -- RFO/linear search
 Update second derivatives using D2CorX and points    2    3
 ITU=  0  1  0
 Use linear search instead of GDIIS.
 Linear search step of   1.092 exceeds DXMaxT=   0.505 scaled by   0.924
 Quartic linear search produced a step of  1.68179.
 Iteration  1 RMS(Cart)=  0.08555744 RMS(Int)=  0.09269807
 Iteration  2 RMS(Cart)=  0.05048217 RMS(Int)=  0.04217782
 Iteration  3 RMS(Cart)=  0.04217309 RMS(Int)=  0.00007603
 Iteration  4 RMS(Cart)=  0.00000174 RMS(Int)=  0.00007602
 Iteration  5 RMS(Cart)=  0.00000000 RMS(Int)=  0.00007602
 ClnCor:  largest displacement from symmetrization is 8.11D-09 for atom     3.
 Variable       Old X    -DE/DX   Delta X   Delta X   Delta X     New X
                                 (Linear)    (Quad)   (Total)
    R1        2.59478   0.02252  -0.06952   0.00000  -0.06962   2.52515
    R2        2.59478   0.02251  -0.06952   0.00000  -0.06962   2.52516
    R3        2.82447  -0.11809  -0.57392   0.00000  -0.57392   2.25055
    R4        2.60847   0.01677  -0.05415   0.00000  -0.05414   2.55433
    R5        3.28506  -0.00744  -0.05750   0.00000  -0.05750   3.22756
    R6        2.57205   0.02238  -0.09497   0.00000  -0.09487   2.47718
    R7        2.83417  -0.11565  -0.56302   0.00000  -0.56302   2.27114
    R8        2.57205   0.02238  -0.09497   0.00000  -0.09487   2.47718
    R9        2.60847   0.01677  -0.05414   0.00000  -0.05413   2.55433
   R10        2.83416  -0.11565  -0.56303   0.00000  -0.56303   2.27113
   R11        3.28506  -0.00744  -0.05749   0.00000  -0.05749   3.22756
    A1        2.09919   0.00149   0.00534   0.00000   0.00511   2.10431
    A2        2.09199  -0.00074  -0.00267   0.00000  -0.00256   2.08944
    A3        2.09200  -0.00074  -0.00267   0.00000  -0.00256   2.08944
    A4        2.07038  -0.00156  -0.02695   0.00000  -0.02707   2.04330
    A5        2.09492  -0.00119   0.00059   0.00000   0.00065   2.09557
    A6        2.11789   0.00275   0.02636   0.00000   0.02642   2.14431
    A7        2.14157   0.00162   0.05291   0.00000   0.05300   2.19457
    A8        2.06593  -0.00235  -0.03192   0.00000  -0.03197   2.03397
    A9        2.07568   0.00073  -0.02099   0.00000  -0.02103   2.05465
   A10        2.04328  -0.00161  -0.05725   0.00000  -0.05695   1.98633
   A11        2.14157   0.00162   0.05291   0.00000   0.05299   2.19456
   A12        2.07568   0.00073  -0.02099   0.00000  -0.02103   2.05465
   A13        2.06594  -0.00235  -0.03192   0.00000  -0.03197   2.03397
   A14        2.07038  -0.00156  -0.02696   0.00000  -0.02708   2.04330
   A15        2.09491  -0.00119   0.00059   0.00000   0.00065   2.09557
   A16        2.11789   0.00275   0.02636   0.00000   0.02642   2.14432
    D1        0.00000   0.00000   0.00000   0.00000  -0.00000   0.00000
    D2        3.14159  -0.00000   0.00000   0.00000   0.00000   3.14159
    D3        3.14159   0.00000   0.00000   0.00000   0.00000   3.14159
    D4       -0.00000   0.00000   0.00000   0.00000   0.00000   0.00000
    D5       -0.00000   0.00000   0.00000   0.00000   0.00000   0.00000
    D6        3.14159   0.00000   0.00000   0.00000   0.00000   3.14159
    D7        3.14159  -0.00000   0.00000   0.00000   0.00000   3.14159
    D8       -0.00000  -0.00000   0.00000   0.00000   0.00000   0.00000
    D9        0.00000  -0.00000   0.00000   0.00000   0.00000   0.00000
   D10        3.14159  -0.00000   0.00000   0.00000   0.00000   3.14159
   D11        3.14159   0.00000   0.00000   0.00000   0.00000   3.14159
   D12        0.00000  -0.00000   0.00000   0.00000  -0.00000   0.00000
   D13        0.00000  -0.00000   0.00000   0.00000  -0.00000   0.00000
   D14        3.14159   0.00000   0.00000   0.00000   0.00000   3.14159
   D15        0.00000   0.00000   0.00000   0.00000  -0.00000   0.00000
   D16        3.14159  -0.00000   0.00000   0.00000   0.00000   3.14159
   D17        0.00000  -0.00000   0.00000   0.00000   0.00000   0.00000
   D18        3.14159  -0.00000   0.00000   0.00000   0.00000   3.14159
   D19        3.14159   0.00000   0.00000   0.00000   0.00000   3.14159
   D20       -0.00000   0.00000   0.00000   0.00000   0.00000   0.00000
         Item               Value     Threshold  Converged?
 Maximum Force            0.118086     0.000450     NO 
 RMS     Force            0.030398     0.000300     NO 
 Maximum Displacement     0.686962     0.001800     NO 
 RMS     Displacement     0.173107     0.001200     NO 
 Predicted change in Energy=-1.661045D-01
 GradGradGradGradGradGradGradGradGradGradGradGradGradGradGradGradGradGrad

                          Input orientation:                          
 ---------------------------------------------------------------------
 Center     Atomic      Atomic             Coordinates (Angstroms)
 Number     Number       Type             X           Y           Z
 ---------------------------------------------------------------------
      1          6           0       -3.161066    0.173333   -0.000000
      2          6           0       -2.026102    0.878619   -0.000000
      3          6           0       -0.868325    0.181036   -0.000000
      4          6           0       -0.761606   -1.125480   -0.000000
      5          6           0       -1.913863   -1.750524    0.000000
      6          6           0       -3.130993   -1.162584    0.000000
      7         17           0       -4.589490   -2.051342    0.000000
      8          1           0       -4.208415    0.740259   -0.000000
      9          1           0       -1.898026   -2.952251    0.000000
     10         17           0       -2.079460    2.585734   -0.000000
     11          1           0        0.146504    0.824881   -0.000000
 ---------------------------------------------------------------------
                    Distance matrix (angstroms):
                    1          2          3          4          5
     1  C    0.000000
     2  C    1.336253   0.000000
     3  C    2.292754   1.351691   0.000000
     4  C    2.728428   2.369675   1.310867   0.000000
     5  C    2.292759   2.631537   2.196377   1.310868   0.000000
     6  C    1.336256   2.321055   2.631536   2.369677   1.351696
     7  Cl   2.643780   3.893023   4.339421   3.938262   2.692484
     8  H    1.190942   2.186695   3.386581   3.919371   3.386586
     9  H    3.371135   3.833010   3.298147   2.151404   1.201832
    10  Cl   2.643776   1.707949   2.692475   3.938255   4.339419
    11  H    3.371133   2.173270   1.201838   2.151412   3.298154
                    6          7          8          9         10
     6  C    0.000000
     7  Cl   1.707952   0.000000
     8  H    2.186698   2.817490   0.000000
     9  H    2.173274   2.838242   4.355746   0.000000
    10  Cl   3.893021   5.272829   2.817486   5.540957   0.000000
    11  H    3.833016   5.540965   4.355741   4.294977   2.838225
                   11
    11  H    0.000000
 Stoichiometry    C6H3Cl2(1-)
 Framework group  CS[SG(C6H3Cl2)]
 Deg. of freedom    19
 Full point group                 CS      NOp   2
 Largest Abelian subgroup         CS      NOp   2
 Largest concise Abelian subgroup C1      NOp   1
                         Standard orientation:                         
 ---------------------------------------------------------------------
 Center     Atomic      Atomic             Coordinates (Angstroms)
 Number     Number       Type             X           Y           Z
 ---------------------------------------------------------------------
      1          6           0       -0.000000   -0.627027    0.000000
      2          6           0       -1.160527    0.035355   -0.000000
      3          6           0       -1.098191    1.385608   -0.000000
      4          6           0       -0.000006    2.101402   -0.000000
      5          6           0        1.098186    1.385616   -0.000000
      6          6           0        1.160528    0.035359   -0.000000
      7         17           0        2.636417   -0.824207    0.000000
      8          1           0        0.000001   -1.817969    0.000000
      9          1           0        2.147480    1.971604   -0.000000
     10         17           0       -2.636412   -0.824211    0.000000
     11          1           0       -2.147498    1.971586   -0.000000
 ---------------------------------------------------------------------
 Rotational constants (GHZ):           3.1119751           0.9078471           0.7028166
 Standard basis: VSTO-6G (5D, 7F)
 There are    27 symmetry adapted cartesian basis functions of A'  symmetry.
 There are     8 symmetry adapted cartesian basis functions of A"  symmetry.
 There are    27 symmetry adapted basis functions of A'  symmetry.
 There are     8 symmetry adapted basis functions of A"  symmetry.
    35 basis functions,   210 primitive gaussians,    35 cartesian basis functions
    21 alpha electrons       21 beta electrons
       nuclear repulsion energy       198.9497218315 Hartrees.
 Integral buffers will be    131072 words long.
 Regular integral format.
 Two-electron integral symmetry is turned off.
 Do NDO integrals.
 One-electron integrals computed using PRISM.
 NBasis=    35 RedAO= T EigKep=  1.00D+00  NBF=    27     8
 NBsUse=    35 1.00D-06 EigRej= -1.00D+00 NBFU=    27     8
 Initial guess from the checkpoint file:  "geometry_chks/1_5ClBzAnionIntermediate.chk"
 B after Tr=     0.000000   -0.000000   -0.000000
         Rot=    0.707107    0.000000    0.000000    0.707106 Ang=  90.00 deg.
 Initial guess orbital symmetries:
       Occupied  (A') (A') (A') (A') (A') (A') (A') (A') (A') (A")
                 (A') (A') (A") (A') (A') (A") (A') (A') (A") (A")
                 (A')
       Virtual   (A") (A') (A") (A') (A') (A') (A') (A") (A') (A')
                 (A') (A') (A') (A')
 Keep J ints in memory in canonical form, NReq=862793.
 Overlap will be assumed to be unity.
 Requested convergence on RMS density matrix=1.00D-08 within**** cycles.
 Requested convergence on MAX density matrix=1.00D-06.
 Requested convergence on             energy=1.00D-06.
 No special actions if energy rises.
 Fock symm off for IB=2 I1=    1 I=   28 J=    4 Cut=1.00D-07 Err=5.12D-03
 Fock matrix is not symmetric: symmetry in diagonalization turned off.
 SCF Done:  E(RAM1) =  0.100994819016     A.U. after   13 cycles
            NFock= 12  Conv=0.35D-08     -V/T= 1.0011
 Calling FoFJK, ICntrl=      2127 FMM=F ISym2X=1 I1Cent= 0 IOpClX= 0 NMat=1 NMatS=1 NMatT=0.
 ***** Axes restored to original set *****
 -------------------------------------------------------------------
 Center     Atomic                   Forces (Hartrees/Bohr)
 Number     Number              X              Y              Z
 -------------------------------------------------------------------
      1        6          -0.143991306    0.077936920    0.000000000
      2        6           0.014037942    0.065219158   -0.000000000
      3        6           0.135914425    0.127115019   -0.000000000
      4        6           0.083543094   -0.045221270    0.000000000
      5        6          -0.032117112   -0.183297353   -0.000000000
      6        6          -0.046926694   -0.047413762    0.000000000
      7       17          -0.010102325   -0.007293402    0.000000000
      8        1           0.039804688   -0.021546315   -0.000000000
      9        1          -0.001603965    0.045699341   -0.000000000
     10       17           0.000582291    0.012448958    0.000000000
     11        1          -0.039141038   -0.023647294   -0.000000000
 -------------------------------------------------------------------
 Cartesian Forces:  Max     0.183297353 RMS     0.060436464

 GradGradGradGradGradGradGradGradGradGradGradGradGradGradGradGradGradGrad
 Berny optimization.
 Using GEDIIS/GDIIS optimizer.
 FormGI is forming the generalized inverse of G from B-inverse, IUseBI=4.
 Internal  Forces:  Max     0.126142734 RMS     0.040987109
 Search for a local minimum.
 Step number   4 out of a maximum of   57
 All quantities printed in internal units (Hartrees-Bohrs-Radians)
 Mixed Optimization -- RFO/linear search
 Update second derivatives using D2CorX and points    3    4
 ITU=  0  0  1  0
 Use linear search instead of GDIIS.
     Eigenvalues ---    0.02011   0.02011   0.02011   0.02011   0.02011
     Eigenvalues ---    0.02011   0.02011   0.02011   0.06523   0.06524
     Eigenvalues ---    0.08866   0.15997   0.16000   0.16000   0.23362
     Eigenvalues ---    0.23391   0.23856   0.24977   0.25000   0.28788
     Eigenvalues ---    0.29033   0.40419   0.41308   0.44653   0.44656
     Eigenvalues ---    0.44657   0.65753
 RFO step:  Lambda=-1.45043100D-01 EMin= 2.01067772D-02
 Quartic linear search produced a step of  0.07388.
 Maximum step size (   0.505) exceeded in Quadratic search.
    -- Step size scaled by   0.867
 Iteration  1 RMS(Cart)=  0.06025610 RMS(Int)=  0.01093021
 Iteration  2 RMS(Cart)=  0.01071528 RMS(Int)=  0.00004836
 Iteration  3 RMS(Cart)=  0.00000156 RMS(Int)=  0.00004834
 Iteration  4 RMS(Cart)=  0.00000000 RMS(Int)=  0.00004834
 ClnCor:  largest displacement from symmetrization is 1.15D-12 for atom     9.
 Variable       Old X    -DE/DX   Delta X   Delta X   Delta X     New X
                                 (Linear)    (Quad)   (Total)
    R1        2.52515   0.10988  -0.00514   0.14349   0.13828   2.66343
    R2        2.52516   0.10988  -0.00514   0.14349   0.13828   2.66343
    R3        2.25055  -0.04526  -0.04240  -0.20099  -0.24339   2.00717
    R4        2.55433   0.08246  -0.00400   0.10835   0.10435   2.65868
    R5        3.22756   0.01242  -0.00425   0.02283   0.01859   3.24614
    R6        2.47718   0.12614  -0.00701   0.16661   0.15967   2.63685
    R7        2.27114  -0.04572  -0.04159  -0.20144  -0.24303   2.02811
    R8        2.47718   0.12614  -0.00701   0.16662   0.15967   2.63685
    R9        2.55433   0.08245  -0.00400   0.10834   0.10434   2.65868
   R10        2.27113  -0.04572  -0.04159  -0.20143  -0.24302   2.02811
   R11        3.22756   0.01242  -0.00425   0.02283   0.01858   3.24614
    A1        2.10431   0.00110   0.00038   0.00059   0.00083   2.10514
    A2        2.08944  -0.00055  -0.00019  -0.00030  -0.00041   2.08902
    A3        2.08944  -0.00055  -0.00019  -0.00030  -0.00041   2.08902
    A4        2.04330   0.01138  -0.00200   0.02183   0.01975   2.06305
    A5        2.09557  -0.00412   0.00005  -0.00773  -0.00764   2.08793
    A6        2.14431  -0.00726   0.00195  -0.01410  -0.01211   2.13220
    A7        2.19457  -0.02456   0.00392  -0.04938  -0.04541   2.14915
    A8        2.03397   0.01114  -0.00236   0.02172   0.01933   2.05330
    A9        2.05465   0.01341  -0.00155   0.02766   0.02608   2.08073
   A10        1.98633   0.02525  -0.00421   0.05451   0.05049   2.03682
   A11        2.19456  -0.02455   0.00392  -0.04938  -0.04541   2.14915
   A12        2.05465   0.01341  -0.00155   0.02767   0.02608   2.08073
   A13        2.03397   0.01114  -0.00236   0.02171   0.01933   2.05330
   A14        2.04330   0.01138  -0.00200   0.02183   0.01975   2.06305
   A15        2.09557  -0.00412   0.00005  -0.00773  -0.00764   2.08793
   A16        2.14432  -0.00726   0.00195  -0.01410  -0.01211   2.13220
    D1       -0.00000   0.00000   0.00000   0.00000   0.00000   0.00000
    D2        3.14159  -0.00000   0.00000  -0.00000   0.00000   3.14159
    D3        3.14159   0.00000   0.00000   0.00000   0.00000   3.14159
    D4       -0.00000   0.00000   0.00000   0.00000   0.00000   0.00000
    D5        0.00000   0.00000   0.00000   0.00000  -0.00000   0.00000
    D6        3.14159   0.00000   0.00000   0.00000   0.00000   3.14159
    D7        3.14159  -0.00000   0.00000  -0.00000   0.00000   3.14159
    D8        0.00000  -0.00000   0.00000  -0.00000   0.00000   0.00000
    D9        0.00000  -0.00000   0.00000  -0.00000   0.00000   0.00000
   D10        3.14159  -0.00000   0.00000  -0.00000   0.00000   3.14159
   D11        3.14159  -0.00000   0.00000  -0.00000   0.00000   3.14159
   D12        0.00000  -0.00000   0.00000  -0.00000  -0.00000   0.00000
   D13       -0.00000   0.00000   0.00000   0.00000   0.00000   0.00000
   D14        3.14159   0.00000   0.00000   0.00000   0.00000   3.14159
   D15        0.00000  -0.00000   0.00000  -0.00000   0.00000   0.00000
   D16        3.14159  -0.00000   0.00000  -0.00000   0.00000   3.14159
   D17       -0.00000   0.00000   0.00000  -0.00000   0.00000   0.00000
   D18        3.14159  -0.00000   0.00000  -0.00000   0.00000   3.14159
   D19        3.14159   0.00000   0.00000   0.00000   0.00000   3.14159
   D20       -0.00000   0.00000   0.00000   0.00000   0.00000   0.00000
         Item               Value     Threshold  Converged?
 Maximum Force            0.126143     0.000450     NO 
 RMS     Force            0.040987     0.000300     NO 
 Maximum Displacement     0.183666     0.001800     NO 
 RMS     Displacement     0.063169     0.001200     NO 
 Predicted change in Energy=-9.318504D-02
 GradGradGradGradGradGradGradGradGradGradGradGradGradGradGradGradGradGrad

                          Input orientation:                          
 ---------------------------------------------------------------------
 Center     Atomic      Atomic             Coordinates (Angstroms)
 Number     Number       Type             X           Y           Z
 ---------------------------------------------------------------------
      1          6           0       -3.208016    0.198746    0.000000
      2          6           0       -2.011208    0.943152    0.000000
      3          6           0       -0.791737    0.241517    0.000000
      4          6           0       -0.713284   -1.151636    0.000000
      5          6           0       -1.922626   -1.847716   -0.000000
      6          6           0       -3.176879   -1.210338   -0.000000
      7         17           0       -4.650922   -2.092373   -0.000000
      8          1           0       -4.142100    0.704359   -0.000000
      9          1           0       -1.909385   -2.920864   -0.000000
     10         17           0       -2.078700    2.659610    0.000000
     11          1           0        0.114016    0.817222    0.000000
 ---------------------------------------------------------------------
                    Distance matrix (angstroms):
                    1          2          3          4          5
     1  C    0.000000
     2  C    1.409429   0.000000
     3  C    2.416658   1.406912   0.000000
     4  C    2.836763   2.464294   1.395360   0.000000
     5  C    2.416658   2.792273   2.375669   1.395362   0.000000
     6  C    1.409429   2.448736   2.792273   2.464294   1.406912
     7  Cl   2.707619   4.022747   4.510027   4.048453   2.739243
     8  H    1.062147   2.144229   3.382182   3.898910   3.382181
     9  H    3.379114   3.865357   3.354070   2.135608   1.073230
    10  Cl   2.707620   1.717784   2.739242   4.048451   4.510027
    11  H    3.379114   2.128952   1.073232   2.135610   3.354073
                    6          7          8          9         10
     6  C    0.000000
     7  Cl   1.717785   0.000000
     8  H    2.144229   2.842641   0.000000
     9  H    2.128953   2.863987   4.257612   0.000000
    10  Cl   4.022747   5.403486   2.842643   5.583042   0.000000
    11  H    3.865358   5.583044   4.257612   4.250581   2.863983
                   11
    11  H    0.000000
 Stoichiometry    C6H3Cl2(1-)
 Framework group  CS[SG(C6H3Cl2)]
 Deg. of freedom    19
 Full point group                 CS      NOp   2
 Largest Abelian subgroup         CS      NOp   2
 Largest concise Abelian subgroup C1      NOp   1
                         Standard orientation:                         
 ---------------------------------------------------------------------
 Center     Atomic      Atomic             Coordinates (Angstroms)
 Number     Number       Type             X           Y           Z
 ---------------------------------------------------------------------
      1          6           0        0.000000   -0.668267   -0.000000
      2          6           0       -1.224368    0.029882    0.000000
      3          6           0       -1.187833    1.436320    0.000000
      4          6           0        0.000000    2.168495    0.000000
      5          6           0        1.187835    1.436319    0.000000
      6          6           0        1.224368    0.029882    0.000000
      7         17           0        2.701742   -0.846561   -0.000000
      8          1           0       -0.000000   -1.730414   -0.000000
      9          1           0        2.125290    1.958814    0.000000
     10         17           0       -2.701743   -0.846557   -0.000000
     11          1           0       -2.125291    1.958813    0.000000
 ---------------------------------------------------------------------
 Rotational constants (GHZ):           2.9366380           0.8573747           0.6636243
 Standard basis: VSTO-6G (5D, 7F)
 There are    27 symmetry adapted cartesian basis functions of A'  symmetry.
 There are     8 symmetry adapted cartesian basis functions of A"  symmetry.
 There are    27 symmetry adapted basis functions of A'  symmetry.
 There are     8 symmetry adapted basis functions of A"  symmetry.
    35 basis functions,   210 primitive gaussians,    35 cartesian basis functions
    21 alpha electrons       21 beta electrons
       nuclear repulsion energy       195.7351648192 Hartrees.
 Integral buffers will be    131072 words long.
 Regular integral format.
 Two-electron integral symmetry is turned off.
 Do NDO integrals.
 One-electron integrals computed using PRISM.
 NBasis=    35 RedAO= T EigKep=  1.00D+00  NBF=    27     8
 NBsUse=    35 1.00D-06 EigRej= -1.00D+00 NBFU=    27     8
 Initial guess from the checkpoint file:  "geometry_chks/1_5ClBzAnionIntermediate.chk"
 B after Tr=     0.000000    0.000000    0.000000
         Rot=    1.000000   -0.000000    0.000000    0.000001 Ang=   0.00 deg.
 Initial guess orbital symmetries:
       Occupied  (A') (A') (A') (A') (A') (A') (A') (A') (A') (A')
                 (A") (A') (A") (A') (A') (A') (A") (A') (A") (A")
                 (A')
       Virtual   (A") (A') (A") (A') (A') (A") (A') (A') (A') (A')
                 (A') (A') (A') (A')
 Keep J ints in memory in canonical form, NReq=862793.
 Overlap will be assumed to be unity.
 Requested convergence on RMS density matrix=1.00D-08 within**** cycles.
 Requested convergence on MAX density matrix=1.00D-06.
 Requested convergence on             energy=1.00D-06.
 No special actions if energy rises.
 Fock symm off for IB=2 I1=    1 I=   28 J=    4 Cut=1.00D-07 Err=5.83D-03
 Fock matrix is not symmetric: symmetry in diagonalization turned off.
 SCF Done:  E(RAM1) =  0.481973655965E-01 A.U. after   13 cycles
            NFock= 12  Conv=0.58D-08     -V/T= 1.0005
 Calling FoFJK, ICntrl=      2127 FMM=F ISym2X=1 I1Cent= 0 IOpClX= 0 NMat=1 NMatS=1 NMatT=0.
 ***** Axes restored to original set *****
 -------------------------------------------------------------------
 Center     Atomic                   Forces (Hartrees/Bohr)
 Number     Number              X              Y              Z
 -------------------------------------------------------------------
      1        6           0.014783392   -0.008001879    0.000000000
      2        6          -0.001281230   -0.033388726   -0.000000000
      3        6          -0.012262320    0.003476849    0.000000000
      4        6          -0.014128507    0.007646778    0.000000000
      5        6          -0.009614738    0.008367230    0.000000000
      6        6           0.027254155    0.019329214   -0.000000000
      7       17           0.000141867    0.000584312   -0.000000000
      8        1          -0.023642335    0.012797458   -0.000000000
      9        1           0.001660555   -0.019819097   -0.000000000
     10       17          -0.000411830   -0.000437911    0.000000000
     11        1           0.017500991    0.009445771   -0.000000000
 -------------------------------------------------------------------
 Cartesian Forces:  Max     0.033388726 RMS     0.011823127

 GradGradGradGradGradGradGradGradGradGradGradGradGradGradGradGradGradGrad
 Berny optimization.
 Using GEDIIS/GDIIS optimizer.
 FormGI is forming the generalized inverse of G from B-inverse, IUseBI=4.
 Internal  Forces:  Max     0.026883730 RMS     0.007999186
 Search for a local minimum.
 Step number   5 out of a maximum of   57
 All quantities printed in internal units (Hartrees-Bohrs-Radians)
 Mixed Optimization -- RFO/linear search
 Update second derivatives using D2CorX and points    4    5
 DE= -5.28D-02 DEPred=-9.32D-02 R= 5.67D-01
 TightC=F SS=  1.41D+00  RLast= 5.47D-01 DXNew= 8.4853D-01 1.6405D+00
 Trust test= 5.67D-01 RLast= 5.47D-01 DXMaxT set to 8.49D-01
 ITU=  1  0  0  1  0
 Use linear search instead of GDIIS.
     Eigenvalues ---    0.02011   0.02011   0.02011   0.02011   0.02011
     Eigenvalues ---    0.02011   0.02011   0.02011   0.06519   0.06524
     Eigenvalues ---    0.15983   0.16000   0.16000   0.17496   0.23431
     Eigenvalues ---    0.23441   0.23468   0.24984   0.25000   0.28831
     Eigenvalues ---    0.29033   0.40882   0.41369   0.44632   0.44656
     Eigenvalues ---    0.44657   0.74079
 RFO step:  Lambda=-8.45717506D-03 EMin= 2.01067655D-02
 Quartic linear search produced a step of -0.14135.
 Iteration  1 RMS(Cart)=  0.03769267 RMS(Int)=  0.00021251
 Iteration  2 RMS(Cart)=  0.00027669 RMS(Int)=  0.00002968
 Iteration  3 RMS(Cart)=  0.00000001 RMS(Int)=  0.00002968
 ClnCor:  largest displacement from symmetrization is 8.84D-12 for atom     8.
 Variable       Old X    -DE/DX   Delta X   Delta X   Delta X     New X
                                 (Linear)    (Quad)   (Total)
    R1        2.66343  -0.01272  -0.01955   0.01011  -0.00940   2.65403
    R2        2.66343  -0.01272  -0.01954   0.01011  -0.00940   2.65403
    R3        2.00717   0.02688   0.03440   0.12322   0.15762   2.16479
    R4        2.65868  -0.00991  -0.01475   0.00762  -0.00713   2.65155
    R5        3.24614  -0.00042  -0.00263   0.00617   0.00354   3.24968
    R6        2.63685  -0.00351  -0.02257   0.03499   0.01238   2.64923
    R7        2.02811   0.01984   0.03435   0.04496   0.07931   2.10742
    R8        2.63685  -0.00351  -0.02257   0.03499   0.01238   2.64923
    R9        2.65868  -0.00991  -0.01475   0.00761  -0.00713   2.65154
   R10        2.02811   0.01984   0.03435   0.04497   0.07932   2.10743
   R11        3.24614  -0.00042  -0.00263   0.00617   0.00354   3.24968
    A1        2.10514  -0.01046  -0.00012  -0.03909  -0.03912   2.06602
    A2        2.08902   0.00523   0.00006   0.01955   0.01956   2.10858
    A3        2.08902   0.00523   0.00006   0.01955   0.01956   2.10858
    A4        2.06305   0.01226  -0.00279   0.04698   0.04423   2.10728
    A5        2.08793  -0.00682   0.00108  -0.02470  -0.02364   2.06428
    A6        2.13220  -0.00543   0.00171  -0.02227  -0.02059   2.11162
    A7        2.14915  -0.00990   0.00642  -0.04616  -0.03977   2.10938
    A8        2.05330   0.00639  -0.00273   0.02951   0.02680   2.08009
    A9        2.08073   0.00352  -0.00369   0.01665   0.01298   2.09371
   A10        2.03682   0.00575  -0.00714   0.03746   0.03021   2.06702
   A11        2.14915  -0.00990   0.00642  -0.04616  -0.03977   2.10938
   A12        2.08073   0.00352  -0.00369   0.01665   0.01298   2.09371
   A13        2.05330   0.00639  -0.00273   0.02951   0.02679   2.08009
   A14        2.06305   0.01226  -0.00279   0.04698   0.04423   2.10729
   A15        2.08793  -0.00682   0.00108  -0.02470  -0.02364   2.06428
   A16        2.13220  -0.00543   0.00171  -0.02228  -0.02059   2.11162
    D1        0.00000  -0.00000   0.00000  -0.00000   0.00000   0.00000
    D2        3.14159  -0.00000   0.00000  -0.00000   0.00000   3.14159
    D3        3.14159   0.00000   0.00000   0.00000   0.00000   3.14159
    D4        0.00000   0.00000   0.00000   0.00000  -0.00000   0.00000
    D5       -0.00000   0.00000   0.00000   0.00000   0.00000   0.00000
    D6        3.14159   0.00000   0.00000   0.00000   0.00000   3.14159
    D7        3.14159  -0.00000   0.00000  -0.00000   0.00000   3.14159
    D8        0.00000  -0.00000   0.00000  -0.00000   0.00000   0.00000
    D9       -0.00000  -0.00000   0.00000  -0.00000   0.00000   0.00000
   D10        3.14159  -0.00000   0.00000  -0.00000   0.00000   3.14159
   D11        3.14159  -0.00000   0.00000  -0.00000   0.00000   3.14159
   D12       -0.00000  -0.00000   0.00000  -0.00000   0.00000   0.00000
   D13        0.00000   0.00000   0.00000   0.00000  -0.00000   0.00000
   D14        3.14159   0.00000   0.00000   0.00000   0.00000   3.14159
   D15       -0.00000   0.00000   0.00000   0.00000   0.00000   0.00000
   D16        3.14159  -0.00000   0.00000  -0.00000   0.00000   3.14159
   D17        0.00000  -0.00000   0.00000  -0.00000   0.00000   0.00000
   D18        3.14159  -0.00000   0.00000  -0.00000   0.00000   3.14159
   D19        3.14159   0.00000   0.00000   0.00000   0.00000   3.14159
   D20        0.00000   0.00000   0.00000   0.00000  -0.00000   0.00000
         Item               Value     Threshold  Converged?
 Maximum Force            0.026884     0.000450     NO 
 RMS     Force            0.007999     0.000300     NO 
 Maximum Displacement     0.154904     0.001800     NO 
 RMS     Displacement     0.037575     0.001200     NO 
 Predicted change in Energy=-5.807350D-03
 GradGradGradGradGradGradGradGradGradGradGradGradGradGradGradGradGradGrad

                          Input orientation:                          
 ---------------------------------------------------------------------
 Center     Atomic      Atomic             Coordinates (Angstroms)
 Number     Number       Type             X           Y           Z
 ---------------------------------------------------------------------
      1          6           0       -3.216636    0.203413    0.000000
      2          6           0       -2.009772    0.921725    0.000000
      3          6           0       -0.776681    0.252187    0.000000
      4          6           0       -0.719007   -1.148538    0.000000
      5          6           0       -1.923327   -1.866155   -0.000000
      6          6           0       -3.158152   -1.199823   -0.000000
      7         17           0       -4.637397   -2.076785   -0.000000
      8          1           0       -4.224071    0.748731    0.000000
      9          1           0       -1.907200   -2.981243   -0.000000
     10         17           0       -2.084357    2.639765    0.000000
     11          1           0        0.165760    0.848404    0.000000
 ---------------------------------------------------------------------
                    Distance matrix (angstroms):
                    1          2          3          4          5
     1  C    0.000000
     2  C    1.404455   0.000000
     3  C    2.440443   1.403138   0.000000
     4  C    2.840057   2.439685   1.401912   0.000000
     5  C    2.440443   2.789220   2.408770   1.401913   0.000000
     6  C    1.404455   2.412414   2.789219   2.439684   1.403137
     7  Cl   2.686608   3.986913   4.508796   4.026837   2.722231
     8  H    1.145555   2.221046   3.482967   3.985612   3.482966
     9  H    3.443350   3.904315   3.425368   2.184172   1.115205
    10  Cl   2.686609   1.719659   2.722232   4.026838   4.508797
    11  H    3.443344   2.176767   1.115199   2.184168   3.425363
                    6          7          8          9         10
     6  C    0.000000
     7  Cl   1.719659   0.000000
     8  H    2.221046   2.855587   0.000000
     9  H    2.176772   2.876112   4.390968   0.000000
    10  Cl   3.986913   5.363195   2.855589   5.623799   0.000000
    11  H    3.904309   5.623793   4.390963   4.354694   2.876109
                   11
    11  H    0.000000
 Stoichiometry    C6H3Cl2(1-)
 Framework group  CS[SG(C6H3Cl2)]
 Deg. of freedom    19
 Full point group                 CS      NOp   2
 Largest Abelian subgroup         CS      NOp   2
 Largest concise Abelian subgroup C1      NOp   1
                         Standard orientation:                         
 ---------------------------------------------------------------------
 Center     Atomic      Atomic             Coordinates (Angstroms)
 Number     Number       Type             X           Y           Z
 ---------------------------------------------------------------------
      1          6           0        0.000000   -0.681601    0.000000
      2          6           0       -1.206207    0.037813    0.000000
      3          6           0       -1.204384    1.440949    0.000000
      4          6           0        0.000001    2.158456    0.000000
      5          6           0        1.204385    1.440948    0.000000
      6          6           0        1.206207    0.037813    0.000000
      7         17           0        2.681597   -0.845619    0.000000
      8          1           0        0.000000   -1.827156    0.000000
      9          1           0        2.177350    1.985945    0.000000
     10         17           0       -2.681598   -0.845617    0.000000
     11          1           0       -2.177344    1.985943    0.000000
 ---------------------------------------------------------------------
 Rotational constants (GHZ):           2.9284568           0.8680402           0.6695694
 Standard basis: VSTO-6G (5D, 7F)
 There are    27 symmetry adapted cartesian basis functions of A'  symmetry.
 There are     8 symmetry adapted cartesian basis functions of A"  symmetry.
 There are    27 symmetry adapted basis functions of A'  symmetry.
 There are     8 symmetry adapted basis functions of A"  symmetry.
    35 basis functions,   210 primitive gaussians,    35 cartesian basis functions
    21 alpha electrons       21 beta electrons
       nuclear repulsion energy       195.5851948955 Hartrees.
 Integral buffers will be    131072 words long.
 Regular integral format.
 Two-electron integral symmetry is turned off.
 Do NDO integrals.
 One-electron integrals computed using PRISM.
 NBasis=    35 RedAO= T EigKep=  1.00D+00  NBF=    27     8
 NBsUse=    35 1.00D-06 EigRej= -1.00D+00 NBFU=    27     8
 Initial guess from the checkpoint file:  "geometry_chks/1_5ClBzAnionIntermediate.chk"
 B after Tr=     0.000000    0.000000    0.000000
         Rot=    1.000000   -0.000000   -0.000000   -0.000000 Ang=  -0.00 deg.
 Initial guess orbital symmetries:
       Occupied  (A') (A') (A') (A') (A') (A') (A') (A') (A') (A')
[...]
 SCF Done:  E(RAM1) =  0.436474014994E-01 A.U. after    9 cycles
            NFock=  8  Conv=0.68D-08     -V/T= 1.0005
 Calling FoFJK, ICntrl=      2127 FMM=F ISym2X=1 I1Cent= 0 IOpClX= 0 NMat=1 NMatS=1 NMatT=0.
 ***** Axes restored to original set *****
 -------------------------------------------------------------------
 Center     Atomic                   Forces (Hartrees/Bohr)
 Number     Number              X              Y              Z
 -------------------------------------------------------------------
      1        6           0.000087758   -0.000047512    0.000000000
      2        6           0.000000697   -0.000059008    0.000000000
      3        6          -0.000111279    0.000018242    0.000000000
      4        6           0.000061245   -0.000033026   -0.000000000
      5        6          -0.000076109    0.000084334   -0.000000000
      6        6           0.000049711    0.000031811   -0.000000000
      7       17           0.000007283    0.000019631    0.000000000
      8        1           0.000008868   -0.000004794   -0.000000000
      9        1          -0.000018315   -0.000016448   -0.000000000
     10       17          -0.000012456   -0.000016835   -0.000000000
     11        1           0.000002596    0.000023605   -0.000000000
 -------------------------------------------------------------------
 Cartesian Forces:  Max     0.000111279 RMS     0.000038744

 GradGradGradGradGradGradGradGradGradGradGradGradGradGradGradGradGradGrad
 Berny optimization.
 Using GEDIIS/GDIIS optimizer.
 FormGI is forming the generalized inverse of G from B-inverse, IUseBI=4.
 Internal  Forces:  Max     0.000107144 RMS     0.000031854
 Search for a local minimum.
 Step number  10 out of a maximum of   57
 All quantities printed in internal units (Hartrees-Bohrs-Radians)
 Mixed Optimization -- En-DIIS/RFO-DIIS
 Swapping is turned off.
 Update second derivatives using D2CorX and points    4    5    6    7    8
                                                      9   10
 DE= -8.76D-06 DEPred=-8.62D-06 R= 1.02D+00
 TightC=F SS=  1.41D+00  RLast= 7.94D-03 DXNew= 7.1352D-01 2.3809D-02
 Trust test= 1.02D+00 RLast= 7.94D-03 DXMaxT set to 4.24D-01
 ITU=  1  1 -1  1  0  1  0  0  1  0
     Eigenvalues ---    0.02011   0.02011   0.02011   0.02011   0.02011
     Eigenvalues ---    0.02011   0.02011   0.02011   0.06524   0.15180
     Eigenvalues ---    0.16000   0.16000   0.17773   0.23234   0.23480
     Eigenvalues ---    0.24950   0.25000   0.29033   0.29498   0.35753
     Eigenvalues ---    0.36215   0.40807   0.44656   0.44657   0.45549
     Eigenvalues ---    0.47419   0.82892
 En-DIIS/RFO-DIIS/Sim-DIIS IScMMF=       -3 using points:    10    9
 RFO step:  Lambda=-9.68904996D-08.
 DidBck=F Rises=F RFO-DIIS coefs:    0.98392    0.01608
 Iteration  1 RMS(Cart)=  0.00013625 RMS(Int)=  0.00000001
 Iteration  2 RMS(Cart)=  0.00000001 RMS(Int)=  0.00000000
 ClnCor:  largest displacement from symmetrization is 2.85D-13 for atom     9.
 Variable       Old X    -DE/DX   Delta X   Delta X   Delta X     New X
                                 (Linear)    (Quad)   (Total)
    R1        2.64343  -0.00011   0.00002  -0.00019  -0.00017   2.64326
    R2        2.64343  -0.00011   0.00002  -0.00019  -0.00017   2.64326
    R3        2.07120  -0.00001   0.00007  -0.00007  -0.00001   2.07120
    R4        2.63921  -0.00008   0.00002  -0.00015  -0.00013   2.63909
    R5        3.26959  -0.00002  -0.00004   0.00001  -0.00004   3.26955
    R6        2.63124   0.00002   0.00002   0.00009   0.00011   2.63135
    R7        2.07550   0.00001   0.00000   0.00004   0.00004   2.07554
    R8        2.63124   0.00002   0.00002   0.00009   0.00011   2.63135
    R9        2.63921  -0.00008   0.00002  -0.00014  -0.00013   2.63909
   R10        2.07550   0.00002   0.00000   0.00006   0.00006   2.07556
   R11        3.26959  -0.00002  -0.00004   0.00001  -0.00004   3.26955
    A1        2.04954   0.00002   0.00003   0.00005   0.00008   2.04963
    A2        2.11682  -0.00001  -0.00002  -0.00003  -0.00004   2.11678
    A3        2.11682  -0.00001  -0.00002  -0.00003  -0.00004   2.11678
    A4        2.11909   0.00001  -0.00003  -0.00000  -0.00003   2.11906
    A5        2.05837  -0.00003   0.00002  -0.00008  -0.00007   2.05830
    A6        2.10572   0.00002   0.00001   0.00009   0.00010   2.10582
    A7        2.10241   0.00002   0.00002   0.00009   0.00011   2.10251
    A8        2.09049  -0.00003  -0.00002  -0.00017  -0.00018   2.09030
    A9        2.09029   0.00001  -0.00000   0.00008   0.00008   2.09037
   A10        2.07382  -0.00007  -0.00001  -0.00022  -0.00023   2.07359
   A11        2.10241   0.00002   0.00002   0.00008   0.00011   2.10251
   A12        2.09029   0.00001  -0.00000   0.00008   0.00008   2.09037
   A13        2.09049  -0.00003  -0.00002  -0.00016  -0.00018   2.09030
   A14        2.11909   0.00001  -0.00003  -0.00000  -0.00003   2.11906
   A15        2.05837  -0.00003   0.00002  -0.00008  -0.00007   2.05830
   A16        2.10572   0.00002   0.00001   0.00009   0.00010   2.10582
    D1        0.00000  -0.00000   0.00000  -0.00000   0.00000   0.00000
    D2        3.14159  -0.00000   0.00000  -0.00000   0.00000   3.14159
    D3        3.14159   0.00000   0.00000   0.00000   0.00000   3.14159
    D4        0.00000   0.00000   0.00000   0.00000   0.00000   0.00000
    D5        0.00000  -0.00000   0.00000  -0.00000   0.00000   0.00000
    D6        3.14159  -0.00000   0.00000  -0.00000   0.00000   3.14159
    D7        3.14159  -0.00000   0.00000  -0.00000   0.00000   3.14159
    D8        0.00000  -0.00000   0.00000  -0.00000   0.00000   0.00000
    D9        0.00000   0.00000   0.00000   0.00000   0.00000   0.00000
   D10        3.14159  -0.00000   0.00000  -0.00000   0.00000   3.14159
   D11        3.14159   0.00000   0.00000   0.00000   0.00000   3.14159
   D12        0.00000  -0.00000   0.00000  -0.00000   0.00000   0.00000
   D13        0.00000  -0.00000   0.00000  -0.00000   0.00000   0.00000
   D14        3.14159   0.00000   0.00000   0.00000   0.00000   3.14159
   D15        0.00000  -0.00000   0.00000  -0.00000   0.00000   0.00000
   D16        3.14159  -0.00000   0.00000  -0.00000   0.00000   3.14159
   D17        0.00000   0.00000   0.00000   0.00000   0.00000   0.00000
   D18        3.14159   0.00000   0.00000   0.00000   0.00000   3.14159
   D19        3.14159   0.00000   0.00000   0.00000   0.00000   3.14159
   D20        0.00000   0.00000   0.00000   0.00000   0.00000   0.00000
         Item               Value     Threshold  Converged?
 Maximum Force            0.000107     0.000450     YES
 RMS     Force            0.000032     0.000300     YES
 Maximum Displacement     0.000392     0.001800     YES
 RMS     Displacement     0.000136     0.001200     YES
 Predicted change in Energy=-5.273664D-08
 Optimization completed.
    -- Stationary point found.
                           ----------------------------
                           !   Optimized Parameters   !
                           ! (Angstroms and Degrees)  !
 --------------------------                            --------------------------
 ! Name  Definition              Value          Derivative Info.                !
 --------------------------------------------------------------------------------
 ! R1    R(1,2)                  1.3988         -DE/DX =   -0.0001              !
 ! R2    R(1,6)                  1.3988         -DE/DX =   -0.0001              !
 ! R3    R(1,8)                  1.096          -DE/DX =    0.0                 !
 ! R4    R(2,3)                  1.3966         -DE/DX =   -0.0001              !
 ! R5    R(2,10)                 1.7302         -DE/DX =    0.0                 !
 ! R6    R(3,4)                  1.3924         -DE/DX =    0.0                 !
 ! R7    R(3,11)                 1.0983         -DE/DX =    0.0                 !
 ! R8    R(4,5)                  1.3924         -DE/DX =    0.0                 !
 ! R9    R(5,6)                  1.3966         -DE/DX =   -0.0001              !
 ! R10   R(5,9)                  1.0983         -DE/DX =    0.0                 !
 ! R11   R(6,7)                  1.7302         -DE/DX =    0.0                 !
 ! A1    A(2,1,6)              117.4302         -DE/DX =    0.0                 !
 ! A2    A(2,1,8)              121.2849         -DE/DX =    0.0                 !
 ! A3    A(6,1,8)              121.2849         -DE/DX =    0.0                 !
 ! A4    A(1,2,3)              121.4151         -DE/DX =    0.0                 !
 ! A5    A(1,2,10)             117.9357         -DE/DX =    0.0                 !
 ! A6    A(3,2,10)             120.6491         -DE/DX =    0.0                 !
 ! A7    A(2,3,4)              120.4592         -DE/DX =    0.0                 !
 ! A8    A(2,3,11)             119.7762         -DE/DX =    0.0                 !
 ! A9    A(4,3,11)             119.7647         -DE/DX =    0.0                 !
 ! A10   A(3,4,5)              118.8211         -DE/DX =   -0.0001              !
 ! A11   A(4,5,6)              120.4592         -DE/DX =    0.0                 !
 ! A12   A(4,5,9)              119.7647         -DE/DX =    0.0                 !
 ! A13   A(6,5,9)              119.7762         -DE/DX =    0.0                 !
 ! A14   A(1,6,5)              121.4151         -DE/DX =    0.0                 !
 ! A15   A(1,6,7)              117.9357         -DE/DX =    0.0                 !
 ! A16   A(5,6,7)              120.6492         -DE/DX =    0.0                 !
 ! D1    D(6,1,2,3)              0.0            -DE/DX =    0.0                 !
 ! D2    D(6,1,2,10)           180.0            -DE/DX =    0.0                 !
 ! D3    D(8,1,2,3)            180.0            -DE/DX =    0.0                 !
 ! D4    D(8,1,2,10)             0.0            -DE/DX =    0.0                 !
 ! D5    D(2,1,6,5)              0.0            -DE/DX =    0.0                 !
 ! D6    D(2,1,6,7)            180.0            -DE/DX =    0.0                 !
 ! D7    D(8,1,6,5)            180.0            -DE/DX =    0.0                 !
 ! D8    D(8,1,6,7)              0.0            -DE/DX =    0.0                 !
 ! D9    D(1,2,3,4)              0.0            -DE/DX =    0.0                 !
 ! D10   D(1,2,3,11)           180.0            -DE/DX =    0.0                 !
 ! D11   D(10,2,3,4)           180.0            -DE/DX =    0.0                 !
 ! D12   D(10,2,3,11)            0.0            -DE/DX =    0.0                 !
 ! D13   D(2,3,4,5)              0.0            -DE/DX =    0.0                 !
 ! D14   D(11,3,4,5)           180.0            -DE/DX =    0.0                 !
 ! D15   D(3,4,5,6)              0.0            -DE/DX =    0.0                 !
 ! D16   D(3,4,5,9)            180.0            -DE/DX =    0.0                 !
 ! D17   D(4,5,6,1)              0.0            -DE/DX =    0.0                 !
 ! D18   D(4,5,6,7)            180.0            -DE/DX =    0.0                 !
 ! D19   D(9,5,6,1)            180.0            -DE/DX =    0.0                 !
 ! D20   D(9,5,6,7)              0.0            -DE/DX =    0.0                 !
 --------------------------------------------------------------------------------
 GradGradGradGradGradGradGradGradGradGradGradGradGradGradGradGradGradGrad

                          Input orientation:                          
 ---------------------------------------------------------------------
 Center     Atomic      Atomic             Coordinates (Angstroms)
 Number     Number       Type             X           Y           Z
 ---------------------------------------------------------------------
      1          6           0       -3.221714    0.206161    0.000000
      2          6           0       -2.013820    0.911678    0.000000
      3          6           0       -0.784090    0.249643    0.000000
      4          6           0       -0.731537   -1.141756    0.000000
      5          6           0       -1.925248   -1.858561    0.000000
      6          6           0       -3.151955   -1.190942    0.000000
      7         17           0       -4.638210   -2.076724    0.000000
      8          1           0       -4.185599    0.727906    0.000000
      9          1           0       -1.901873   -2.956618    0.000000
     10         17           0       -2.084855    2.640411    0.000000
     11          1           0        0.148062    0.830482    0.000000
 ---------------------------------------------------------------------
                    Distance matrix (angstroms):
                    1          2          3          4          5
     1  C    0.000000
     2  C    1.398844   0.000000
     3  C    2.438012   1.396612   0.000000
     4  C    2.831583   2.420918   1.392392   0.000000
     5  C    2.438012   2.771655   2.397242   1.392392   0.000000
     6  C    1.398844   2.390892   2.771655   2.420918   1.396612
     7  Cl   2.686638   3.977181   4.501803   4.016997   2.721720
     8  H    1.096034   2.179541   3.434967   3.927618   3.434967
     9  H    3.427120   3.869916   3.395520   2.159493   1.098306
    10  Cl   2.686638   1.730192   2.721720   4.016997   4.501803
    11  H    3.427122   2.163406   1.098308   2.159495   3.395522
                    6          7          8          9         10
     6  C    0.000000
     7  Cl   1.730192   0.000000
     8  H    2.179540   2.840916   0.000000
     9  H    2.163404   2.874327   4.334873   0.000000
    10  Cl   3.977181   5.363859   2.840916   5.600020   0.000000
    11  H    3.869918   5.600022   4.334874   4.306317   2.874327
                   11
    11  H    0.000000
 Stoichiometry    C6H3Cl2(1-)
 Framework group  CS[SG(C6H3Cl2)]
 Deg. of freedom    19
 Full point group                 CS      NOp   2
 Largest Abelian subgroup         CS      NOp   2
 Largest concise Abelian subgroup C1      NOp   1
                         Standard orientation:                         
 ---------------------------------------------------------------------
 Center     Atomic      Atomic             Coordinates (Angstroms)
 Number     Number       Type             X           Y           Z
 ---------------------------------------------------------------------
      1          6           0        0.685118    0.000000    0.000000
      2          6           0       -0.041293   -1.195446    0.000000
      3          6           0       -1.437901   -1.198621    0.000000
      4          6           0       -2.146465   -0.000000    0.000000
      5          6           0       -1.437901    1.198621    0.000000
      6          6           0       -0.041293    1.195446    0.000000
      7         17           0        0.844106    2.681930    0.000000
      8          1           0        1.781152    0.000000    0.000000
      9          1           0       -1.981165    2.153158    0.000000
     10         17           0        0.844106   -2.681930    0.000000
     11          1           0       -1.981166   -2.153159    0.000000
 ---------------------------------------------------------------------
 Rotational constants (GHZ):           2.9481307           0.8695923           0.6715185

 **********************************************************************

            Population analysis using the SCF Density.

 **********************************************************************

 Orbital symmetries:
       Occupied  (A') (A') (A') (A') (A') (A') (A') (A') (A') (A')
                 (A') (A") (A") (A') (A') (A') (A") (A') (A") (A")
                 (A')
       Virtual   (A") (A') (A") (A') (A") (A') (A') (A') (A') (A')
                 (A') (A') (A') (A')
 The electronic state is 1-A'.
 Alpha  occ. eigenvalues --   -1.27189  -1.22834  -1.19514  -0.96271  -0.94918
 Alpha  occ. eigenvalues --   -0.67808  -0.65574  -0.48817  -0.43139  -0.41718
 Alpha  occ. eigenvalues --   -0.38513  -0.37317  -0.33807  -0.32919  -0.30324
 Alpha  occ. eigenvalues --   -0.28581  -0.27286  -0.27125  -0.17841  -0.16484
 Alpha  occ. eigenvalues --   -0.10623
 Alpha virt. eigenvalues --    0.18327   0.19615   0.19663   0.21265   0.29744
 Alpha virt. eigenvalues --    0.30477   0.32056   0.33123   0.34725   0.35193
 Alpha virt. eigenvalues --    0.35959   0.36842   0.40486   0.42186
          Condensed to atoms (all electrons):
               1          2          3          4          5          6
     1  C    4.223471   0.000000   0.000000   0.000000   0.000000   0.000000
     2  C    0.000000   4.058470   0.000000   0.000000   0.000000   0.000000
     3  C    0.000000   0.000000   4.152999   0.000000   0.000000   0.000000
     4  C    0.000000   0.000000   0.000000   4.378447   0.000000   0.000000
     5  C    0.000000   0.000000   0.000000   0.000000   4.152999   0.000000
     6  C    0.000000   0.000000   0.000000   0.000000   0.000000   4.058470
     7  Cl   0.000000   0.000000   0.000000   0.000000   0.000000   0.000000
     8  H    0.000000   0.000000   0.000000   0.000000   0.000000   0.000000
     9  H    0.000000   0.000000   0.000000   0.000000   0.000000   0.000000
    10  Cl   0.000000   0.000000   0.000000   0.000000   0.000000   0.000000
    11  H    0.000000   0.000000   0.000000   0.000000   0.000000   0.000000
               7          8          9         10         11
     1  C    0.000000   0.000000   0.000000   0.000000   0.000000
     2  C    0.000000   0.000000   0.000000   0.000000   0.000000
     3  C    0.000000   0.000000   0.000000   0.000000   0.000000
     4  C    0.000000   0.000000   0.000000   0.000000   0.000000
     5  C    0.000000   0.000000   0.000000   0.000000   0.000000
     6  C    0.000000   0.000000   0.000000   0.000000   0.000000
     7  Cl   7.146177   0.000000   0.000000   0.000000   0.000000
     8  H    0.000000   0.884408   0.000000   0.000000   0.000000
     9  H    0.000000   0.000000   0.899191   0.000000   0.000000
    10  Cl   0.000000   0.000000   0.000000   7.146177   0.000000
    11  H    0.000000   0.000000   0.000000   0.000000   0.899191
 Mulliken charges:
               1
     1  C   -0.223471
     2  C   -0.058470
     3  C   -0.152999
     4  C   -0.378447
     5  C   -0.152999
     6  C   -0.058470
     7  Cl  -0.146177
     8  H    0.115592
     9  H    0.100809
    10  Cl  -0.146177
    11  H    0.100809
 Sum of Mulliken charges =  -1.00000
 Mulliken charges with hydrogens summed into heavy atoms:
               1
     1  C   -0.107880
     2  C   -0.058470
     3  C   -0.052190
     4  C   -0.378447
     5  C   -0.052189
     6  C   -0.058470
     7  Cl  -0.146177
    10  Cl  -0.146177
 Charge=             -1.0000 electrons
 Dipole moment (field-independent basis, Debye):
    X=              5.4341    Y=             -0.0000    Z=              0.0000  Tot=              5.4341
 N-N= 1.959832934493D+02 E-N=-2.770639503353D+02  KE=-9.224331708064D+01
 Symmetry A'   KE=-7.179258238341D+01
 Symmetry A"   KE=-2.045073469723D+01
 1\1\GINC-SH03-01N67\FOpt\RAM1\ZDO\C6H3Cl2(1-)\JLAPIER\08-Dec-2025\0\\#
  opt am1 SCF(maxcyc=10000)\\Anion Intermediate (removed 3) 1_5\\-1,1\C
 ,-3.2217141936,0.2061609808,0.\C,-2.013819782,0.911678032,0.\C,-0.7840
 901805,0.2496434901,0.\C,-0.7315368721,-1.1417564535,0.\C,-1.925248231
 ,-1.8585611071,0.\C,-3.1519549072,-1.1909420754,0.\Cl,-4.6382104184,-2
 .0767236957,0.\H,-4.1855989177,0.72790571,0.\H,-1.9018734722,-2.956618
 4685,0.\Cl,-2.0848546334,2.6404112667,0.\H,0.148061608,0.8304823206,0.
 \\Version=ES64L-G16RevB.01\State=1-A'\HF=0.0436474\RMSD=6.833e-09\RMSF
 =3.874e-05\Dipole=-1.8801801,1.01773,0.\PG=CS [SG(C6H3Cl2)]\\@


 MARY HAD A LITTLE LAMB
      HIS FEET WERE BLACK AS SOOT,
           AND EVERYWHERE THAT MARY WENT
                HIS SOOTY FOOT HE PUT.

                    -- NONAME
 Job cpu time:       0 days  0 hours  0 minutes  3.9 seconds.
 Elapsed time:       0 days  0 hours  0 minutes 21.0 seconds.
 File lengths (MBytes):  RWF=     10 Int=      0 D2E=      0 Chk=      2 Scr=      1
 Normal termination of Gaussian 16 at Mon Dec  8 17:08:54 2025.
