 Entering Gaussian System, Link 0=g16
 Initial command:
 /share/software/user/restricted/gaussian/g16.B01/l1.exe "/home/users/jlapier/Chloroaromatics/Gau-3241.inp" -scrdir="/home/users/jlapier/Chloroaromatics/"
 Entering Link 1 = /share/software/user/restricted/gaussian/g16.B01/l1.exe PID=      3247.
  
 Copyright (c) 1988-2017, Gaussian, Inc.  All Rights Reserved.
  
 This is part of the Gaussian(R) 16 program.  It is based on
 the Gaussian(R) 09 system (copyright 2009, Gaussian, Inc.),
 the Gaussian(R) 03 system (copyright 2003, Gaussian, Inc.),
 the Gaussian(R) 98 system (copyright 1998, Gaussian, Inc.),
 the Gaussian(R) 94 system (copyright 1995, Gaussian, Inc.),
 the Gaussian 92(TM) system (copyright 1992, Gaussian, Inc.),
 the Gaussian 90(TM) system (copyright 1990, Gaussian, Inc.),
 the Gaussian 88(TM) system (copyright 1988, Gaussian, Inc.),
 the Gaussian 86(TM) system (copyright 1986, Carnegie Mellon
 University), and the Gaussian 82(TM) system (copyright 1983,
 Carnegie Mellon University). Gaussian is a federally registered
 trademark of Gaussian, Inc.
  
 This software contains proprietary and confidential information,
 including trade secrets, belonging to Gaussian, Inc.
  
 This software is provided under written license and may be
 used, copied, transmitted, or stored only in accord with that
 written license.
  
 The following legend is applicable only to US Government
 contracts under FAR:
  
                    RESTRICTED RIGHTS LEGEND
  
 Use, reproduction and disclosure by the US Government is
 subject to restrictions as set forth in subparagraphs (a)
 and (c) of the Commercial Computer Software - Restricted
 Rights clause in FAR 52.227-19.
  
 Gaussian, Inc.
 340 Quinnipiac St., Bldg. 40, Wallingford CT 06492
  
  
 ---------------------------------------------------------------
 Warning -- This program may not be used in any manner that
 competes with the business of Gaussian, Inc. or will provide
 assistance to any competitor of Gaussian, Inc.  The licensee
 of this program is prohibited from giving any competitor of
 Gaussian, Inc. access to this program.  By using this program,
 the user acknowledges that Gaussian, Inc. is engaged in the
 business of creating and licensing software in the field of
 computational chemistry and represents and warrants to the
 licensee that it is not a competitor of Gaussian, Inc. and that
 it will not use this program in any manner prohibited above.
 ---------------------------------------------------------------
  

 Cite this work as:
 Gaussian 16, Revision B.01,
 M. J. Frisch, G. W. Trucks, H. B. Schlegel, G. E. Scuseria, 
 M. A. Robb, J. R. Cheeseman, G. Scalmani, V. Barone, 
 G. A. Petersson, H. Nakatsuji, X. Li, M. Caricato, A. V. Marenich, 
 J. Bloino, B. G. Janesko, R. Gomperts, B. Mennucci, H. P. Hratchian, 
 J. V. Ortiz, A. F. Izmaylov, J. L. Sonnenberg, D. Williams-Young, 
 F. Ding, F. Lipparini, F. Egidi, J. Goings, B. Peng, A. Petrone, 
 T. Henderson, D. Ranasinghe, V. G. Zakrzewski, J. Gao, N. Rega, 
 G. Zheng, W. Liang, M. Hada, M. Ehara, K. Toyota, R. Fukuda, 
 J. Hasegawa, M. Ishida, T. Nakajima, Y. Honda, O. Kitao, H. Nakai, 
 T. Vreven, K. Throssell, J. A. Montgomery, Jr., J. E. Peralta, 
 F. Ogliaro, M. J. Bearpark, J. J. Heyd, E. N. Brothers, K. N. Kudin, 
 V. N. Staroverov, T. A. Keith, R. Kobayashi, J. Normand, 
 K. Raghavachari, A. P. Rendell, J. C. Burant, S. S. Iyengar, 
 J. Tomasi, M. Cossi, J. M. Millam, M. Klene, C. Adamo, R. Cammi, 
 J. W. Ochterski, R. L. Martin, K. Morokuma, O. Farkas, 
 J. B. Foresman, and D. J. Fox, Gaussian, Inc., Wallingford CT, 2016.
 
 ******************************************
 Gaussian 16:  ES64L-G16RevB.01 20-Dec-2017
                 9-Dec-2025 
 ******************************************
 %mem=2GB
 %nprocshare=1
 Will use up to    1 processors via shared memory.
 %chk=geometry_chks/1_ClBzNeutralRadical.chk
 -----------------
 # opt am1 SCF=XQC
 -----------------
 1/18=20,19=15,26=1,38=1/1,3;
 2/9=110,12=2,17=6,18=5,40=1/2;
 3/5=2,25=1,41=700000,71=1/1,2,3;
 4/35=1/1;
 5/5=2,8=3,13=1,35=1,38=5/2,8;
 6/7=2,8=2,9=2,10=2,28=1/1;
 7//1,2,3,16;
 1/18=20,19=15,26=1/3(2);
 2/9=110/2;
 99//99;
 2/9=110/2;
 3/5=2,25=1,41=700000,71=1,135=20/1,2,3;
 4/5=5,16=3,35=1/1;
 5/5=2,8=3,13=1,35=1,38=5/2,8;
 7//1,2,3,16;
 1/18=20,19=15,26=1/3(-5);
 2/9=110/2;
 6/7=2,8=2,9=2,10=2,19=2,28=1/1;
 99/9=1/99;
 ------------------------------
 Neutral Radical (removed 4) 1_
 ------------------------------
 Symbolic Z-matrix:
 Charge =  0 Multiplicity = 2
 C                    -3.20928   0.19943   0. 
 C                    -2.0115    0.93555   0. 
 C                    -0.77511   0.2663    0. 
 C                    -0.7365   -1.13907   0. 
 C                    -1.93429  -1.87519   0. 
 C                    -3.17067  -1.20594   0. 
 Cl                   -4.67483  -2.13035   0. 
 H                    -4.76193   1.03987   0. 
 H                     0.81614  -1.97951   0. 
 H                    -2.05998   2.7004    0. 
 H                     0.72905   1.19071   0. 
 
 Add virtual bond connecting atoms H9         and C4         Dist= 3.34D+00.
 Add virtual bond connecting atoms H11        and C3         Dist= 3.34D+00.
 Add virtual bond connecting atoms H10        and C2         Dist= 3.34D+00.
 Add virtual bond connecting atoms H8         and C1         Dist= 3.34D+00.

 GradGradGradGradGradGradGradGradGradGradGradGradGradGradGradGradGradGrad
 Berny optimization.
 Initialization pass.
                           ----------------------------
                           !    Initial Parameters    !
                           ! (Angstroms and Degrees)  !
 --------------------------                            --------------------------
 ! Name  Definition              Value          Derivative Info.                !
 --------------------------------------------------------------------------------
 ! R1    R(1,2)                  1.4059         estimate D2E/DX2                !
 ! R2    R(1,6)                  1.4059         estimate D2E/DX2                !
 ! R3    R(1,8)                  1.7655         estimate D2E/DX2                !
 ! R4    R(2,3)                  1.4059         estimate D2E/DX2                !
 ! R5    R(2,10)                 1.7655         estimate D2E/DX2                !
 ! R6    R(3,4)                  1.4059         estimate D2E/DX2                !
 ! R7    R(3,11)                 1.7655         estimate D2E/DX2                !
 ! R8    R(4,5)                  1.4059         estimate D2E/DX2                !
 ! R9    R(4,9)                  1.7655         estimate D2E/DX2                !
 ! R10   R(5,6)                  1.4059         estimate D2E/DX2                !
 ! R11   R(6,7)                  1.7655         estimate D2E/DX2                !
 ! A1    A(2,1,6)              119.9999         estimate D2E/DX2                !
 ! A2    A(2,1,8)              119.9999         estimate D2E/DX2                !
 ! A3    A(6,1,8)              120.0001         estimate D2E/DX2                !
 ! A4    A(1,2,3)              120.0            estimate D2E/DX2                !
 ! A5    A(1,2,10)             120.0001         estimate D2E/DX2                !
 ! A6    A(3,2,10)             119.9999         estimate D2E/DX2                !
 ! A7    A(2,3,4)              120.0001         estimate D2E/DX2                !
 ! A8    A(2,3,11)             120.0            estimate D2E/DX2                !
 ! A9    A(4,3,11)             119.9999         estimate D2E/DX2                !
 ! A10   A(3,4,5)              119.9997         estimate D2E/DX2                !
 ! A11   A(3,4,9)              120.0003         estimate D2E/DX2                !
 ! A12   A(5,4,9)              120.0            estimate D2E/DX2                !
 ! A13   A(4,5,6)              120.0            estimate D2E/DX2                !
 ! A14   A(1,6,5)              120.0003         estimate D2E/DX2                !
 ! A15   A(1,6,7)              119.9999         estimate D2E/DX2                !
 ! A16   A(5,6,7)              119.9998         estimate D2E/DX2                !
 ! D1    D(6,1,2,3)              0.0            estimate D2E/DX2                !
 ! D2    D(6,1,2,10)           180.0            estimate D2E/DX2                !
 ! D3    D(8,1,2,3)            180.0            estimate D2E/DX2                !
 ! D4    D(8,1,2,10)             0.0            estimate D2E/DX2                !
 ! D5    D(2,1,6,5)              0.0            estimate D2E/DX2                !
 ! D6    D(2,1,6,7)            180.0            estimate D2E/DX2                !
 ! D7    D(8,1,6,5)            180.0            estimate D2E/DX2                !
 ! D8    D(8,1,6,7)              0.0            estimate D2E/DX2                !
 ! D9    D(1,2,3,4)              0.0            estimate D2E/DX2                !
 ! D10   D(1,2,3,11)           180.0            estimate D2E/DX2                !
 ! D11   D(10,2,3,4)           180.0            estimate D2E/DX2                !
 ! D12   D(10,2,3,11)            0.0            estimate D2E/DX2                !
 ! D13   D(2,3,4,5)              0.0            estimate D2E/DX2                !
 ! D14   D(2,3,4,9)            180.0            estimate D2E/DX2                !
 ! D15   D(11,3,4,5)           180.0            estimate D2E/DX2                !
 ! D16   D(11,3,4,9)             0.0            estimate D2E/DX2                !
 ! D17   D(3,4,5,6)              0.0            estimate D2E/DX2                !
 ! D18   D(9,4,5,6)            180.0            estimate D2E/DX2                !
 ! D19   D(4,5,6,1)              0.0            estimate D2E/DX2                !
 ! D20   D(4,5,6,7)            180.0            estimate D2E/DX2                !
 --------------------------------------------------------------------------------
 Trust Radius=3.00D-01 FncErr=1.00D-07 GrdErr=1.00D-07 EigMax=2.50D+02 EigMin=1.00D-04
 Number of steps in this run=     57 maximum allowed number of steps=    100.
 GradGradGradGradGradGradGradGradGradGradGradGradGradGradGradGradGradGrad

                          Input orientation:                          
 ---------------------------------------------------------------------
 Center     Atomic      Atomic             Coordinates (Angstroms)
 Number     Number       Type             X           Y           Z
 ---------------------------------------------------------------------
      1          6           0       -3.209280    0.199430    0.000000
      2          6           0       -2.011500    0.935550    0.000000
      3          6           0       -0.775110    0.266300    0.000000
      4          6           0       -0.736500   -1.139070    0.000000
      5          6           0       -1.934290   -1.875190    0.000000
      6          6           0       -3.170670   -1.205940    0.000000
      7         17           0       -4.674830   -2.130350    0.000000
      8          1           0       -4.761930    1.039870    0.000000
      9          1           0        0.816140   -1.979510    0.000000
     10          1           0       -2.059980    2.700400    0.000000
     11          1           0        0.729050    1.190710    0.000000
 ---------------------------------------------------------------------
                    Distance matrix (angstroms):
                    1          2          3          4          5
     1  C    0.000000
     2  C    1.405898   0.000000
     3  C    2.435088   1.405900   0.000000
     4  C    2.811801   2.435092   1.405900   0.000000
     5  C    2.435087   2.811800   2.435093   1.405907   0.000000
     6  C    1.405900   2.435088   2.811796   2.435088   1.405892
     7  Cl   2.752401   4.061166   4.577308   4.061167   2.752393
     8  H    1.765520   2.752408   4.061175   4.577321   4.061173
     9  H    4.577312   4.061173   2.752406   1.765511   2.752408
    10  H    2.752406   1.765516   2.752405   4.061173   4.577316
    11  H    4.061167   2.752403   1.765512   2.752401   4.061173
                    6          7          8          9         10
     6  C    0.000000
     7  Cl   1.765512   0.000000
     8  H    2.752412   3.171416   0.000000
     9  H    4.061165   5.493041   6.342832   0.000000
    10  H    4.061173   5.493049   3.171418   5.493052   0.000000
    11  H    4.577308   6.342819   5.493051   3.171416   3.171412
                   11
    11  H    0.000000
 Stoichiometry    C6H4Cl(2)
 Framework group  CS[SG(C6H4Cl)]
 Deg. of freedom    19
 Full point group                 CS      NOp   2
 Largest Abelian subgroup         CS      NOp   2
 Largest concise Abelian subgroup C1      NOp   1
                         Standard orientation:                         
 ---------------------------------------------------------------------
 Center     Atomic      Atomic             Coordinates (Angstroms)
 Number     Number       Type             X           Y           Z
 ---------------------------------------------------------------------
      1          6           0        1.092422    0.446591    0.000000
      2          6           0        1.795372   -0.770952    0.000000
      3          6           0        1.092422   -1.988497    0.000000
      4          6           0       -0.313479   -1.988500    0.000000
      5          6           0       -1.016429   -0.770947    0.000000
      6          6           0       -0.313479    0.446588    0.000000
      7         17           0       -1.196234    1.975566    0.000000
      8          1           0        1.975182    1.975576    0.000000
      9          1           0       -1.196239   -3.517475    0.000000
     10          1           0        3.560887   -0.770955    0.000000
     11          1           0        1.975177   -3.517475    0.000000
 ---------------------------------------------------------------------
 Rotational constants (GHZ):           5.3831393           1.4899579           1.1669631
 Standard basis: VSTO-6G (5D, 7F)
 There are    25 symmetry adapted cartesian basis functions of A'  symmetry.
 There are     7 symmetry adapted cartesian basis functions of A"  symmetry.
 There are    25 symmetry adapted basis functions of A'  symmetry.
 There are     7 symmetry adapted basis functions of A"  symmetry.
    32 basis functions,   192 primitive gaussians,    32 cartesian basis functions
    18 alpha electrons       17 beta electrons
       nuclear repulsion energy       147.2898775663 Hartrees.
 Integral buffers will be    131072 words long.
 Regular integral format.
 Two-electron integral symmetry is turned off.
 Do NDO integrals.
 One-electron integrals computed using PRISM.
 NBasis=    32 RedAO= T EigKep=  1.00D+00  NBF=    25     7
 NBsUse=    32 1.00D-06 EigRej= -1.00D+00 NBFU=    25     7
 Simple Huckel Guess.
 Initial guess orbital symmetries:
 Alpha Orbitals:
       Occupied  (A') (A') (A') (A') (A') (A') (A') (A') (A") (A')
                 (A') (A') (A") (A') (A") (A') (A") (A')
       Virtual   (A') (A") (A') (A") (A') (A') (A") (A') (A') (A')
                 (A') (A') (A') (A')
 Beta  Orbitals:
       Occupied  (A') (A') (A') (A') (A') (A') (A') (A') (A") (A')
                 (A') (A') (A") (A') (A") (A') (A")
       Virtual   (A') (A') (A") (A') (A") (A') (A') (A") (A') (A')
                 (A') (A') (A') (A') (A')
 The electronic state of the initial guess is 2-A'.
 Initial guess <Sx>= 0.0000 <Sy>= 0.0000 <Sz>= 0.5000 <S**2>= 0.7500 S= 0.5000
 Keep J ints in memory in canonical form, NReq=862079.
 Overlap will be assumed to be unity.
 Requested convergence on RMS density matrix=1.00D-08 within  32 cycles.
 Requested convergence on MAX density matrix=1.00D-06.
 Requested convergence on             energy=1.00D-06.
 No special actions if energy rises.
 Fock symm off for IB=2 I1=    1 I=   26 J=   23 Cut=1.00D-07 Err=4.72D-03
 Fock matrix is not symmetric: symmetry in diagonalization turned off.
 Rare condition: small coef for last iteration:  0.000D+00
 Rare condition: small coef for last iteration:  0.000D+00
 Rare condition: small coef for last iteration:  0.000D+00
 Rare condition: small coef for last iteration:  0.000D+00
 Rare condition: small coef for last iteration:  0.000D+00
 Rare condition: small coef for last iteration:  0.000D+00
 Rare condition: small coef for last iteration:  0.000D+00
 Rare condition: small coef for last iteration:  0.000D+00
 Rare condition: small coef for last iteration:  0.000D+00
 Rare condition: small coef for last iteration:  0.000D+00
 Rare condition: small coef for last iteration:  0.000D+00
 Rare condition: small coef for last iteration:  0.000D+00
 Rare condition: small coef for last iteration:  0.000D+00
 >>>>>>>>>> Convergence criterion not met.
 SCF Done:  E(UAM1) =  0.607355012316     A.U. after   33 cycles
            NFock= 32  Conv=0.15D-03     -V/T= 1.0089
 <Sx>= 0.0000 <Sy>= 0.0000 <Sz>= 0.5000 <S**2>= 1.0807 S= 0.6536
 <L.S>=  0.00000000000    
 Annihilation of the first spin contaminant:
 S**2 before annihilation     1.0807,   after     0.8458
 Keep J ints in memory in canonical form, NReq=862479.
 LinEq1:  Iter=  0 NonCon=     1 RMS=1.06D-04 Max=6.90D-04 NDo=     1
 AX will form     1 AO Fock derivatives at one time.
 LinEq1:  Iter=  1 NonCon=     1 RMS=5.16D-06 Max=4.81D-05 NDo=     1
 LinEq1:  Iter=  2 NonCon=     1 RMS=1.32D-06 Max=8.68D-06 NDo=     1
 LinEq1:  Iter=  3 NonCon=     1 RMS=4.70D-07 Max=3.86D-06 NDo=     1
 LinEq1:  Iter=  4 NonCon=     1 RMS=1.44D-07 Max=1.65D-06 NDo=     1
 LinEq1:  Iter=  5 NonCon=     1 RMS=4.21D-08 Max=4.23D-07 NDo=     1
 LinEq1:  Iter=  6 NonCon=     1 RMS=1.27D-08 Max=1.09D-07 NDo=     1
 LinEq1:  Iter=  7 NonCon=     1 RMS=3.80D-09 Max=2.49D-08 NDo=     1
 LinEq1:  Iter=  8 NonCon=     0 RMS=7.25D-10 Max=5.24D-09 NDo=     1
 Linear equations converged to 2.252D-09 2.252D-08 after     8 iterations.
 Incorrect curvature in search direction -- initial direction reversed.
 LinEq1:  Iter=  0 NonCon=     1 RMS=1.58D-04 Max=1.10D-03 NDo=     1
 LinEq1:  Iter=  1 NonCon=     1 RMS=5.44D-05 Max=3.36D-04 NDo=     1
 LinEq1:  Iter=  2 NonCon=     1 RMS=1.66D-05 Max=1.56D-04 NDo=     1
 LinEq1:  Iter=  3 NonCon=     1 RMS=5.04D-06 Max=5.36D-05 NDo=     1
 LinEq1:  Iter=  4 NonCon=     1 RMS=1.15D-06 Max=1.13D-05 NDo=     1
 LinEq1:  Iter=  5 NonCon=     1 RMS=2.63D-07 Max=1.77D-06 NDo=     1
 LinEq1:  Iter=  6 NonCon=     1 RMS=9.33D-08 Max=6.60D-07 NDo=     1
 LinEq1:  Iter=  7 NonCon=     1 RMS=2.90D-08 Max=2.57D-07 NDo=     1
 LinEq1:  Iter=  8 NonCon=     1 RMS=6.75D-09 Max=7.85D-08 NDo=     1
 LinEq1:  Iter=  9 NonCon=     1 RMS=2.15D-09 Max=2.35D-08 NDo=     1
 LinEq1:  Iter= 10 NonCon=     0 RMS=7.39D-10 Max=7.33D-09 NDo=     1
 Linear equations converged to 2.252D-09 2.252D-08 after    10 iterations.
 Incorrect curvature in search direction -- initial direction reversed.
 LinEq1:  Iter=  0 NonCon=     1 RMS=1.60D-04 Max=1.17D-03 NDo=     1
 LinEq1:  Iter=  1 NonCon=     1 RMS=5.58D-05 Max=3.53D-04 NDo=     1
 LinEq1:  Iter=  2 NonCon=     1 RMS=1.70D-05 Max=1.50D-04 NDo=     1
 LinEq1:  Iter=  3 NonCon=     1 RMS=5.13D-06 Max=5.26D-05 NDo=     1
 LinEq1:  Iter=  4 NonCon=     1 RMS=1.21D-06 Max=1.19D-05 NDo=     1
 LinEq1:  Iter=  5 NonCon=     1 RMS=2.23D-07 Max=1.43D-06 NDo=     1
 LinEq1:  Iter=  6 NonCon=     1 RMS=8.02D-08 Max=7.25D-07 NDo=     1
 LinEq1:  Iter=  7 NonCon=     1 RMS=2.77D-08 Max=2.56D-07 NDo=     1
 LinEq1:  Iter=  8 NonCon=     1 RMS=7.11D-09 Max=7.61D-08 NDo=     1
 LinEq1:  Iter=  9 NonCon=     0 RMS=1.83D-09 Max=1.46D-08 NDo=     1
 Linear equations converged to 2.252D-09 2.252D-08 after     9 iterations.
 LinEq1:  Iter=  0 NonCon=     1 RMS=1.39D-04 Max=1.01D-03 NDo=     1
 LinEq1:  Iter=  1 NonCon=     1 RMS=5.04D-05 Max=4.91D-04 NDo=     1
 LinEq1:  Iter=  2 NonCon=     1 RMS=1.72D-05 Max=1.16D-04 NDo=     1
 LinEq1:  Iter=  3 NonCon=     1 RMS=4.79D-06 Max=4.13D-05 NDo=     1
 LinEq1:  Iter=  4 NonCon=     1 RMS=1.19D-06 Max=1.11D-05 NDo=     1
 LinEq1:  Iter=  5 NonCon=     1 RMS=2.59D-07 Max=1.85D-06 NDo=     1
 LinEq1:  Iter=  6 NonCon=     1 RMS=7.42D-08 Max=4.84D-07 NDo=     1
 LinEq1:  Iter=  7 NonCon=     1 RMS=1.58D-08 Max=9.73D-08 NDo=     1
 LinEq1:  Iter=  8 NonCon=     1 RMS=4.04D-09 Max=2.23D-08 NDo=     1
 LinEq1:  Iter=  9 NonCon=     0 RMS=8.17D-10 Max=6.59D-09 NDo=     1
 Linear equations converged to 2.252D-09 2.252D-08 after     9 iterations.
     Accept linear search using points  1 and  2.
 LinEq1:  Iter=  0 NonCon=     1 RMS=4.35D-05 Max=3.90D-04 NDo=     1
 LinEq1:  Iter=  1 NonCon=     1 RMS=1.34D-05 Max=1.64D-04 NDo=     1
 LinEq1:  Iter=  2 NonCon=     1 RMS=5.04D-06 Max=3.74D-05 NDo=     1
 LinEq1:  Iter=  3 NonCon=     1 RMS=1.54D-06 Max=1.25D-05 NDo=     1
 LinEq1:  Iter=  4 NonCon=     1 RMS=4.31D-07 Max=4.14D-06 NDo=     1
 LinEq1:  Iter=  5 NonCon=     1 RMS=9.82D-08 Max=6.68D-07 NDo=     1
 LinEq1:  Iter=  6 NonCon=     1 RMS=2.52D-08 Max=1.74D-07 NDo=     1
 LinEq1:  Iter=  7 NonCon=     1 RMS=6.06D-09 Max=3.14D-08 NDo=     1
 LinEq1:  Iter=  8 NonCon=     0 RMS=2.10D-09 Max=1.86D-08 NDo=     1
 Linear equations converged to 2.252D-09 2.252D-08 after     8 iterations.
 Incorrect curvature in search direction -- initial direction reversed.
 LinEq1:  Iter=  0 NonCon=     1 RMS=6.54D-04 Max=6.25D-03 NDo=     1
 LinEq1:  Iter=  1 NonCon=     1 RMS=1.93D-04 Max=2.39D-03 NDo=     1
 LinEq1:  Iter=  2 NonCon=     1 RMS=6.64D-05 Max=5.03D-04 NDo=     1
 LinEq1:  Iter=  3 NonCon=     1 RMS=1.96D-05 Max=1.64D-04 NDo=     1
 LinEq1:  Iter=  4 NonCon=     1 RMS=6.25D-06 Max=6.02D-05 NDo=     1
 LinEq1:  Iter=  5 NonCon=     1 RMS=1.23D-06 Max=7.38D-06 NDo=     1
 LinEq1:  Iter=  6 NonCon=     1 RMS=2.66D-07 Max=2.58D-06 NDo=     1
 LinEq1:  Iter=  7 NonCon=     1 RMS=4.50D-08 Max=2.94D-07 NDo=     1
 LinEq1:  Iter=  8 NonCon=     1 RMS=1.27D-08 Max=1.30D-07 NDo=     1
 LinEq1:  Iter=  9 NonCon=     1 RMS=4.40D-09 Max=4.10D-08 NDo=     1
 LinEq1:  Iter= 10 NonCon=     0 RMS=1.08D-09 Max=8.29D-09 NDo=     1
 Linear equations converged to 2.252D-09 2.252D-08 after    10 iterations.
 Incorrect curvature in search direction -- initial direction reversed.
 Gradient too large for Newton-Raphson -- use scaled steepest descent instead.
 LinEq1:  Iter=  0 NonCon=     1 RMS=6.21D-04 Max=7.21D-03 NDo=     1
 LinEq1:  Iter=  1 NonCon=     1 RMS=2.68D-04 Max=2.73D-03 NDo=     1
 LinEq1:  Iter=  2 NonCon=     1 RMS=6.17D-05 Max=6.01D-04 NDo=     1
 LinEq1:  Iter=  3 NonCon=     1 RMS=1.95D-05 Max=1.81D-04 NDo=     1
 LinEq1:  Iter=  4 NonCon=     1 RMS=3.56D-06 Max=2.09D-05 NDo=     1
 LinEq1:  Iter=  5 NonCon=     1 RMS=8.51D-07 Max=7.69D-06 NDo=     1
 LinEq1:  Iter=  6 NonCon=     1 RMS=1.63D-07 Max=1.21D-06 NDo=     1
 LinEq1:  Iter=  7 NonCon=     1 RMS=4.11D-08 Max=4.64D-07 NDo=     1
 LinEq1:  Iter=  8 NonCon=     1 RMS=1.15D-08 Max=1.02D-07 NDo=     1
 LinEq1:  Iter=  9 NonCon=     1 RMS=2.83D-09 Max=1.82D-08 NDo=     1
 LinEq1:  Iter= 10 NonCon=     0 RMS=7.35D-10 Max=4.04D-09 NDo=     1
 Linear equations converged to 2.252D-09 2.252D-08 after    10 iterations.
 Incorrect curvature in search direction -- initial direction reversed.
 LinEq1:  Iter=  0 NonCon=     1 RMS=6.17D-04 Max=7.25D-03 NDo=     1
 LinEq1:  Iter=  1 NonCon=     1 RMS=2.56D-04 Max=2.85D-03 NDo=     1
 LinEq1:  Iter=  2 NonCon=     1 RMS=5.36D-05 Max=4.42D-04 NDo=     1
 LinEq1:  Iter=  3 NonCon=     1 RMS=1.79D-05 Max=1.63D-04 NDo=     1
 LinEq1:  Iter=  4 NonCon=     1 RMS=3.35D-06 Max=1.97D-05 NDo=     1
 LinEq1:  Iter=  5 NonCon=     1 RMS=7.87D-07 Max=6.71D-06 NDo=     1
 LinEq1:  Iter=  6 NonCon=     1 RMS=1.48D-07 Max=1.08D-06 NDo=     1
 LinEq1:  Iter=  7 NonCon=     1 RMS=3.61D-08 Max=3.81D-07 NDo=     1
 LinEq1:  Iter=  8 NonCon=     1 RMS=1.02D-08 Max=8.99D-08 NDo=     1
 LinEq1:  Iter=  9 NonCon=     1 RMS=2.45D-09 Max=1.58D-08 NDo=     1
 LinEq1:  Iter= 10 NonCon=     0 RMS=6.22D-10 Max=3.29D-09 NDo=     1
 Linear equations converged to 2.252D-09 2.252D-08 after    10 iterations.
     Minimum is close to point  3 DX= -2.10D-02 DF= -8.77D-07 DXR=  4.39D-02 DFR=  1.93D-03 which will be used.
 LinEq1:  Iter=  0 NonCon=     1 RMS=2.79D-04 Max=3.42D-03 NDo=     1
 LinEq1:  Iter=  1 NonCon=     1 RMS=1.03D-04 Max=1.53D-03 NDo=     1
 LinEq1:  Iter=  2 NonCon=     1 RMS=1.49D-05 Max=1.11D-04 NDo=     1
 LinEq1:  Iter=  3 NonCon=     1 RMS=3.86D-06 Max=3.08D-05 NDo=     1
 LinEq1:  Iter=  4 NonCon=     1 RMS=1.07D-06 Max=8.38D-06 NDo=     1
 LinEq1:  Iter=  5 NonCon=     1 RMS=2.81D-07 Max=2.39D-06 NDo=     1
 LinEq1:  Iter=  6 NonCon=     1 RMS=4.78D-08 Max=3.39D-07 NDo=     1
 LinEq1:  Iter=  7 NonCon=     1 RMS=8.79D-09 Max=4.75D-08 NDo=     1
 LinEq1:  Iter=  8 NonCon=     1 RMS=2.72D-09 Max=2.20D-08 NDo=     1
 LinEq1:  Iter=  9 NonCon=     0 RMS=6.89D-10 Max=5.31D-09 NDo=     1
 Linear equations converged to 2.252D-09 2.252D-08 after     9 iterations.
     Accept linear search using points  1 and  2.
     Minimum is close to point  2 DX= -6.18D-03 DF= -1.59D-09 DXR=  6.21D-03 DFR=  3.88D-05 which will be used.
 LinEq1:  Iter=  0 NonCon=     1 RMS=2.80D-06 Max=3.05D-05 NDo=     1
 LinEq1:  Iter=  1 NonCon=     1 RMS=6.86D-07 Max=5.98D-06 NDo=     1
 LinEq1:  Iter=  2 NonCon=     1 RMS=1.81D-07 Max=1.69D-06 NDo=     1
 LinEq1:  Iter=  3 NonCon=     1 RMS=5.19D-08 Max=4.05D-07 NDo=     1
 LinEq1:  Iter=  4 NonCon=     1 RMS=9.75D-09 Max=6.73D-08 NDo=     1
 LinEq1:  Iter=  5 NonCon=     1 RMS=2.25D-09 Max=1.35D-08 NDo=     1
 LinEq1:  Iter=  6 NonCon=     1 RMS=5.10D-10 Max=3.78D-09 NDo=     1
 LinEq1:  Iter=  7 NonCon=     0 RMS=1.40D-10 Max=1.37D-09 NDo=     1
 Linear equations converged to 2.863D-10 2.863D-09 after     7 iterations.
 LinEq1:  Iter=  0 NonCon=     1 RMS=8.58D-08 Max=8.53D-07 NDo=     1
 LinEq1:  Iter=  1 NonCon=     1 RMS=3.38D-08 Max=2.15D-07 NDo=     1
 LinEq1:  Iter=  2 NonCon=     1 RMS=7.80D-09 Max=5.19D-08 NDo=     1
 LinEq1:  Iter=  3 NonCon=     1 RMS=1.96D-09 Max=2.00D-08 NDo=     1
 LinEq1:  Iter=  4 NonCon=     1 RMS=4.72D-10 Max=2.81D-09 NDo=     1
 LinEq1:  Iter=  5 NonCon=     1 RMS=1.21D-10 Max=1.26D-09 NDo=     1
 LinEq1:  Iter=  6 NonCon=     1 RMS=2.94D-11 Max=2.60D-10 NDo=     1
 LinEq1:  Iter=  7 NonCon=     0 RMS=6.67D-12 Max=5.15D-11 NDo=     1
 Linear equations converged to 1.059D-11 1.059D-10 after     7 iterations.
 SCF Done:  E(UAM1) =  0.604822544594     a.u. after   13 cycles
            Convg  =    0.5126D-07                   133 Fock formations.
              S**2 =  2.0241                  -V/T =  1.0089
 <Sx>= 0.0000 <Sy>= 0.0000 <Sz>= 0.5000 <S**2>= 2.0241 S= 1.0080
 <L.S>=  0.00000000000    
 Annihilation of the first spin contaminant:
 S**2 before annihilation     2.0241,   after     3.3515

 **********************************************************************

            Population analysis using the SCF Density.

 **********************************************************************

 Orbital symmetries:
 Alpha Orbitals:
       Occupied  (A') (A') (A') (A') (A') (A') (A') (A') (A") (A')
                 (A') (A") (A') (A') (A') (A") (A') (A")
       Virtual   (A') (A") (A') (A') (A") (A') (A') (A") (A') (A')
                 (A') (A') (A') (A')
 Beta  Orbitals:
       Occupied  (A') (A') (A') (A') (A') (A') (A') (A') (A") (A')
                 (A") (A') (A') (A') (A') (A") (A")
       Virtual   (A') (A') (A") (A') (A") (A') (A') (A') (A") (A')
                 (A') (A') (A') (A') (A')
 The electronic state is 2-A'.
 Alpha  occ. eigenvalues --   -1.40625  -1.35341  -1.10151  -1.09209  -0.80183
 Alpha  occ. eigenvalues --   -0.79193  -0.59741  -0.57891  -0.51813  -0.48610
 Alpha  occ. eigenvalues --   -0.45077  -0.44990  -0.44112  -0.42675  -0.39549
 Alpha  occ. eigenvalues --   -0.37266  -0.36392  -0.35292
 Alpha virt. eigenvalues --    0.00050   0.01034   0.01993   0.02297   0.02922
 Alpha virt. eigenvalues --    0.03760   0.05219   0.10130   0.15148   0.15575
 Alpha virt. eigenvalues --    0.17713   0.18395   0.18901   0.20715
  Beta  occ. eigenvalues --   -1.39909  -1.35166  -1.09999  -1.06996  -0.80419
  Beta  occ. eigenvalues --   -0.77141  -0.57856  -0.57273  -0.51115  -0.49096
  Beta  occ. eigenvalues --   -0.44619  -0.44042  -0.43625  -0.40748  -0.37944
  Beta  occ. eigenvalues --   -0.36600  -0.34890
  Beta virt. eigenvalues --   -0.02487  -0.00270   0.01123   0.02641   0.03468
  Beta virt. eigenvalues --    0.03583   0.04796   0.06027   0.10595   0.15823
  Beta virt. eigenvalues --    0.15921   0.18434   0.19050   0.19589   0.21470
          Condensed to atoms (all electrons):
               1          2          3          4          5          6
     1  C    4.113874   0.000000   0.000000   0.000000   0.000000   0.000000
     2  C    0.000000   4.140297   0.000000   0.000000   0.000000   0.000000
     3  C    0.000000   0.000000   4.108804   0.000000   0.000000   0.000000
     4  C    0.000000   0.000000   0.000000   4.149437   0.000000   0.000000
     5  C    0.000000   0.000000   0.000000   0.000000   3.994652   0.000000
     6  C    0.000000   0.000000   0.000000   0.000000   0.000000   4.068831
     7  Cl   0.000000   0.000000   0.000000   0.000000   0.000000   0.000000
     8  H    0.000000   0.000000   0.000000   0.000000   0.000000   0.000000
     9  H    0.000000   0.000000   0.000000   0.000000   0.000000   0.000000
    10  H    0.000000   0.000000   0.000000   0.000000   0.000000   0.000000
    11  H    0.000000   0.000000   0.000000   0.000000   0.000000   0.000000
               7          8          9         10         11
     1  C    0.000000   0.000000   0.000000   0.000000   0.000000
     2  C    0.000000   0.000000   0.000000   0.000000   0.000000
     3  C    0.000000   0.000000   0.000000   0.000000   0.000000
     4  C    0.000000   0.000000   0.000000   0.000000   0.000000
     5  C    0.000000   0.000000   0.000000   0.000000   0.000000
     6  C    0.000000   0.000000   0.000000   0.000000   0.000000
     7  Cl   7.028018   0.000000   0.000000   0.000000   0.000000
     8  H    0.000000   0.844394   0.000000   0.000000   0.000000
     9  H    0.000000   0.000000   0.833685   0.000000   0.000000
    10  H    0.000000   0.000000   0.000000   0.851666   0.000000
    11  H    0.000000   0.000000   0.000000   0.000000   0.866343
          Atomic-Atomic Spin Densities.
               1          2          3          4          5          6
     1  C   -0.881314   0.000000   0.000000   0.000000   0.000000   0.000000
     2  C    0.000000   0.881840   0.000000   0.000000   0.000000   0.000000
     3  C    0.000000   0.000000  -0.898542   0.000000   0.000000   0.000000
     4  C    0.000000   0.000000   0.000000   0.803114   0.000000   0.000000
     5  C    0.000000   0.000000   0.000000   0.000000   0.552604   0.000000
     6  C    0.000000   0.000000   0.000000   0.000000   0.000000   0.413452
     7  Cl   0.000000   0.000000   0.000000   0.000000   0.000000   0.000000
     8  H    0.000000   0.000000   0.000000   0.000000   0.000000   0.000000
     9  H    0.000000   0.000000   0.000000   0.000000   0.000000   0.000000
    10  H    0.000000   0.000000   0.000000   0.000000   0.000000   0.000000
    11  H    0.000000   0.000000   0.000000   0.000000   0.000000   0.000000
               7          8          9         10         11
     1  C    0.000000   0.000000   0.000000   0.000000   0.000000
     2  C    0.000000   0.000000   0.000000   0.000000   0.000000
     3  C    0.000000   0.000000   0.000000   0.000000   0.000000
     4  C    0.000000   0.000000   0.000000   0.000000   0.000000
     5  C    0.000000   0.000000   0.000000   0.000000   0.000000
     6  C    0.000000   0.000000   0.000000   0.000000   0.000000
     7  Cl   0.002395   0.000000   0.000000   0.000000   0.000000
     8  H    0.000000   0.477246   0.000000   0.000000   0.000000
     9  H    0.000000   0.000000  -0.406581   0.000000   0.000000
    10  H    0.000000   0.000000   0.000000  -0.442872   0.000000
    11  H    0.000000   0.000000   0.000000   0.000000   0.498659
 Mulliken charges and spin densities:
               1          2
     1  C   -0.113874  -0.881314
     2  C   -0.140297   0.881840
     3  C   -0.108804  -0.898542
     4  C   -0.149437   0.803114
     5  C    0.005348   0.552604
     6  C   -0.068831   0.413452
     7  Cl  -0.028018   0.002395
     8  H    0.155606   0.477246
     9  H    0.166315  -0.406581
    10  H    0.148334  -0.442872
    11  H    0.133657   0.498659
 Sum of Mulliken charges =  -0.00000   1.00000
 Mulliken charges and spin densities with hydrogens summed into heavy atoms:
               1          2
     1  C    0.041733  -0.404068
     2  C    0.008037   0.438967
     3  C    0.024854  -0.399883
     4  C    0.016878   0.396533
     5  C    0.005348   0.552604
     6  C   -0.068831   0.413452
     7  Cl  -0.028018   0.002395
 Charge=              0.0000 electrons
 Dipole moment (field-independent basis, Debye):
    X=              2.3899    Y=             -1.6491    Z=              0.0000  Tot=              2.9037
 N-N= 1.472898775663D+02 E-N=-2.019856526221D+02  KE=-6.792898476981D+01
 Symmetry A'   KE=-5.312253695284D+01
 Symmetry A"   KE=-1.480644781697D+01
 Symmetry A'   SP= 1.000000000000D+00
 Symmetry A"   SP=-1.110223024625D-16
 Calling FoFJK, ICntrl=      2127 FMM=F ISym2X=1 I1Cent= 0 IOpClX= 1 NMat=1 NMatS=1 NMatT=0.
 ***** Axes restored to original set *****
 -------------------------------------------------------------------
 Center     Atomic                   Forces (Hartrees/Bohr)
 Number     Number              X              Y              Z
 -------------------------------------------------------------------
      1        6          -0.035274207    0.045286377    0.000000000
      2        6          -0.002345385    0.054695607    0.000000000
      3        6           0.038821470    0.025273534    0.000000000
      4        6           0.056910722   -0.039234386    0.000000000
      5        6           0.015036690    0.067482866   -0.000000000
      6        6          -0.021613904   -0.026980942    0.000000000
      7       17           0.032013762    0.020110698    0.000000000
      8        1           0.083630985   -0.046118673   -0.000000000
      9        1          -0.089998780    0.048230016   -0.000000000
     10        1           0.002632981   -0.099554209   -0.000000000
     11        1          -0.079814334   -0.049190888   -0.000000000
 -------------------------------------------------------------------
 Cartesian Forces:  Max     0.099554209 RMS     0.042238783

 GradGradGradGradGradGradGradGradGradGradGradGradGradGradGradGradGradGrad
 Berny optimization.
 FormGI is forming the generalized inverse of G from B-inverse, IUseBI=4.
 Internal  Forces:  Max     0.102106474 RMS     0.032839044
 Search for a local minimum.
 Step number   1 out of a maximum of   57
 All quantities printed in internal units (Hartrees-Bohrs-Radians)
 Mixed Optimization -- RFO/linear search
 Second derivative matrix not updated -- first step.
 ITU=  0
     Eigenvalues ---    0.02011   0.02011   0.02011   0.02011   0.02011
     Eigenvalues ---    0.02011   0.02011   0.02011   0.06524   0.06524
     Eigenvalues ---    0.06524   0.06524   0.16000   0.16000   0.16000
     Eigenvalues ---    0.16000   0.22000   0.22408   0.24406   0.25000
     Eigenvalues ---    0.29033   0.40825   0.41341   0.44656   0.44657
     Eigenvalues ---    0.44657   0.44657
 RFO step:  Lambda=-1.78381315D-01 EMin= 2.01067220D-02
 Linear search not attempted -- first point.
 Maximum step size (   0.300) exceeded in Quadratic search.
    -- Step size scaled by   0.363
 Iteration  1 RMS(Cart)=  0.04911257 RMS(Int)=  0.00004489
 Iteration  2 RMS(Cart)=  0.00007376 RMS(Int)=  0.00000593
 Iteration  3 RMS(Cart)=  0.00000000 RMS(Int)=  0.00000593
 ClnCor:  largest displacement from symmetrization is 1.68D-08 for atom     8.
 Variable       Old X    -DE/DX   Delta X   Delta X   Delta X     New X
                                 (Linear)    (Quad)   (Total)
    R1        2.65676  -0.04355   0.00000  -0.02524  -0.02525   2.63151
    R2        2.65677  -0.02533   0.00000  -0.01448  -0.01448   2.64229
    R3        3.33635  -0.09550   0.00000  -0.14241  -0.14241   3.19394
    R4        2.65677  -0.04199   0.00000  -0.02458  -0.02458   2.63218
    R5        3.33634  -0.09959   0.00000  -0.14850  -0.14850   3.18784
    R6        2.65677  -0.04447   0.00000  -0.02609  -0.02609   2.63068
    R7        3.33633  -0.09376   0.00000  -0.13980  -0.13980   3.19653
    R8        2.65678  -0.05062   0.00000  -0.02950  -0.02949   2.62729
    R9        3.33633  -0.10211   0.00000  -0.15225  -0.15225   3.18408
   R10        2.65675  -0.03496   0.00000  -0.02015  -0.02014   2.63661
   R11        3.33633  -0.03780   0.00000  -0.02930  -0.02930   3.30703
    A1        2.09439   0.00163   0.00000   0.00198   0.00197   2.09637
    A2        2.09439   0.00043   0.00000   0.00035   0.00035   2.09475
    A3        2.09440  -0.00206   0.00000  -0.00233  -0.00233   2.09207
    A4        2.09439   0.00353   0.00000   0.00306   0.00304   2.09744
    A5        2.09440  -0.00194   0.00000  -0.00171  -0.00170   2.09269
    A6        2.09439  -0.00160   0.00000  -0.00135  -0.00134   2.09305
    A7        2.09440   0.00214   0.00000   0.00129   0.00128   2.09568
    A8        2.09440  -0.00087   0.00000  -0.00043  -0.00043   2.09397
    A9        2.09439  -0.00127   0.00000  -0.00086  -0.00085   2.09354
   A10        2.09439  -0.00729   0.00000  -0.00716  -0.00715   2.08724
   A11        2.09440   0.00436   0.00000   0.00434   0.00434   2.09874
   A12        2.09440   0.00293   0.00000   0.00281   0.00281   2.09720
   A13        2.09439   0.01816   0.00000   0.01561   0.01564   2.11003
   A14        2.09440  -0.01816   0.00000  -0.01479  -0.01478   2.07962
   A15        2.09439   0.00846   0.00000   0.00687   0.00687   2.10126
   A16        2.09439   0.00970   0.00000   0.00792   0.00792   2.10231
    D1        0.00000   0.00000   0.00000   0.00000   0.00000   0.00000
    D2        3.14159  -0.00000   0.00000  -0.00000   0.00000   3.14159
    D3        3.14159   0.00000   0.00000   0.00000   0.00000   3.14159
    D4        0.00000   0.00000   0.00000  -0.00000   0.00000   0.00000
    D5        0.00000  -0.00000   0.00000  -0.00000   0.00000   0.00000
    D6        3.14159   0.00000   0.00000   0.00000   0.00000   3.14159
    D7        3.14159  -0.00000   0.00000  -0.00000   0.00000   3.14159
    D8        0.00000  -0.00000   0.00000  -0.00000   0.00000   0.00000
    D9        0.00000   0.00000   0.00000   0.00000   0.00000   0.00000
   D10        3.14159  -0.00000   0.00000  -0.00000   0.00000   3.14159
   D11        3.14159   0.00000   0.00000   0.00000   0.00000   3.14159
   D12        0.00000   0.00000   0.00000   0.00000   0.00000   0.00000
   D13        0.00000  -0.00000   0.00000  -0.00000   0.00000   0.00000
   D14        3.14159  -0.00000   0.00000  -0.00000   0.00000   3.14159
   D15        3.14159   0.00000   0.00000   0.00000   0.00000   3.14159
   D16        0.00000  -0.00000   0.00000  -0.00000   0.00000   0.00000
   D17        0.00000  -0.00000   0.00000  -0.00000   0.00000   0.00000
   D18        3.14159   0.00000   0.00000   0.00000   0.00000   3.14159
   D19        0.00000   0.00000   0.00000   0.00000   0.00000   0.00000
   D20        3.14159  -0.00000   0.00000  -0.00000   0.00000   3.14159
         Item               Value     Threshold  Converged?
 Maximum Force            0.102106     0.000450     NO 
 RMS     Force            0.032839     0.000300     NO 
 Maximum Displacement     0.156408     0.001800     NO 
 RMS     Displacement     0.049125     0.001200     NO 
 Predicted change in Energy=-6.105760D-02
 GradGradGradGradGradGradGradGradGradGradGradGradGradGradGradGradGradGrad

                          Input orientation:                          
 ---------------------------------------------------------------------
 Center     Atomic      Atomic             Coordinates (Angstroms)
 Number     Number       Type             X           Y           Z
 ---------------------------------------------------------------------
      1          6           0       -3.194096    0.205499    0.000000
      2          6           0       -2.006258    0.932273    0.000000
      3          6           0       -0.780605    0.270518    0.000000
      4          6           0       -0.739115   -1.120958    0.000000
      5          6           0       -1.927097   -1.843203    0.000000
      6          6           0       -3.161222   -1.192352    0.000000
      7         17           0       -4.649498   -2.112981    0.000000
      8          1           0       -4.679162    1.012486    0.000000
      9          1           0        0.741064   -1.926005    0.000000
     10          1           0       -2.052114    2.618583    0.000000
     11          1           0        0.659205    1.158339    0.000000
 ---------------------------------------------------------------------
                    Distance matrix (angstroms):
                    1          2          3          4          5
     1  C    0.000000
     2  C    1.392537   0.000000
     3  C    2.414366   1.392891   0.000000
     4  C    2.790416   2.412760   1.392095   0.000000
     5  C    2.408832   2.776605   2.404633   1.390301   0.000000
     6  C    1.398238   2.418258   2.794159   2.423159   1.395233
     7  Cl   2.737434   4.032405   4.544161   4.034254   2.735736
     8  H    1.690162   2.674107   3.968534   4.480575   3.965958
     9  H    4.475354   3.964534   2.672113   1.684942   2.669445
    10  H    2.669662   1.686933   2.670233   3.963349   4.463537
    11  H    3.969362   2.675033   1.691532   2.674041   3.962097
                    6          7          8          9         10
     6  C    0.000000
     7  Cl   1.750007   0.000000
     8  H    2.676836   3.125608   0.000000
     9  H    3.970653   5.393804   6.165515   0.000000
    10  H    3.969048   5.397601   3.079111   5.334334   0.000000
    11  H    4.485690   6.235693   5.340360   3.085429   3.079540
                   11
    11  H    0.000000
 Stoichiometry    C6H4Cl(2)
 Framework group  CS[SG(C6H4Cl)]
 Deg. of freedom    19
 Full point group                 CS      NOp   2
 Largest Abelian subgroup         CS      NOp   2
 Largest concise Abelian subgroup C1      NOp   1
                         Standard orientation:                         
 ---------------------------------------------------------------------
 Center     Atomic      Atomic             Coordinates (Angstroms)
 Number     Number       Type             X           Y           Z
 ---------------------------------------------------------------------
      1          6           0        1.144415   -0.259061    0.000000
      2          6           0        1.024134   -1.646393    0.000000
      3          6           0       -0.235993   -2.239879    0.000000
      4          6           0       -1.380392   -1.447239   -0.000000
      5          6           0       -1.256382   -0.062480   -0.000000
      6          6           0        0.000000    0.544297   -0.000000
      7         17           0        0.142629    2.288481   -0.000000
      8          1           0        2.675411    0.456969    0.000000
      9          1           0       -2.906926   -2.160488   -0.000000
     10          1           0        2.408388   -2.610542    0.000000
     11          1           0       -0.376253   -3.925586    0.000000
 ---------------------------------------------------------------------
 Rotational constants (GHZ):           5.5403795           1.5143907           1.1893086
 Standard basis: VSTO-6G (5D, 7F)
 There are    25 symmetry adapted cartesian basis functions of A'  symmetry.
 There are     7 symmetry adapted cartesian basis functions of A"  symmetry.
 There are    25 symmetry adapted basis functions of A'  symmetry.
 There are     7 symmetry adapted basis functions of A"  symmetry.
    32 basis functions,   192 primitive gaussians,    32 cartesian basis functions
    18 alpha electrons       17 beta electrons
       nuclear repulsion energy       148.3428504398 Hartrees.
 Integral buffers will be    131072 words long.
 Regular integral format.
 Two-electron integral symmetry is turned off.
 Do NDO integrals.
 One-electron integrals computed using PRISM.
 NBasis=    32 RedAO= T EigKep=  1.00D+00  NBF=    25     7
 NBsUse=    32 1.00D-06 EigRej= -1.00D+00 NBFU=    25     7
 Initial guess from the checkpoint file:  "geometry_chks/1_ClBzNeutralRadical.chk"
 B after Tr=     0.000000    0.000000   -0.000000
         Rot=    0.954264    0.000000   -0.000000    0.298965 Ang=  34.79 deg.
 Initial guess orbital symmetries:
 Alpha Orbitals:
       Occupied  (A') (A') (A') (A') (A') (A') (A') (A') (A") (A')
                 (A') (A") (A') (A') (A') (A") (A') (A")
       Virtual   (A') (A") (A') (A') (A") (A') (A') (A") (A') (A')
                 (A') (A') (A') (A')
 Beta  Orbitals:
       Occupied  (A') (A') (A') (A') (A') (A') (A') (A') (A") (A')
                 (A") (A') (A') (A') (A') (A") (A")
       Virtual   (A') (A') (A") (A') (A") (A') (A') (A') (A") (A')
                 (A') (A') (A') (A') (A')
 Initial guess <Sx>= 0.0000 <Sy>= 0.0000 <Sz>= 0.5000 <S**2>= 2.0241 S= 1.0080
 Keep J ints in memory in canonical form, NReq=862079.
 Overlap will be assumed to be unity.
 Requested convergence on RMS density matrix=1.00D-08 within  32 cycles.
 Requested convergence on MAX density matrix=1.00D-06.
 Requested convergence on             energy=1.00D-06.
 No special actions if energy rises.
 Fock symm off for IB=2 I1=    1 I=   26 J=   12 Cut=1.00D-07 Err=9.71D-04
 Fock matrix is not symmetric: symmetry in diagonalization turned off.
 Rare condition: small coef for last iteration:  0.000D+00
 Rare condition: small coef for last iteration:  0.000D+00
 Rare condition: small coef for last iteration:  0.000D+00
 Rare condition: small coef for last iteration:  0.000D+00
 Rare condition: small coef for last iteration:  0.000D+00
 Rare condition: small coef for last iteration:  0.000D+00
 Rare condition: small coef for last iteration:  0.000D+00
 Rare condition: small coef for last iteration:  0.000D+00
 Rare condition: small coef for last iteration:  0.000D+00
 Rare condition: small coef for last iteration:  0.000D+00
 >>>>>>>>>> Convergence criterion not met.
 SCF Done:  E(UAM1) =  0.534649924207     A.U. after   33 cycles
            NFock= 32  Conv=0.99D-02     -V/T= 1.0078
 <Sx>= 0.0000 <Sy>= 0.0000 <Sz>= 0.5000 <S**2>= 0.8460 S= 0.5469
 <L.S>=  0.00000000000    
 Annihilation of the first spin contaminant:
 S**2 before annihilation     0.8460,   after     0.7580
 Keep J ints in memory in canonical form, NReq=862479.
 LinEq1:  Iter=  0 NonCon=     1 RMS=4.44D-04 Max=4.70D-03 NDo=     1
 AX will form     1 AO Fock derivatives at one time.
 LinEq1:  Iter=  1 NonCon=     1 RMS=6.47D-05 Max=3.15D-04 NDo=     1
 LinEq1:  Iter=  2 NonCon=     1 RMS=1.44D-05 Max=1.07D-04 NDo=     1
 LinEq1:  Iter=  3 NonCon=     1 RMS=4.45D-06 Max=2.66D-05 NDo=     1
 LinEq1:  Iter=  4 NonCon=     1 RMS=1.50D-06 Max=9.68D-06 NDo=     1
 LinEq1:  Iter=  5 NonCon=     1 RMS=3.98D-07 Max=3.01D-06 NDo=     1
 LinEq1:  Iter=  6 NonCon=     1 RMS=7.68D-08 Max=4.58D-07 NDo=     1
 LinEq1:  Iter=  7 NonCon=     1 RMS=1.70D-08 Max=1.03D-07 NDo=     1
 LinEq1:  Iter=  8 NonCon=     1 RMS=4.86D-09 Max=3.70D-08 NDo=     1
 LinEq1:  Iter=  9 NonCon=     0 RMS=1.51D-09 Max=1.01D-08 NDo=     1
 Linear equations converged to 2.252D-09 2.252D-08 after     9 iterations.
 Incorrect curvature in search direction -- initial direction reversed.
 Gradient too large for Newton-Raphson -- use scaled steepest descent instead.
     Accept linear search using points  4 and  5.
     Minimum is close to point  5 DX= -1.57D-01 DF= -2.25D-06 DXR=  6.99D-02 DFR=  5.76D-03 which will be used.
 LinEq1:  Iter=  0 NonCon=     1 RMS=5.03D-04 Max=2.85D-03 NDo=     1
 LinEq1:  Iter=  1 NonCon=     1 RMS=1.79D-04 Max=1.18D-03 NDo=     1
 LinEq1:  Iter=  2 NonCon=     1 RMS=3.33D-05 Max=2.01D-04 NDo=     1
 LinEq1:  Iter=  3 NonCon=     1 RMS=8.42D-06 Max=7.17D-05 NDo=     1
 LinEq1:  Iter=  4 NonCon=     1 RMS=2.47D-06 Max=1.93D-05 NDo=     1
 LinEq1:  Iter=  5 NonCon=     1 RMS=5.55D-07 Max=4.40D-06 NDo=     1
 LinEq1:  Iter=  6 NonCon=     1 RMS=1.20D-07 Max=7.07D-07 NDo=     1
 LinEq1:  Iter=  7 NonCon=     1 RMS=2.37D-08 Max=1.41D-07 NDo=     1
 LinEq1:  Iter=  8 NonCon=     1 RMS=6.94D-09 Max=6.29D-08 NDo=     1
 LinEq1:  Iter=  9 NonCon=     0 RMS=1.51D-09 Max=7.67D-09 NDo=     1
 Linear equations converged to 2.252D-09 2.252D-08 after     9 iterations.
     Accept linear search using points  1 and  2.
 LinEq1:  Iter=  0 NonCon=     1 RMS=8.24D-05 Max=6.53D-04 NDo=     1
 LinEq1:  Iter=  1 NonCon=     1 RMS=2.22D-05 Max=1.45D-04 NDo=     1
 LinEq1:  Iter=  2 NonCon=     1 RMS=5.96D-06 Max=4.05D-05 NDo=     1
 LinEq1:  Iter=  3 NonCon=     1 RMS=1.30D-06 Max=8.47D-06 NDo=     1
 LinEq1:  Iter=  4 NonCon=     1 RMS=3.16D-07 Max=2.46D-06 NDo=     1
 LinEq1:  Iter=  5 NonCon=     1 RMS=6.91D-08 Max=4.70D-07 NDo=     1
 LinEq1:  Iter=  6 NonCon=     1 RMS=1.72D-08 Max=1.08D-07 NDo=     1
 LinEq1:  Iter=  7 NonCon=     1 RMS=3.80D-09 Max=2.39D-08 NDo=     1
 LinEq1:  Iter=  8 NonCon=     0 RMS=1.01D-09 Max=1.00D-08 NDo=     1
 Linear equations converged to 2.252D-09 2.252D-08 after     8 iterations.
     Minimum is close to point  2 DX=  8.93D-03 DF= -4.66D-10 DXR=  8.86D-03 DFR=  7.84D-05 which will be used.
 LinEq1:  Iter=  0 NonCon=     1 RMS=1.63D-06 Max=1.80D-05 NDo=     1
 LinEq1:  Iter=  1 NonCon=     1 RMS=5.86D-07 Max=4.84D-06 NDo=     1
 LinEq1:  Iter=  2 NonCon=     1 RMS=1.15D-07 Max=7.85D-07 NDo=     1
 LinEq1:  Iter=  3 NonCon=     1 RMS=3.02D-08 Max=2.05D-07 NDo=     1
 LinEq1:  Iter=  4 NonCon=     1 RMS=7.59D-09 Max=5.58D-08 NDo=     1
 LinEq1:  Iter=  5 NonCon=     1 RMS=1.85D-09 Max=1.52D-08 NDo=     1
 LinEq1:  Iter=  6 NonCon=     1 RMS=4.02D-10 Max=2.33D-09 NDo=     1
 LinEq1:  Iter=  7 NonCon=     0 RMS=7.96D-11 Max=4.19D-10 NDo=     1
 Linear equations converged to 1.999D-10 1.999D-09 after     7 iterations.
 LinEq1:  Iter=  0 NonCon=     1 RMS=5.27D-08 Max=2.81D-07 NDo=     1
 LinEq1:  Iter=  1 NonCon=     1 RMS=1.74D-08 Max=1.00D-07 NDo=     1
 LinEq1:  Iter=  2 NonCon=     1 RMS=4.12D-09 Max=3.49D-08 NDo=     1
 LinEq1:  Iter=  3 NonCon=     1 RMS=9.51D-10 Max=6.44D-09 NDo=     1
 LinEq1:  Iter=  4 NonCon=     1 RMS=1.76D-10 Max=9.12D-10 NDo=     1
 LinEq1:  Iter=  5 NonCon=     1 RMS=4.89D-11 Max=3.30D-10 NDo=     1
 LinEq1:  Iter=  6 NonCon=     1 RMS=1.27D-11 Max=8.19D-11 NDo=     1
 LinEq1:  Iter=  7 NonCon=     0 RMS=3.40D-12 Max=3.06D-11 NDo=     1
 Linear equations converged to 8.230D-12 8.230D-11 after     7 iterations.
 SCF Done:  E(UAM1) =  0.524697603605     a.u. after    7 cycles
            Convg  =    0.3815D-07                    55 Fock formations.
              S**2 =  1.6492                  -V/T =  1.0077
 <Sx>= 0.0000 <Sy>= 0.0000 <Sz>= 0.5000 <S**2>= 1.6492 S= 0.8781
 <L.S>=  0.00000000000    
 Annihilation of the first spin contaminant:
 S**2 before annihilation     1.6492,   after     1.8715
 Calling FoFJK, ICntrl=      2127 FMM=F ISym2X=1 I1Cent= 0 IOpClX= 1 NMat=1 NMatS=1 NMatT=0.
 ***** Axes restored to original set *****
 -------------------------------------------------------------------
 Center     Atomic                   Forces (Hartrees/Bohr)
 Number     Number              X              Y              Z
 -------------------------------------------------------------------
      1        6          -0.076302390    0.060049901    0.000000000
      2        6          -0.003310337    0.090081384    0.000000000
      3        6           0.080005217    0.050125278    0.000000000
      4        6           0.078089474   -0.055202493    0.000000000
      5        6           0.017696349    0.043373951    0.000000000
      6        6          -0.029515219   -0.027250167    0.000000000
      7       17           0.025588986    0.016374752    0.000000000
      8        1           0.102699967   -0.057124645   -0.000000000
      9        1          -0.099763283    0.053365287   -0.000000000
     10        1           0.002957473   -0.112930130   -0.000000000
     11        1          -0.098146238   -0.060863119   -0.000000000
 -------------------------------------------------------------------
 Cartesian Forces:  Max     0.112930130 RMS     0.053101808

 GradGradGradGradGradGradGradGradGradGradGradGradGradGradGradGradGradGrad
 Berny optimization.
 Using GEDIIS/GDIIS optimizer.
 FormGI is forming the generalized inverse of G from B-inverse, IUseBI=4.
 Internal  Forces:  Max     0.117512419 RMS     0.034784628
 Search for a local minimum.
 Step number   2 out of a maximum of   57
 All quantities printed in internal units (Hartrees-Bohrs-Radians)
 Mixed Optimization -- RFO/linear search
 Update second derivatives using D2CorX and points    1    2
 DE= -8.01D-02 DEPred=-6.11D-02 R= 1.31D+00
 TightC=F SS=  1.41D+00  RLast= 3.00D-01 DXNew= 5.0454D-01 9.0000D-01
 Trust test= 1.31D+00 RLast= 3.00D-01 DXMaxT set to 5.05D-01
 ITU=  1  0
 Use linear search instead of GDIIS.
     Eigenvalues ---   -0.34140   0.02011   0.02011   0.02011   0.02011
     Eigenvalues ---    0.02011   0.02011   0.02011   0.02011   0.04481
     Eigenvalues ---    0.06524   0.06524   0.10270   0.15999   0.16000
     Eigenvalues ---    0.16000   0.16004   0.22036   0.22518   0.24969
     Eigenvalues ---    0.25001   0.29925   0.40760   0.41264   0.44572
     Eigenvalues ---    0.44657   0.44657
 RFO step:  Lambda=-4.00964166D-01 EMin=-3.41401489D-01
 Skip linear search -- no minimum in search direction.
 Maximum step size (   0.505) exceeded in Quadratic search.
    -- Step size scaled by   0.466
 Iteration  1 RMS(Cart)=  0.04453009 RMS(Int)=  0.01448945
 Iteration  2 RMS(Cart)=  0.01407520 RMS(Int)=  0.00002890
 Iteration  3 RMS(Cart)=  0.00000678 RMS(Int)=  0.00002868
 Iteration  4 RMS(Cart)=  0.00000000 RMS(Int)=  0.00002868
 ClnCor:  largest displacement from symmetrization is 2.18D-08 for atom    11.
 Variable       Old X    -DE/DX   Delta X   Delta X   Delta X     New X
                                 (Linear)    (Quad)   (Total)
    R1        2.63151  -0.02022   0.00000   0.07273   0.07275   2.70427
    R2        2.64229  -0.00921   0.00000   0.05357   0.05355   2.69584
    R3        3.19394  -0.11751   0.00000  -0.27158  -0.27158   2.92236
    R4        2.63218  -0.01934   0.00000   0.07088   0.07092   2.70311
    R5        3.18784  -0.11297   0.00000  -0.21271  -0.21271   2.97513
    R6        2.63068  -0.02161   0.00000   0.06955   0.06957   2.70025
    R7        3.19653  -0.11549   0.00000  -0.26751  -0.26751   2.92902
    R8        2.62729  -0.03251   0.00000   0.04303   0.04300   2.67029
    R9        3.18408  -0.11314   0.00000  -0.19830  -0.19830   2.98578
   R10        2.63661  -0.01461   0.00000   0.06499   0.06495   2.70156
   R11        3.30703  -0.03038   0.00000   0.00604   0.00604   3.31308
    A1        2.09637   0.00139   0.00000   0.00073   0.00075   2.09712
    A2        2.09475   0.00115   0.00000   0.00479   0.00478   2.09952
    A3        2.09207  -0.00254   0.00000  -0.00552  -0.00553   2.08655
    A4        2.09744   0.00281   0.00000   0.00036   0.00044   2.09788
    A5        2.09269  -0.00159   0.00000  -0.00043  -0.00047   2.09222
    A6        2.09305  -0.00123   0.00000   0.00007   0.00003   2.09308
    A7        2.09568  -0.00050   0.00000  -0.01275  -0.01268   2.08300
    A8        2.09397   0.00072   0.00000   0.00831   0.00827   2.10224
    A9        2.09354  -0.00022   0.00000   0.00444   0.00441   2.09795
   A10        2.08724  -0.00411   0.00000   0.01129   0.01129   2.09853
   A11        2.09874   0.00331   0.00000  -0.00146  -0.00146   2.09728
   A12        2.09720   0.00080   0.00000  -0.00983  -0.00983   2.08738
   A13        2.11003   0.01548   0.00000   0.00051   0.00041   2.11044
   A14        2.07962  -0.01508   0.00000  -0.00015  -0.00021   2.07941
   A15        2.10126   0.00677   0.00000  -0.00134  -0.00132   2.09994
   A16        2.10231   0.00831   0.00000   0.00150   0.00153   2.10383
    D1       -0.00000   0.00000   0.00000  -0.00000   0.00000   0.00000
    D2        3.14159  -0.00000   0.00000  -0.00000   0.00000   3.14159
    D3        3.14159   0.00000   0.00000   0.00000   0.00000   3.14159
    D4        0.00000   0.00000   0.00000   0.00000  -0.00000   0.00000
    D5        0.00000  -0.00000   0.00000   0.00000   0.00000   0.00000
    D6        3.14159   0.00000   0.00000   0.00000   0.00000   3.14159
    D7        3.14159  -0.00000   0.00000   0.00000   0.00000   3.14159
    D8       -0.00000  -0.00000   0.00000  -0.00000   0.00000   0.00000
    D9       -0.00000  -0.00000   0.00000  -0.00000   0.00000   0.00000
   D10        3.14159  -0.00000   0.00000  -0.00000   0.00000   3.14159
   D11        3.14159   0.00000   0.00000  -0.00000   0.00000   3.14159
   D12       -0.00000   0.00000   0.00000  -0.00000   0.00000   0.00000
   D13        0.00000  -0.00000   0.00000   0.00000   0.00000   0.00000
   D14        3.14159  -0.00000   0.00000   0.00000   0.00000   3.14159
   D15        3.14159   0.00000   0.00000   0.00000   0.00000   3.14159
   D16       -0.00000  -0.00000   0.00000   0.00000   0.00000   0.00000
   D17        0.00000   0.00000   0.00000   0.00000   0.00000   0.00000
   D18        3.14159   0.00000   0.00000   0.00000   0.00000   3.14159
   D19       -0.00000   0.00000   0.00000  -0.00000   0.00000   0.00000
   D20        3.14159  -0.00000   0.00000  -0.00000   0.00000   3.14159
         Item               Value     Threshold  Converged?
 Maximum Force            0.117512     0.000450     NO 
 RMS     Force            0.034785     0.000300     NO 
 Maximum Displacement     0.184947     0.001800     NO 
 RMS     Displacement     0.054233     0.001200     NO 
 Predicted change in Energy=-1.377184D-01
 GradGradGradGradGradGradGradGradGradGradGradGradGradGradGradGradGradGrad

                          Input orientation:                          
 ---------------------------------------------------------------------
 Center     Atomic      Atomic             Coordinates (Angstroms)
 Number     Number       Type             X           Y           Z
 ---------------------------------------------------------------------
      1          6           0       -3.216589    0.234206    0.000000
      2          6           0       -1.998374    0.985083    0.000000
      3          6           0       -0.737170    0.310197    0.000000
      4          6           0       -0.707366   -1.118402    0.000000
      5          6           0       -1.913070   -1.855290    0.000000
      6          6           0       -3.179426   -1.191887   -0.000000
      7         17           0       -4.669291   -2.116024   -0.000000
      8          1           0       -4.581293    0.961588   -0.000000
      9          1           0        0.674936   -1.883686    0.000000
     10          1           0       -2.047085    2.558698    0.000000
     11          1           0        0.585827    1.117718    0.000000
 ---------------------------------------------------------------------
                    Distance matrix (angstroms):
                    1          2          3          4          5
     1  C    0.000000
     2  C    1.431036   0.000000
     3  C    2.480584   1.430422   0.000000
     4  C    2.850570   2.468066   1.428910   0.000000
     5  C    2.462754   2.841654   2.464159   1.413056   0.000000
     6  C    1.426577   2.476708   2.867207   2.473152   1.429602
     7  Cl   2.762955   4.092757   4.620403   4.085597   2.768526
     8  H    1.546448   2.583025   3.898922   4.397007   3.879976
     9  H    4.430511   3.921278   2.609055   1.580006   2.588161
    10  H    2.602116   1.574369   2.602236   3.913555   4.416022
    11  H    3.903712   2.587603   1.549971   2.583134   3.883718
                    6          7          8          9         10
     6  C    0.000000
     7  Cl   1.753204   0.000000
     8  H    2.569569   3.078870   0.000000
     9  H    3.915953   5.349274   5.976916   0.000000
    10  H    3.917791   5.359944   2.995492   5.210007   0.000000
    11  H    4.417172   6.170361   5.169478   3.002727   3.001441
                   11
    11  H    0.000000
 Stoichiometry    C6H4Cl(2)
 Framework group  CS[SG(C6H4Cl)]
 Deg. of freedom    19
 Full point group                 CS      NOp   2
 Largest Abelian subgroup         CS      NOp   2
 Largest concise Abelian subgroup C1      NOp   1
                         Standard orientation:                         
 ---------------------------------------------------------------------
 Center     Atomic      Atomic             Coordinates (Angstroms)
 Number     Number       Type             X           Y           Z
 ---------------------------------------------------------------------
      1          6           0        1.174869   -0.245677    0.000000
      2          6           0        1.065042   -1.672492    0.000000
      3          6           0       -0.222815   -2.295012    0.000000
      4          6           0       -1.395379   -1.478387    0.000000
      5          6           0       -1.281605   -0.069919    0.000000
      6          6           0        0.000000    0.563524   -0.000000
      7         17           0        0.129610    2.311931   -0.000000
      8          1           0        2.566078    0.429628   -0.000000
      9          1           0       -2.827589   -2.145615    0.000000
     10          1           0        2.365979   -2.559173    0.000000
     11          1           0       -0.348508   -3.839878    0.000000
 ---------------------------------------------------------------------
 Rotational constants (GHZ):           5.4219695           1.4799081           1.1625846
 Standard basis: VSTO-6G (5D, 7F)
 There are    25 symmetry adapted cartesian basis functions of A'  symmetry.
 There are     7 symmetry adapted cartesian basis functions of A"  symmetry.
 There are    25 symmetry adapted basis functions of A'  symmetry.
 There are     7 symmetry adapted basis functions of A"  symmetry.
    32 basis functions,   192 primitive gaussians,    32 cartesian basis functions
    18 alpha electrons       17 beta electrons
       nuclear repulsion energy       147.6152364484 Hartrees.
 Integral buffers will be    131072 words long.
 Regular integral format.
 Two-electron integral symmetry is turned off.
 Do NDO integrals.
 One-electron integrals computed using PRISM.
 NBasis=    32 RedAO= T EigKep=  1.00D+00  NBF=    25     7
 NBsUse=    32 1.00D-06 EigRej= -1.00D+00 NBFU=    25     7
 Initial guess from the checkpoint file:  "geometry_chks/1_ClBzNeutralRadical.chk"
 B after Tr=     0.000000    0.000000   -0.000000
         Rot=    0.999994   -0.000000   -0.000000   -0.003322 Ang=  -0.38 deg.
 Initial guess orbital symmetries:
 Alpha Orbitals:
       Occupied  (A') (A') (A') (A') (A') (A') (A') (A') (A") (A')
                 (A') (A") (A') (A') (A') (A") (A') (A")
       Virtual   (A') (A") (A') (A") (A') (A') (A') (A") (A') (A')
                 (A') (A') (A') (A')
 Beta  Orbitals:
       Occupied  (A') (A') (A') (A') (A') (A') (A') (A') (A") (A')
                 (A") (A') (A') (A') (A') (A") (A")
       Virtual   (A') (A') (A') (A") (A') (A") (A') (A') (A") (A')
                 (A') (A') (A') (A') (A')
 Initial guess <Sx>= 0.0000 <Sy>= 0.0000 <Sz>= 0.5000 <S**2>= 1.6492 S= 0.8781
 Keep J ints in memory in canonical form, NReq=862079.
 Overlap will be assumed to be unity.
 Requested convergence on RMS density matrix=1.00D-08 within  32 cycles.
 Requested convergence on MAX density matrix=1.00D-06.
 Requested convergence on             energy=1.00D-06.
 No special actions if energy rises.
 Fock symm off for IB=2 I1=    1 I=   26 J=   10 Cut=1.00D-07 Err=2.03D-03
 Fock matrix is not symmetric: symmetry in diagonalization turned off.
 SCF Done:  E(UAM1) =  0.425315538159     A.U. after   19 cycles
            NFock= 18  Conv=0.83D-08     -V/T= 1.0062
 <Sx>= 0.0000 <Sy>= 0.0000 <Sz>= 0.5000 <S**2>= 1.5027 S= 0.8239
 <L.S>=  0.00000000000    
 Annihilation of the first spin contaminant:
 S**2 before annihilation     1.5027,   after     1.3413
 QCSCF skips out because SCF is already converged.
 Calling FoFJK, ICntrl=      2127 FMM=F ISym2X=1 I1Cent= 0 IOpClX= 1 NMat=1 NMatS=1 NMatT=0.
 ***** Axes restored to original set *****
 -------------------------------------------------------------------
 Center     Atomic                   Forces (Hartrees/Bohr)
 Number     Number              X              Y              Z
 -------------------------------------------------------------------
      1        6          -0.048449855    0.045862537    0.000000000
      2        6          -0.001926642    0.058686225    0.000000000
      3        6           0.048632544    0.033028254    0.000000000
      4        6           0.062925173   -0.038507004    0.000000000
      5        6           0.004952124    0.077600893    0.000000000
      6        6           0.003789638   -0.009727179   -0.000000000
      7       17           0.030487878    0.019167936   -0.000000000
      8        1           0.107548255   -0.058090683   -0.000000000
      9        1          -0.106617354    0.058562818   -0.000000000
     10        1           0.003507998   -0.122247722   -0.000000000
     11        1          -0.104849759   -0.064336075   -0.000000000
 -------------------------------------------------------------------
 Cartesian Forces:  Max     0.122247722 RMS     0.050475514

 GradGradGradGradGradGradGradGradGradGradGradGradGradGradGradGradGradGrad
 Berny optimization.
 Using GEDIIS/GDIIS optimizer.
 FormGI is forming the generalized inverse of G from B-inverse, IUseBI=4.
 Internal  Forces:  Max     0.123014304 RMS     0.041699930
 Search for a local minimum.
 Step number   3 out of a maximum of   57
 All quantities printed in internal units (Hartrees-Bohrs-Radians)
 Mixed Optimization -- RFO/linear search
 Update second derivatives using D2CorX and points    2    3
 DE= -9.94D-02 DEPred=-1.38D-01 R= 7.22D-01
 TightC=F SS=  1.41D+00  RLast= 5.05D-01 DXNew= 8.4853D-01 1.5136D+00
 Trust test= 7.22D-01 RLast= 5.05D-01 DXMaxT set to 8.49D-01
 ITU=  1  1  0
 Use linear search instead of GDIIS.
 Linear search step of   0.945 exceeds DXMaxT=   0.849 but not scaled.
 Quartic linear search produced a step of  1.87390.
 Iteration  1 RMS(Cart)=  0.05117614 RMS(Int)=  0.07373451
 Iteration  2 RMS(Cart)=  0.05452343 RMS(Int)=  0.02174417
 Iteration  3 RMS(Cart)=  0.02126486 RMS(Int)=  0.00014658
 Iteration  4 RMS(Cart)=  0.00000174 RMS(Int)=  0.00014658
 Iteration  5 RMS(Cart)=  0.00000000 RMS(Int)=  0.00014658
 ClnCor:  largest displacement from symmetrization is 1.66D-08 for atom     8.
 Variable       Old X    -DE/DX   Delta X   Delta X   Delta X     New X
                                 (Linear)    (Quad)   (Total)
    R1        2.70427  -0.06083   0.13633   0.00000   0.13646   2.84073
    R2        2.69584  -0.04670   0.10035   0.00000   0.10027   2.79611
    R3        2.92236  -0.12223  -0.50892   0.00000  -0.50892   2.41345
    R4        2.70311  -0.05961   0.13290   0.00000   0.13312   2.83623
    R5        2.97513  -0.12230  -0.39861   0.00000  -0.39861   2.57652
    R6        2.70025  -0.06051   0.13037   0.00000   0.13045   2.83070
    R7        2.92902  -0.12301  -0.50129   0.00000  -0.50129   2.42773
    R8        2.67029  -0.06210   0.08058   0.00000   0.08045   2.75073
    R9        2.98578  -0.12164  -0.37160   0.00000  -0.37160   2.61418
   R10        2.70156  -0.05531   0.12171   0.00000   0.12149   2.82304
   R11        3.31308  -0.03601   0.01132   0.00000   0.01132   3.32440
    A1        2.09712   0.00009   0.00140   0.00000   0.00148   2.09859
    A2        2.09952   0.00094   0.00896   0.00000   0.00892   2.10844
    A3        2.08655  -0.00104  -0.01036   0.00000  -0.01039   2.07615
    A4        2.09788   0.00411   0.00083   0.00000   0.00124   2.09912
    A5        2.09222  -0.00246  -0.00088   0.00000  -0.00108   2.09114
    A6        2.09308  -0.00164   0.00005   0.00000  -0.00015   2.09293
    A7        2.08300   0.00170  -0.02376   0.00000  -0.02340   2.05960
    A8        2.10224  -0.00043   0.01550   0.00000   0.01532   2.11756
    A9        2.09795  -0.00127   0.00826   0.00000   0.00808   2.10603
   A10        2.09853  -0.00762   0.02115   0.00000   0.02113   2.11966
   A11        2.09728   0.00442  -0.00273   0.00000  -0.00272   2.09456
   A12        2.08738   0.00320  -0.01842   0.00000  -0.01841   2.06897
   A13        2.11044   0.01476   0.00077   0.00000   0.00025   2.11069
   A14        2.07941  -0.01305  -0.00039   0.00000  -0.00070   2.07871
   A15        2.09994   0.00616  -0.00247   0.00000  -0.00231   2.09763
   A16        2.10383   0.00688   0.00286   0.00000   0.00301   2.10685
    D1        0.00000   0.00000   0.00000   0.00000  -0.00000   0.00000
    D2        3.14159  -0.00000   0.00000   0.00000   0.00000   3.14159
    D3        3.14159   0.00000   0.00000   0.00000   0.00000   3.14159
    D4        0.00000   0.00000   0.00000   0.00000   0.00000   0.00000
    D5        0.00000   0.00000   0.00000   0.00000   0.00000   0.00000
    D6        3.14159   0.00000   0.00000   0.00000   0.00000   3.14159
    D7        3.14159  -0.00000   0.00000   0.00000   0.00000   3.14159
    D8       -0.00000  -0.00000   0.00000   0.00000   0.00000   0.00000
    D9        0.00000  -0.00000   0.00000   0.00000   0.00000   0.00000
   D10        3.14159  -0.00000   0.00000   0.00000   0.00000   3.14159
   D11        3.14159   0.00000   0.00000   0.00000   0.00000   3.14159
   D12        0.00000  -0.00000   0.00000   0.00000  -0.00000   0.00000
   D13        0.00000   0.00000   0.00000   0.00000   0.00000   0.00000
   D14        3.14159  -0.00000   0.00000   0.00000   0.00000   3.14159
   D15        3.14159   0.00000   0.00000   0.00000   0.00000   3.14159
   D16       -0.00000   0.00000   0.00000   0.00000   0.00000   0.00000
   D17       -0.00000   0.00000   0.00000   0.00000   0.00000   0.00000
   D18        3.14159   0.00000   0.00000   0.00000   0.00000   3.14159
   D19        0.00000  -0.00000   0.00000   0.00000  -0.00000   0.00000
   D20        3.14159  -0.00000   0.00000   0.00000   0.00000   3.14159
         Item               Value     Threshold  Converged?
 Maximum Force            0.123014     0.000450     NO 
 RMS     Force            0.041700     0.000300     NO 
 Maximum Displacement     0.352326     0.001800     NO 
 RMS     Displacement     0.101895     0.001200     NO 
 Predicted change in Energy=-1.632585D-01
 GradGradGradGradGradGradGradGradGradGradGradGradGradGradGradGradGradGrad

                          Input orientation:                          
 ---------------------------------------------------------------------
 Center     Atomic      Atomic             Coordinates (Angstroms)
 Number     Number       Type             X           Y           Z
 ---------------------------------------------------------------------
      1          6           0       -3.259101    0.286367    0.000000
      2          6           0       -1.983986    1.082509    0.000000
      3          6           0       -0.655738    0.383681    0.000000
      4          6           0       -0.649041   -1.114245    0.000000
      5          6           0       -1.887457   -1.879211    0.000000
      6          6           0       -3.214204   -1.192588   -0.000000
      7         17           0       -4.707321   -2.122842   -0.000000
      8          1           0       -4.394849    0.870460   -0.000000
      9          1           0        0.551954   -1.800764    0.000000
     10          1           0       -2.035513    2.444971    0.000000
     11          1           0        0.446357    1.043863    0.000000
 ---------------------------------------------------------------------
                    Distance matrix (angstroms):
                    1          2          3          4          5
     1  C    0.000000
     2  C    1.503250   0.000000
     3  C    2.605182   1.500868   0.000000
     4  C    2.962115   2.570565   1.497941   0.000000
     5  C    2.563423   2.963292   2.576395   1.455626   0.000000
     6  C    1.479637   2.586407   3.005058   2.566359   1.493890
     7  Cl   2.810984   4.206047   4.764241   4.181735   2.830370
     8  H    1.277140   2.420171   3.770665   4.239119   3.721251
     9  H    4.345142   3.839825   2.496060   1.383365   2.440672
    10  H    2.481278   1.363436   2.480463   3.819728   4.326716
    11  H    3.782092   2.430650   1.284699   2.420191   3.740461
                    6          7          8          9         10
     6  C    0.000000
     7  Cl   1.759196   0.000000
     8  H    2.376992   3.009567   0.000000
     9  H    3.814947   5.269128   5.621948   0.000000
    10  H    3.823761   5.291831   2.836469   4.972047   0.000000
    11  H    4.289688   6.048836   4.844311   2.846586   2.850049
                   11
    11  H    0.000000
 Stoichiometry    C6H4Cl(2)
 Framework group  CS[SG(C6H4Cl)]
 Deg. of freedom    19
 Full point group                 CS      NOp   2
 Largest Abelian subgroup         CS      NOp   2
 Largest concise Abelian subgroup C1      NOp   1
                         Standard orientation:                         
 ---------------------------------------------------------------------
 Center     Atomic      Atomic             Coordinates (Angstroms)
 Number     Number       Type             X           Y           Z
 ---------------------------------------------------------------------
      1          6           0        1.230556   -0.221566   -0.000000
      2          6           0        1.139051   -1.722028    0.000000
      3          6           0       -0.200829   -2.398286    0.000000
      4          6           0       -1.424668   -1.534546    0.000000
      5          6           0       -1.329069   -0.082063    0.000000
      6          6           0        0.000000    0.600054   -0.000000
      7         17           0        0.108779    2.355884   -0.000000
      8          1           0        2.365291    0.364491   -0.000000
      9          1           0       -2.680683   -2.114308    0.000000
     10          1           0        2.278578   -2.470652    0.000000
     11          1           0       -0.302665   -3.678943    0.000000
 ---------------------------------------------------------------------
 Rotational constants (GHZ):           5.2009753           1.4170059           1.1136044
 Standard basis: VSTO-6G (5D, 7F)
 There are    25 symmetry adapted cartesian basis functions of A'  symmetry.
 There are     7 symmetry adapted cartesian basis functions of A"  symmetry.
 There are    25 symmetry adapted basis functions of A'  symmetry.
 There are     7 symmetry adapted basis functions of A"  symmetry.
    32 basis functions,   192 primitive gaussians,    32 cartesian basis functions
    18 alpha electrons       17 beta electrons
       nuclear repulsion energy       146.4972501367 Hartrees.
 Integral buffers will be    131072 words long.
 Regular integral format.
 Two-electron integral symmetry is turned off.
 Do NDO integrals.
 One-electron integrals computed using PRISM.
 NBasis=    32 RedAO= T EigKep=  1.00D+00  NBF=    25     7
 NBsUse=    32 1.00D-06 EigRej= -1.00D+00 NBFU=    25     7
 Initial guess from the checkpoint file:  "geometry_chks/1_ClBzNeutralRadical.chk"
 B after Tr=    -0.000000   -0.000000   -0.000000
         Rot=    0.999986    0.000000   -0.000000   -0.005314 Ang=  -0.61 deg.
 Initial guess orbital symmetries:
 Alpha Orbitals:
       Occupied  (A') (A') (A') (A') (A') (A') (A') (A') (A') (A")
                 (A') (A') (A") (A') (A') (A') (A") (A")
       Virtual   (A") (A") (A') (A') (A') (A') (A') (A") (A') (A')
                 (A') (A') (A') (A')
 Beta  Orbitals:
       Occupied  (A') (A') (A') (A') (A') (A') (A') (A') (A") (A')
                 (A') (A") (A') (A') (A') (A") (A")
       Virtual   (A') (A") (A') (A") (A') (A') (A') (A') (A") (A')
                 (A') (A') (A') (A') (A')
 Initial guess <Sx>= 0.0000 <Sy>= 0.0000 <Sz>= 0.5000 <S**2>= 1.5027 S= 0.8239
 Keep J ints in memory in canonical form, NReq=862079.
 Overlap will be assumed to be unity.
 Requested convergence on RMS density matrix=1.00D-08 within  32 cycles.
 Requested convergence on MAX density matrix=1.00D-06.
 Requested convergence on             energy=1.00D-06.
 No special actions if energy rises.
 Fock symm off for IB=2 I1=    1 I=   26 J=    3 Cut=1.00D-07 Err=6.65D-03
 Fock matrix is not symmetric: symmetry in diagonalization turned off.
 SCF Done:  E(UAM1) =  0.281931846046     A.U. after   19 cycles
            NFock= 18  Conv=0.61D-08     -V/T= 1.0041
 <Sx>= 0.0000 <Sy>= 0.0000 <Sz>= 0.5000 <S**2>= 1.8280 S= 0.9415
 <L.S>=  0.00000000000    
 Annihilation of the first spin contaminant:
 S**2 before annihilation     1.8280,   after     1.9968
 QCSCF skips out because SCF is already converged.
 Calling FoFJK, ICntrl=      2127 FMM=F ISym2X=1 I1Cent= 0 IOpClX= 1 NMat=1 NMatS=1 NMatT=0.
 ***** Axes restored to original set *****
 -------------------------------------------------------------------
 Center     Atomic                   Forces (Hartrees/Bohr)
 Number     Number              X              Y              Z
 -------------------------------------------------------------------
      1        6           0.018730738    0.007857174    0.000000000
      2        6           0.001885039   -0.006882054   -0.000000000
      3        6          -0.026058273   -0.009983587    0.000000000
      4        6           0.020023668   -0.011161977    0.000000000
      5        6          -0.010117341    0.124578356    0.000000000
      6        6           0.047901363    0.011088473   -0.000000000
      7       17           0.039060423    0.024131124   -0.000000000
      8        1           0.078620261   -0.039320168   -0.000000000
      9        1          -0.094611887    0.055092853   -0.000000000
     10        1           0.003505353   -0.107870732   -0.000000000
     11        1          -0.078939344   -0.047529461   -0.000000000
 -------------------------------------------------------------------
 Cartesian Forces:  Max     0.124578356 RMS     0.043263845

 GradGradGradGradGradGradGradGradGradGradGradGradGradGradGradGradGradGrad
 Berny optimization.
 Using GEDIIS/GDIIS optimizer.
 FormGI is forming the generalized inverse of G from B-inverse, IUseBI=4.
 Internal  Forces:  Max     0.111275077 RMS     0.048569514
 Search for a local minimum.
 Step number   4 out of a maximum of   57
 All quantities printed in internal units (Hartrees-Bohrs-Radians)
 Mixed Optimization -- RFO/linear search
 Update second derivatives using D2CorX and points    3    4
 ITU=  0  1  1  0
 Use linear search instead of GDIIS.
     Eigenvalues ---    0.02011   0.02011   0.02011   0.02011   0.02011
     Eigenvalues ---    0.02011   0.02011   0.02011   0.02515   0.06516
     Eigenvalues ---    0.06524   0.07336   0.15998   0.16000   0.16000
     Eigenvalues ---    0.16004   0.20713   0.22241   0.22578   0.25000
     Eigenvalues ---    0.27274   0.33817   0.41326   0.42305   0.44599
     Eigenvalues ---    0.44657   0.44884
 RFO step:  Lambda=-2.96908376D-01 EMin= 2.01067237D-02
 Quartic linear search produced a step of  0.66420.
 Iteration  1 RMS(Cart)=  0.13304807 RMS(Int)=  0.09393384
 Iteration  2 RMS(Cart)=  0.05684233 RMS(Int)=  0.03585422
 Iteration  3 RMS(Cart)=  0.03468367 RMS(Int)=  0.00012250
 Iteration  4 RMS(Cart)=  0.00000656 RMS(Int)=  0.00012229
 Iteration  5 RMS(Cart)=  0.00000001 RMS(Int)=  0.00012229
 ClnCor:  largest displacement from symmetrization is 8.88D-09 for atom    10.
 Variable       Old X    -DE/DX   Delta X   Delta X   Delta X     New X
                                 (Linear)    (Quad)   (Total)
    R1        2.84073  -0.11128   0.09064  -0.27928  -0.18881   2.65192
    R2        2.79611  -0.09445   0.06660  -0.20847  -0.14205   2.65406
[...]
 RFO step:  Lambda=-3.68490562D-07.
 DidBck=T Rises=F RFO-DIIS coefs:    0.70132    0.07654    0.22214
 Iteration  1 RMS(Cart)=  0.00015642 RMS(Int)=  0.00000002
 Iteration  2 RMS(Cart)=  0.00000002 RMS(Int)=  0.00000001
 ClnCor:  largest displacement from symmetrization is 3.24D-13 for atom    11.
 Variable       Old X    -DE/DX   Delta X   Delta X   Delta X     New X
                                 (Linear)    (Quad)   (Total)
    R1        2.64761   0.00016   0.00018   0.00007   0.00025   2.64786
    R2        2.66974   0.00002  -0.00014   0.00007  -0.00007   2.66967
    R3        2.07615   0.00018   0.00033   0.00017   0.00049   2.07665
    R4        2.65048   0.00012   0.00010   0.00011   0.00021   2.65069
    R5        2.07967   0.00002   0.00039  -0.00040  -0.00001   2.07967
    R6        2.66163   0.00006   0.00001   0.00003   0.00004   2.66167
    R7        2.07614  -0.00008   0.00004  -0.00030  -0.00025   2.07589
    R8        2.58819   0.00002   0.00001  -0.00005  -0.00004   2.58815
    R9        2.07179   0.00012   0.00023   0.00011   0.00034   2.07214
   R10        2.60011   0.00007   0.00016   0.00001   0.00017   2.60028
   R11        3.18382  -0.00009  -0.00021  -0.00006  -0.00027   3.18355
    A1        2.08237  -0.00001   0.00009  -0.00003   0.00006   2.08244
    A2        2.10373   0.00003   0.00002   0.00008   0.00010   2.10383
    A3        2.09708  -0.00002  -0.00011  -0.00005  -0.00016   2.09692
    A4        2.12602  -0.00002  -0.00005  -0.00002  -0.00007   2.12595
    A5        2.07556   0.00002   0.00001   0.00003   0.00004   2.07560
    A6        2.08160   0.00001   0.00004  -0.00001   0.00003   2.08163
    A7        2.09178  -0.00004  -0.00018  -0.00004  -0.00022   2.09156
    A8        2.09864   0.00003   0.00011   0.00005   0.00015   2.09880
    A9        2.09276   0.00002   0.00008  -0.00001   0.00006   2.09283
   A10        2.00883   0.00008   0.00035   0.00008   0.00044   2.00927
   A11        2.13515  -0.00004  -0.00003  -0.00010  -0.00012   2.13502
   A12        2.13920  -0.00005  -0.00033   0.00002  -0.00031   2.13889
   A13        2.24430  -0.00006  -0.00032  -0.00005  -0.00037   2.24394
   A14        2.01306   0.00005   0.00011   0.00005   0.00016   2.01322
   A15        2.12874  -0.00004   0.00005  -0.00011  -0.00007   2.12867
   A16        2.14139  -0.00001  -0.00015   0.00006  -0.00009   2.14130
    D1       -0.00000  -0.00000   0.00000  -0.00000   0.00000   0.00000
    D2        3.14159  -0.00000   0.00000  -0.00000   0.00000   3.14159
    D3        3.14159   0.00000   0.00000   0.00000   0.00000   3.14159
    D4        0.00000  -0.00000   0.00000  -0.00000  -0.00000   0.00000
    D5        0.00000   0.00000   0.00000   0.00000  -0.00000   0.00000
    D6        3.14159   0.00000   0.00000   0.00000   0.00000   3.14159
    D7        3.14159  -0.00000   0.00000  -0.00000   0.00000   3.14159
    D8        0.00000  -0.00000   0.00000  -0.00000   0.00000   0.00000
    D9       -0.00000  -0.00000   0.00000  -0.00000   0.00000   0.00000
   D10        3.14159  -0.00000   0.00000  -0.00000   0.00000   3.14159
   D11        3.14159   0.00000   0.00000   0.00000   0.00000   3.14159
   D12       -0.00000  -0.00000   0.00000   0.00000   0.00000   0.00000
   D13        0.00000   0.00000   0.00000   0.00000  -0.00000   0.00000
   D14        3.14159  -0.00000   0.00000  -0.00000   0.00000   3.14159
   D15        3.14159   0.00000   0.00000   0.00000   0.00000   3.14159
   D16        0.00000  -0.00000   0.00000  -0.00000   0.00000   0.00000
   D17       -0.00000   0.00000   0.00000  -0.00000   0.00000   0.00000
   D18        3.14159   0.00000   0.00000   0.00000   0.00000   3.14159
   D19       -0.00000  -0.00000   0.00000  -0.00000   0.00000   0.00000
   D20        3.14159  -0.00000   0.00000  -0.00000   0.00000   3.14159
         Item               Value     Threshold  Converged?
 Maximum Force            0.000178     0.000450     YES
 RMS     Force            0.000053     0.000300     YES
 Maximum Displacement     0.000635     0.001800     YES
 RMS     Displacement     0.000156     0.001200     YES
 Predicted change in Energy=-1.840529D-07
 Optimization completed.
    -- Stationary point found.
                           ----------------------------
                           !   Optimized Parameters   !
                           ! (Angstroms and Degrees)  !
 --------------------------                            --------------------------
 ! Name  Definition              Value          Derivative Info.                !
 --------------------------------------------------------------------------------
 ! R1    R(1,2)                  1.4011         -DE/DX =    0.0002              !
 ! R2    R(1,6)                  1.4128         -DE/DX =    0.0                 !
 ! R3    R(1,8)                  1.0987         -DE/DX =    0.0002              !
 ! R4    R(2,3)                  1.4026         -DE/DX =    0.0001              !
 ! R5    R(2,10)                 1.1005         -DE/DX =    0.0                 !
 ! R6    R(3,4)                  1.4085         -DE/DX =    0.0001              !
 ! R7    R(3,11)                 1.0986         -DE/DX =   -0.0001              !
 ! R8    R(4,5)                  1.3696         -DE/DX =    0.0                 !
 ! R9    R(4,9)                  1.0963         -DE/DX =    0.0001              !
 ! R10   R(5,6)                  1.3759         -DE/DX =    0.0001              !
 ! R11   R(6,7)                  1.6848         -DE/DX =   -0.0001              !
 ! A1    A(2,1,6)              119.3113         -DE/DX =    0.0                 !
 ! A2    A(2,1,8)              120.535          -DE/DX =    0.0                 !
 ! A3    A(6,1,8)              120.1537         -DE/DX =    0.0                 !
 ! A4    A(1,2,3)              121.812          -DE/DX =    0.0                 !
 ! A5    A(1,2,10)             118.921          -DE/DX =    0.0                 !
 ! A6    A(3,2,10)             119.267          -DE/DX =    0.0                 !
 ! A7    A(2,3,4)              119.85           -DE/DX =    0.0                 !
 ! A8    A(2,3,11)             120.2434         -DE/DX =    0.0                 !
 ! A9    A(4,3,11)             119.9066         -DE/DX =    0.0                 !
 ! A10   A(3,4,5)              115.0977         -DE/DX =    0.0001              !
 ! A11   A(3,4,9)              122.335          -DE/DX =    0.0                 !
 ! A12   A(5,4,9)              122.5673         -DE/DX =    0.0                 !
 ! A13   A(4,5,6)              128.5891         -DE/DX =   -0.0001              !
 ! A14   A(1,6,5)              115.3399         -DE/DX =    0.0                 !
 ! A15   A(1,6,7)              121.9677         -DE/DX =    0.0                 !
 ! A16   A(5,6,7)              122.6924         -DE/DX =    0.0                 !
 ! D1    D(6,1,2,3)              0.0            -DE/DX =    0.0                 !
 ! D2    D(6,1,2,10)           180.0            -DE/DX =    0.0                 !
 ! D3    D(8,1,2,3)            180.0            -DE/DX =    0.0                 !
 ! D4    D(8,1,2,10)             0.0            -DE/DX =    0.0                 !
 ! D5    D(2,1,6,5)              0.0            -DE/DX =    0.0                 !
 ! D6    D(2,1,6,7)            180.0            -DE/DX =    0.0                 !
 ! D7    D(8,1,6,5)            180.0            -DE/DX =    0.0                 !
 ! D8    D(8,1,6,7)              0.0            -DE/DX =    0.0                 !
 ! D9    D(1,2,3,4)              0.0            -DE/DX =    0.0                 !
 ! D10   D(1,2,3,11)           180.0            -DE/DX =    0.0                 !
 ! D11   D(10,2,3,4)           180.0            -DE/DX =    0.0                 !
 ! D12   D(10,2,3,11)            0.0            -DE/DX =    0.0                 !
 ! D13   D(2,3,4,5)              0.0            -DE/DX =    0.0                 !
 ! D14   D(2,3,4,9)            180.0            -DE/DX =    0.0                 !
 ! D15   D(11,3,4,5)           180.0            -DE/DX =    0.0                 !
 ! D16   D(11,3,4,9)             0.0            -DE/DX =    0.0                 !
 ! D17   D(3,4,5,6)              0.0            -DE/DX =    0.0                 !
 ! D18   D(9,4,5,6)            180.0            -DE/DX =    0.0                 !
 ! D19   D(4,5,6,1)              0.0            -DE/DX =    0.0                 !
 ! D20   D(4,5,6,7)            180.0            -DE/DX =    0.0                 !
 --------------------------------------------------------------------------------
 GradGradGradGradGradGradGradGradGradGradGradGradGradGradGradGradGradGrad

                          Input orientation:                          
 ---------------------------------------------------------------------
 Center     Atomic      Atomic             Coordinates (Angstroms)
 Number     Number       Type             X           Y           Z
 ---------------------------------------------------------------------
      1          6           0       -3.176163    0.289628    0.000000
      2          6           0       -1.970542    1.003372    0.000000
      3          6           0       -0.727144    0.354393    0.000000
      4          6           0       -0.670911   -1.052956    0.000000
      5          6           0       -1.887027   -1.682949    0.000000
      6          6           0       -3.143745   -1.122763   -0.000000
      7         17           0       -4.552201   -2.047330   -0.000000
      8          1           0       -4.138560    0.819562   -0.000000
      9          1           0        0.278104   -1.601905    0.000000
     10          1           0       -2.003289    2.103399    0.000000
     11          1           0        0.202576    0.939749    0.000000
 ---------------------------------------------------------------------
                    Distance matrix (angstroms):
                    1          2          3          4          5
     1  C    0.000000
     2  C    1.401054   0.000000
     3  C    2.449875   1.402573   0.000000
     4  C    2.842326   2.432596   1.408472   0.000000
     5  C    2.356466   2.687619   2.344375   1.369610   0.000000
     6  C    1.412763   2.428344   2.832305   2.473820   1.375918
     7  Cl   2.711984   3.996467   4.516562   4.006644   2.689968
     8  H    1.098653   2.175796   3.442984   3.940928   3.366298
     9  H    3.938255   3.441493   2.199460   1.096346   2.166647
    10  H    2.159954   1.100515   2.165079   3.426048   3.788133
    11  H    3.440717   2.174049   1.098646   2.175742   3.353355
                    6          7          8          9         10
     6  C    0.000000
     7  Cl   1.684806   0.000000
     8  H    2.182265   2.896579   0.000000
     9  H    3.455232   4.850799   5.036905   0.000000
    10  H    3.421807   4.870884   2.491510   4.351325   0.000000
    11  H    3.930881   5.615207   4.342799   2.542776   2.493977
                   11
    11  H    0.000000
 Stoichiometry    C6H4Cl(2)
 Framework group  CS[SG(C6H4Cl)]
 Deg. of freedom    19
 Full point group                 CS      NOp   2
 Largest Abelian subgroup         CS      NOp   2
 Largest concise Abelian subgroup C1      NOp   1
                         Standard orientation:                         
 ---------------------------------------------------------------------
 Center     Atomic      Atomic             Coordinates (Angstroms)
 Number     Number       Type             X           Y           Z
 ---------------------------------------------------------------------
      1          6           0        1.185471   -0.201841    0.000000
      2          6           0        1.096475   -1.600066   -0.000000
      3          6           0       -0.139963   -2.262208   -0.000000
      4          6           0       -1.334677   -1.516252   -0.000000
      5          6           0       -1.170559   -0.156510   -0.000000
      6          6           0        0.000000    0.566637    0.000000
      7         17           0        0.028978    2.251194    0.000000
      8          1           0        2.165307    0.295109    0.000000
      9          1           0       -2.322692   -1.991435   -0.000000
     10          1           0        2.023990   -2.192390    0.000000
     11          1           0       -0.179710   -3.360135   -0.000000
 ---------------------------------------------------------------------
 Rotational constants (GHZ):           6.0717542           1.5717918           1.2485741

 **********************************************************************

            Population analysis using the SCF Density.

 **********************************************************************

 Orbital symmetries:
 Alpha Orbitals:
       Occupied  (A') (A') (A') (A') (A') (A') (A') (A') (A') (A')
                 (A") (A') (A') (A") (A') (A') (A") (A")
       Virtual   (A") (A") (A') (A") (A') (A') (A') (A') (A') (A')
                 (A') (A') (A') (A')
 Beta  Orbitals:
       Occupied  (A') (A') (A') (A') (A') (A') (A') (A') (A') (A')
                 (A") (A') (A') (A") (A') (A") (A")
       Virtual   (A') (A") (A") (A') (A") (A') (A') (A') (A') (A')
                 (A') (A') (A') (A') (A')
 The electronic state is 2-A'.
 Alpha  occ. eigenvalues --   -1.45874  -1.38499  -1.16911  -1.14495  -0.87361
 Alpha  occ. eigenvalues --   -0.84814  -0.67042  -0.60580  -0.59730  -0.55523
 Alpha  occ. eigenvalues --   -0.53517  -0.50794  -0.47229  -0.46044  -0.44257
 Alpha  occ. eigenvalues --   -0.38881  -0.38426  -0.36533
 Alpha virt. eigenvalues --    0.00444   0.01191   0.05299   0.08977   0.12868
 Alpha virt. eigenvalues --    0.13628   0.13921   0.14688   0.15432   0.16805
 Alpha virt. eigenvalues --    0.17928   0.18674   0.19018   0.19983
  Beta  occ. eigenvalues --   -1.45164  -1.38448  -1.16591  -1.12956  -0.86968
  Beta  occ. eigenvalues --   -0.82621  -0.66949  -0.59560  -0.58478  -0.55285
  Beta  occ. eigenvalues --   -0.53612  -0.49649  -0.46857  -0.46347  -0.43595
  Beta  occ. eigenvalues --   -0.37649  -0.36032
  Beta virt. eigenvalues --    0.00329   0.00557   0.02714   0.04683   0.09772
  Beta virt. eigenvalues --    0.13309   0.13667   0.14594   0.15290   0.16001
  Beta virt. eigenvalues --    0.17023   0.18165   0.19089   0.20168   0.20692
          Condensed to atoms (all electrons):
               1          2          3          4          5          6
     1  C    4.118514   0.000000   0.000000   0.000000   0.000000   0.000000
     2  C    0.000000   4.137289   0.000000   0.000000   0.000000   0.000000
     3  C    0.000000   0.000000   4.122693   0.000000   0.000000   0.000000
     4  C    0.000000   0.000000   0.000000   4.115270   0.000000   0.000000
     5  C    0.000000   0.000000   0.000000   0.000000   4.058561   0.000000
     6  C    0.000000   0.000000   0.000000   0.000000   0.000000   4.062913
     7  Cl   0.000000   0.000000   0.000000   0.000000   0.000000   0.000000
     8  H    0.000000   0.000000   0.000000   0.000000   0.000000   0.000000
     9  H    0.000000   0.000000   0.000000   0.000000   0.000000   0.000000
    10  H    0.000000   0.000000   0.000000   0.000000   0.000000   0.000000
    11  H    0.000000   0.000000   0.000000   0.000000   0.000000   0.000000
               7          8          9         10         11
     1  C    0.000000   0.000000   0.000000   0.000000   0.000000
     2  C    0.000000   0.000000   0.000000   0.000000   0.000000
     3  C    0.000000   0.000000   0.000000   0.000000   0.000000
     4  C    0.000000   0.000000   0.000000   0.000000   0.000000
     5  C    0.000000   0.000000   0.000000   0.000000   0.000000
     6  C    0.000000   0.000000   0.000000   0.000000   0.000000
     7  Cl   6.977526   0.000000   0.000000   0.000000   0.000000
     8  H    0.000000   0.849051   0.000000   0.000000   0.000000
     9  H    0.000000   0.000000   0.839629   0.000000   0.000000
    10  H    0.000000   0.000000   0.000000   0.860139   0.000000
    11  H    0.000000   0.000000   0.000000   0.000000   0.858416
          Atomic-Atomic Spin Densities.
               1          2          3          4          5          6
     1  C    0.476004   0.000000   0.000000   0.000000   0.000000   0.000000
     2  C    0.000000  -0.436294   0.000000   0.000000   0.000000   0.000000
     3  C    0.000000   0.000000   0.484532   0.000000   0.000000   0.000000
     4  C    0.000000   0.000000   0.000000  -0.465490   0.000000   0.000000
     5  C    0.000000   0.000000   0.000000   0.000000   1.376349   0.000000
     6  C    0.000000   0.000000   0.000000   0.000000   0.000000  -0.457175
     7  Cl   0.000000   0.000000   0.000000   0.000000   0.000000   0.000000
     8  H    0.000000   0.000000   0.000000   0.000000   0.000000   0.000000
     9  H    0.000000   0.000000   0.000000   0.000000   0.000000   0.000000
    10  H    0.000000   0.000000   0.000000   0.000000   0.000000   0.000000
    11  H    0.000000   0.000000   0.000000   0.000000   0.000000   0.000000
               7          8          9         10         11
     1  C    0.000000   0.000000   0.000000   0.000000   0.000000
     2  C    0.000000   0.000000   0.000000   0.000000   0.000000
     3  C    0.000000   0.000000   0.000000   0.000000   0.000000
     4  C    0.000000   0.000000   0.000000   0.000000   0.000000
     5  C    0.000000   0.000000   0.000000   0.000000   0.000000
     6  C    0.000000   0.000000   0.000000   0.000000   0.000000
     7  Cl   0.002128   0.000000   0.000000   0.000000   0.000000
     8  H    0.000000  -0.018565   0.000000   0.000000   0.000000
     9  H    0.000000   0.000000   0.031814   0.000000   0.000000
    10  H    0.000000   0.000000   0.000000   0.026152   0.000000
    11  H    0.000000   0.000000   0.000000   0.000000  -0.019455
 Mulliken charges and spin densities:
               1          2
     1  C   -0.118514   0.476004
     2  C   -0.137289  -0.436294
     3  C   -0.122693   0.484532
     4  C   -0.115270  -0.465490
     5  C   -0.058561   1.376349
     6  C   -0.062913  -0.457175
     7  Cl   0.022474   0.002128
     8  H    0.150949  -0.018565
     9  H    0.160371   0.031814
    10  H    0.139861   0.026152
    11  H    0.141584  -0.019455
 Sum of Mulliken charges =  -0.00000   1.00000
 Mulliken charges and spin densities with hydrogens summed into heavy atoms:
               1          2
     1  C    0.032436   0.457439
     2  C    0.002572  -0.410142
     3  C    0.018892   0.465078
     4  C    0.045100  -0.433676
     5  C   -0.058561   1.376349
     6  C   -0.062913  -0.457175
     7  Cl   0.022474   0.002128
 Charge=             -0.0000 electrons
 Dipole moment (field-independent basis, Debye):
    X=              0.8475    Y=             -1.6385    Z=              0.0000  Tot=              1.8447
 N-N= 1.527820301955D+02 E-N=-2.113698610548D+02  KE=-6.874782661249D+01
 Symmetry A'   KE=-5.394570935324D+01
 Symmetry A"   KE=-1.480211725925D+01
 Symmetry A'   SP= 1.000000000000D+00
 Symmetry A"   SP=-2.164934898019D-15
 1\1\GINC-SH02-01N37\FOpt\UAM1\ZDO\C6H4Cl1(2)\JLAPIER\09-Dec-2025\0\\# 
 opt am1 SCF=XQC\\Neutral Radical (removed 4) 1_\\0,2\C,-3.1761626021,0
 .2896279672,0.\C,-1.9705416981,1.0033719496,0.\C,-0.7271441097,0.35439
 29309,0.\C,-0.6709105704,-1.0529556482,0.\C,-1.8870269875,-1.682949478
 8,0.\C,-3.1437454175,-1.1227630381,0.\Cl,-4.5522009779,-2.0473303887,0
 .\H,-4.1385595002,0.8195618093,0.\H,0.2781039406,-1.6019045722,0.\H,-2
 .0032885526,2.1033992017,0.\H,0.2025764754,0.9397492672,0.\\Version=ES
 64L-G16RevB.01\State=2-A'\HF=0.1068441\S2=1.200688\S2-1=0.\S2A=0.92215
 3\RMSD=2.112e-09\RMSF=8.315e-05\Dipole=0.3450118,0.6385179,0.\PG=CS [S
 G(C6H4Cl1)]\\@


 HE WHO LAUGHS LAST PROBABLY DIDN'T GET THE JOKE.
 Job cpu time:       0 days  0 hours  0 minutes 11.8 seconds.
 Elapsed time:       0 days  0 hours  0 minutes 19.6 seconds.
 File lengths (MBytes):  RWF=     10 Int=      0 D2E=      0 Chk=      2 Scr=      1
 Normal termination of Gaussian 16 at Tue Dec  9 08:35:04 2025.
