 Entering Gaussian System, Link 0=g16
 Initial command:
 /share/software/user/restricted/gaussian/g16.B01/l1.exe "/home/users/jlapier/Chloroaromatics/Gau-28423.inp" -scrdir="/home/users/jlapier/Chloroaromatics/"
 Entering Link 1 = /share/software/user/restricted/gaussian/g16.B01/l1.exe PID=     28432.
  
 Copyright (c) 1988-2017, Gaussian, Inc.  All Rights Reserved.
  
 This is part of the Gaussian(R) 16 program.  It is based on
 the Gaussian(R) 09 system (copyright 2009, Gaussian, Inc.),
 the Gaussian(R) 03 system (copyright 2003, Gaussian, Inc.),
 the Gaussian(R) 98 system (copyright 1998, Gaussian, Inc.),
 the Gaussian(R) 94 system (copyright 1995, Gaussian, Inc.),
 the Gaussian 92(TM) system (copyright 1992, Gaussian, Inc.),
 the Gaussian 90(TM) system (copyright 1990, Gaussian, Inc.),
 the Gaussian 88(TM) system (copyright 1988, Gaussian, Inc.),
 the Gaussian 86(TM) system (copyright 1986, Carnegie Mellon
 University), and the Gaussian 82(TM) system (copyright 1983,
 Carnegie Mellon University). Gaussian is a federally registered
 trademark of Gaussian, Inc.
  
 This software contains proprietary and confidential information,
 including trade secrets, belonging to Gaussian, Inc.
  
 This software is provided under written license and may be
 used, copied, transmitted, or stored only in accord with that
 written license.
  
 The following legend is applicable only to US Government
 contracts under FAR:
  
                    RESTRICTED RIGHTS LEGEND
  
 Use, reproduction and disclosure by the US Government is
 subject to restrictions as set forth in subparagraphs (a)
 and (c) of the Commercial Computer Software - Restricted
 Rights clause in FAR 52.227-19.
  
 Gaussian, Inc.
 340 Quinnipiac St., Bldg. 40, Wallingford CT 06492
  
  
 ---------------------------------------------------------------
 Warning -- This program may not be used in any manner that
 competes with the business of Gaussian, Inc. or will provide
 assistance to any competitor of Gaussian, Inc.  The licensee
 of this program is prohibited from giving any competitor of
 Gaussian, Inc. access to this program.  By using this program,
 the user acknowledges that Gaussian, Inc. is engaged in the
 business of creating and licensing software in the field of
 computational chemistry and represents and warrants to the
 licensee that it is not a competitor of Gaussian, Inc. and that
 it will not use this program in any manner prohibited above.
 ---------------------------------------------------------------
  

 Cite this work as:
 Gaussian 16, Revision B.01,
 M. J. Frisch, G. W. Trucks, H. B. Schlegel, G. E. Scuseria, 
 M. A. Robb, J. R. Cheeseman, G. Scalmani, V. Barone, 
 G. A. Petersson, H. Nakatsuji, X. Li, M. Caricato, A. V. Marenich, 
 J. Bloino, B. G. Janesko, R. Gomperts, B. Mennucci, H. P. Hratchian, 
 J. V. Ortiz, A. F. Izmaylov, J. L. Sonnenberg, D. Williams-Young, 
 F. Ding, F. Lipparini, F. Egidi, J. Goings, B. Peng, A. Petrone, 
 T. Henderson, D. Ranasinghe, V. G. Zakrzewski, J. Gao, N. Rega, 
 G. Zheng, W. Liang, M. Hada, M. Ehara, K. Toyota, R. Fukuda, 
 J. Hasegawa, M. Ishida, T. Nakajima, Y. Honda, O. Kitao, H. Nakai, 
 T. Vreven, K. Throssell, J. A. Montgomery, Jr., J. E. Peralta, 
 F. Ogliaro, M. J. Bearpark, J. J. Heyd, E. N. Brothers, K. N. Kudin, 
 V. N. Staroverov, T. A. Keith, R. Kobayashi, J. Normand, 
 K. Raghavachari, A. P. Rendell, J. C. Burant, S. S. Iyengar, 
 J. Tomasi, M. Cossi, J. M. Millam, M. Klene, C. Adamo, R. Cammi, 
 J. W. Ochterski, R. L. Martin, K. Morokuma, O. Farkas, 
 J. B. Foresman, and D. J. Fox, Gaussian, Inc., Wallingford CT, 2016.
 
 ******************************************
 Gaussian 16:  ES64L-G16RevB.01 20-Dec-2017
                 8-Dec-2025 
 ******************************************
 %mem=2GB
 %nprocshare=1
 Will use up to    1 processors via shared memory.
 %chk=geometry_chks/1_ClBzAnionIntermediate.chk
 ---------------------------
 # opt am1 SCF(maxcyc=10000)
 ---------------------------
 1/18=20,19=15,26=1,38=1/1,3;
 2/9=110,12=2,17=6,18=5,40=1/2;
 3/5=2,25=1,41=700000,71=1/1,2,3;
 4/35=1/1;
 5/5=2,7=10000,35=1,38=5/2;
 6/7=2,8=2,9=2,10=2,28=1/1;
 7//1,2,3,16;
 1/18=20,19=15,26=1/3(2);
 2/9=110/2;
 99//99;
 2/9=110/2;
 3/5=2,25=1,41=700000,71=1,135=20/1,2,3;
 4/5=5,16=3,35=1/1;
 5/5=2,7=10000,35=1,38=5/2;
 7//1,2,3,16;
 1/18=20,19=15,26=1/3(-5);
 2/9=110/2;
 6/7=2,8=2,9=2,10=2,19=2,28=1/1;
 99/9=1/99;
 ---------------------------------
 Anion Intermediate (removed 4) 1_
 ---------------------------------
 Symbolic Z-matrix:
 Charge = -1 Multiplicity = 1
 C                    -3.20928   0.19943   0. 
 C                    -2.0115    0.93555   0. 
 C                    -0.77511   0.2663    0. 
 C                    -0.7365   -1.13907   0. 
 C                    -1.93429  -1.87519   0. 
 C                    -3.17067  -1.20594   0. 
 Cl                   -4.67483  -2.13035   0. 
 H                    -4.76193   1.03987   0. 
 H                     0.81614  -1.97951   0. 
 H                    -2.05998   2.7004    0. 
 H                     0.72905   1.19071   0. 
 
 Add virtual bond connecting atoms H9         and C4         Dist= 3.34D+00.
 Add virtual bond connecting atoms H11        and C3         Dist= 3.34D+00.
 Add virtual bond connecting atoms H10        and C2         Dist= 3.34D+00.
 Add virtual bond connecting atoms H8         and C1         Dist= 3.34D+00.

 GradGradGradGradGradGradGradGradGradGradGradGradGradGradGradGradGradGrad
 Berny optimization.
 Initialization pass.
                           ----------------------------
                           !    Initial Parameters    !
                           ! (Angstroms and Degrees)  !
 --------------------------                            --------------------------
 ! Name  Definition              Value          Derivative Info.                !
 --------------------------------------------------------------------------------
 ! R1    R(1,2)                  1.4059         estimate D2E/DX2                !
 ! R2    R(1,6)                  1.4059         estimate D2E/DX2                !
 ! R3    R(1,8)                  1.7655         estimate D2E/DX2                !
 ! R4    R(2,3)                  1.4059         estimate D2E/DX2                !
 ! R5    R(2,10)                 1.7655         estimate D2E/DX2                !
 ! R6    R(3,4)                  1.4059         estimate D2E/DX2                !
 ! R7    R(3,11)                 1.7655         estimate D2E/DX2                !
 ! R8    R(4,5)                  1.4059         estimate D2E/DX2                !
 ! R9    R(4,9)                  1.7655         estimate D2E/DX2                !
 ! R10   R(5,6)                  1.4059         estimate D2E/DX2                !
 ! R11   R(6,7)                  1.7655         estimate D2E/DX2                !
 ! A1    A(2,1,6)              119.9999         estimate D2E/DX2                !
 ! A2    A(2,1,8)              119.9999         estimate D2E/DX2                !
 ! A3    A(6,1,8)              120.0001         estimate D2E/DX2                !
 ! A4    A(1,2,3)              120.0            estimate D2E/DX2                !
 ! A5    A(1,2,10)             120.0001         estimate D2E/DX2                !
 ! A6    A(3,2,10)             119.9999         estimate D2E/DX2                !
 ! A7    A(2,3,4)              120.0001         estimate D2E/DX2                !
 ! A8    A(2,3,11)             120.0            estimate D2E/DX2                !
 ! A9    A(4,3,11)             119.9999         estimate D2E/DX2                !
 ! A10   A(3,4,5)              119.9997         estimate D2E/DX2                !
 ! A11   A(3,4,9)              120.0003         estimate D2E/DX2                !
 ! A12   A(5,4,9)              120.0            estimate D2E/DX2                !
 ! A13   A(4,5,6)              120.0            estimate D2E/DX2                !
 ! A14   A(1,6,5)              120.0003         estimate D2E/DX2                !
 ! A15   A(1,6,7)              119.9999         estimate D2E/DX2                !
 ! A16   A(5,6,7)              119.9998         estimate D2E/DX2                !
 ! D1    D(6,1,2,3)              0.0            estimate D2E/DX2                !
 ! D2    D(6,1,2,10)           180.0            estimate D2E/DX2                !
 ! D3    D(8,1,2,3)            180.0            estimate D2E/DX2                !
 ! D4    D(8,1,2,10)             0.0            estimate D2E/DX2                !
 ! D5    D(2,1,6,5)              0.0            estimate D2E/DX2                !
 ! D6    D(2,1,6,7)            180.0            estimate D2E/DX2                !
 ! D7    D(8,1,6,5)            180.0            estimate D2E/DX2                !
 ! D8    D(8,1,6,7)              0.0            estimate D2E/DX2                !
 ! D9    D(1,2,3,4)              0.0            estimate D2E/DX2                !
 ! D10   D(1,2,3,11)           180.0            estimate D2E/DX2                !
 ! D11   D(10,2,3,4)           180.0            estimate D2E/DX2                !
 ! D12   D(10,2,3,11)            0.0            estimate D2E/DX2                !
 ! D13   D(2,3,4,5)              0.0            estimate D2E/DX2                !
 ! D14   D(2,3,4,9)            180.0            estimate D2E/DX2                !
 ! D15   D(11,3,4,5)           180.0            estimate D2E/DX2                !
 ! D16   D(11,3,4,9)             0.0            estimate D2E/DX2                !
 ! D17   D(3,4,5,6)              0.0            estimate D2E/DX2                !
 ! D18   D(9,4,5,6)            180.0            estimate D2E/DX2                !
 ! D19   D(4,5,6,1)              0.0            estimate D2E/DX2                !
 ! D20   D(4,5,6,7)            180.0            estimate D2E/DX2                !
 --------------------------------------------------------------------------------
 Trust Radius=3.00D-01 FncErr=1.00D-07 GrdErr=1.00D-07 EigMax=2.50D+02 EigMin=1.00D-04
 Number of steps in this run=     57 maximum allowed number of steps=    100.
 GradGradGradGradGradGradGradGradGradGradGradGradGradGradGradGradGradGrad

                          Input orientation:                          
 ---------------------------------------------------------------------
 Center     Atomic      Atomic             Coordinates (Angstroms)
 Number     Number       Type             X           Y           Z
 ---------------------------------------------------------------------
      1          6           0       -3.209280    0.199430    0.000000
      2          6           0       -2.011500    0.935550    0.000000
      3          6           0       -0.775110    0.266300    0.000000
      4          6           0       -0.736500   -1.139070    0.000000
      5          6           0       -1.934290   -1.875190    0.000000
      6          6           0       -3.170670   -1.205940    0.000000
      7         17           0       -4.674830   -2.130350    0.000000
      8          1           0       -4.761930    1.039870    0.000000
      9          1           0        0.816140   -1.979510    0.000000
     10          1           0       -2.059980    2.700400    0.000000
     11          1           0        0.729050    1.190710    0.000000
 ---------------------------------------------------------------------
                    Distance matrix (angstroms):
                    1          2          3          4          5
     1  C    0.000000
     2  C    1.405898   0.000000
     3  C    2.435088   1.405900   0.000000
     4  C    2.811801   2.435092   1.405900   0.000000
     5  C    2.435087   2.811800   2.435093   1.405907   0.000000
     6  C    1.405900   2.435088   2.811796   2.435088   1.405892
     7  Cl   2.752401   4.061166   4.577308   4.061167   2.752393
     8  H    1.765520   2.752408   4.061175   4.577321   4.061173
     9  H    4.577312   4.061173   2.752406   1.765511   2.752408
    10  H    2.752406   1.765516   2.752405   4.061173   4.577316
    11  H    4.061167   2.752403   1.765512   2.752401   4.061173
                    6          7          8          9         10
     6  C    0.000000
     7  Cl   1.765512   0.000000
     8  H    2.752412   3.171416   0.000000
     9  H    4.061165   5.493041   6.342832   0.000000
    10  H    4.061173   5.493049   3.171418   5.493052   0.000000
    11  H    4.577308   6.342819   5.493051   3.171416   3.171412
                   11
    11  H    0.000000
 Stoichiometry    C6H4Cl(1-)
 Framework group  CS[SG(C6H4Cl)]
 Deg. of freedom    19
 Full point group                 CS      NOp   2
 Largest Abelian subgroup         CS      NOp   2
 Largest concise Abelian subgroup C1      NOp   1
                         Standard orientation:                         
 ---------------------------------------------------------------------
 Center     Atomic      Atomic             Coordinates (Angstroms)
 Number     Number       Type             X           Y           Z
 ---------------------------------------------------------------------
      1          6           0        1.092422    0.446591    0.000000
      2          6           0        1.795372   -0.770952    0.000000
      3          6           0        1.092422   -1.988497    0.000000
      4          6           0       -0.313479   -1.988500    0.000000
      5          6           0       -1.016429   -0.770947    0.000000
      6          6           0       -0.313479    0.446588    0.000000
      7         17           0       -1.196234    1.975566    0.000000
      8          1           0        1.975182    1.975576    0.000000
      9          1           0       -1.196239   -3.517475    0.000000
     10          1           0        3.560887   -0.770955    0.000000
     11          1           0        1.975177   -3.517475    0.000000
 ---------------------------------------------------------------------
 Rotational constants (GHZ):           5.3831393           1.4899579           1.1669631
 Standard basis: VSTO-6G (5D, 7F)
 There are    25 symmetry adapted cartesian basis functions of A'  symmetry.
 There are     7 symmetry adapted cartesian basis functions of A"  symmetry.
 There are    25 symmetry adapted basis functions of A'  symmetry.
 There are     7 symmetry adapted basis functions of A"  symmetry.
    32 basis functions,   192 primitive gaussians,    32 cartesian basis functions
    18 alpha electrons       18 beta electrons
       nuclear repulsion energy       147.2898775663 Hartrees.
 Integral buffers will be    131072 words long.
 Regular integral format.
 Two-electron integral symmetry is turned off.
 Do NDO integrals.
 One-electron integrals computed using PRISM.
 NBasis=    32 RedAO= T EigKep=  1.00D+00  NBF=    25     7
 NBsUse=    32 1.00D-06 EigRej= -1.00D+00 NBFU=    25     7
 Simple Huckel Guess.
 Initial guess orbital symmetries:
       Occupied  (A') (A') (A') (A') (A') (A') (A') (A') (A") (A')
                 (A') (A') (A") (A') (A") (A') (A") (A')
       Virtual   (A') (A") (A') (A") (A') (A') (A") (A') (A') (A')
                 (A') (A') (A') (A')
 The electronic state of the initial guess is 1-A'.
 Keep J ints in memory in canonical form, NReq=862079.
 Overlap will be assumed to be unity.
 Requested convergence on RMS density matrix=1.00D-08 within**** cycles.
 Requested convergence on MAX density matrix=1.00D-06.
 Requested convergence on             energy=1.00D-06.
 No special actions if energy rises.
 Fock symm off for IB=2 I1=    1 I=   26 J=   24 Cut=1.00D-07 Err=1.20D-02
 Fock matrix is not symmetric: symmetry in diagonalization turned off.
 SCF Done:  E(RAM1) =  0.551700929790     A.U. after   16 cycles
            NFock= 15  Conv=0.40D-08     -V/T= 1.0080

 **********************************************************************

            Population analysis using the SCF Density.

 **********************************************************************

 Orbital symmetries:
       Occupied  (A') (A') (A') (A') (A') (A') (A') (A') (A") (A')
                 (A") (A') (A') (A') (A') (A") (A") (A')
       Virtual   (A') (A') (A') (A") (A') (A") (A') (A") (A') (A')
                 (A') (A') (A') (A')
 The electronic state is 1-A'.
 Alpha  occ. eigenvalues --   -1.21631  -1.17679  -0.91397  -0.88917  -0.61641
 Alpha  occ. eigenvalues --   -0.59580  -0.41005  -0.38681  -0.33600  -0.31339
 Alpha  occ. eigenvalues --   -0.28166  -0.27317  -0.26408  -0.23944  -0.20466
 Alpha  occ. eigenvalues --   -0.17747  -0.15807  -0.10399
 Alpha virt. eigenvalues --    0.14883   0.16787   0.17528   0.18800   0.20188
 Alpha virt. eigenvalues --    0.20600   0.23011   0.29478   0.34152   0.34578
 Alpha virt. eigenvalues --    0.36578   0.37108   0.38901   0.41561
          Condensed to atoms (all electrons):
               1          2          3          4          5          6
     1  C    4.110510   0.000000   0.000000   0.000000   0.000000   0.000000
     2  C    0.000000   4.187614   0.000000   0.000000   0.000000   0.000000
     3  C    0.000000   0.000000   4.103618   0.000000   0.000000   0.000000
     4  C    0.000000   0.000000   0.000000   4.121649   0.000000   0.000000
     5  C    0.000000   0.000000   0.000000   0.000000   4.360757   0.000000
     6  C    0.000000   0.000000   0.000000   0.000000   0.000000   4.062439
     7  Cl   0.000000   0.000000   0.000000   0.000000   0.000000   0.000000
     8  H    0.000000   0.000000   0.000000   0.000000   0.000000   0.000000
     9  H    0.000000   0.000000   0.000000   0.000000   0.000000   0.000000
    10  H    0.000000   0.000000   0.000000   0.000000   0.000000   0.000000
    11  H    0.000000   0.000000   0.000000   0.000000   0.000000   0.000000
               7          8          9         10         11
     1  C    0.000000   0.000000   0.000000   0.000000   0.000000
     2  C    0.000000   0.000000   0.000000   0.000000   0.000000
     3  C    0.000000   0.000000   0.000000   0.000000   0.000000
     4  C    0.000000   0.000000   0.000000   0.000000   0.000000
     5  C    0.000000   0.000000   0.000000   0.000000   0.000000
     6  C    0.000000   0.000000   0.000000   0.000000   0.000000
     7  Cl   7.142226   0.000000   0.000000   0.000000   0.000000
     8  H    0.000000   0.971216   0.000000   0.000000   0.000000
     9  H    0.000000   0.000000   0.978625   0.000000   0.000000
    10  H    0.000000   0.000000   0.000000   0.963680   0.000000
    11  H    0.000000   0.000000   0.000000   0.000000   0.997668
 Mulliken charges:
               1
     1  C   -0.110510
     2  C   -0.187614
     3  C   -0.103618
     4  C   -0.121649
     5  C   -0.360757
     6  C   -0.062439
     7  Cl  -0.142226
     8  H    0.028784
     9  H    0.021375
    10  H    0.036320
    11  H    0.002332
 Sum of Mulliken charges =  -1.00000
 Mulliken charges with hydrogens summed into heavy atoms:
               1
     1  C   -0.081726
     2  C   -0.151294
     3  C   -0.101286
     4  C   -0.100274
     5  C   -0.360757
     6  C   -0.062439
     7  Cl  -0.142226
 Charge=             -1.0000 electrons
 Dipole moment (field-independent basis, Debye):
    X=              2.6100    Y=              2.3298    Z=              0.0000  Tot=              3.4986
 N-N= 1.472898775663D+02 E-N=-2.072405838614D+02  KE=-6.912130435625D+01
 Symmetry A'   KE=-5.428425724678D+01
 Symmetry A"   KE=-1.483704710947D+01
 Calling FoFJK, ICntrl=      2127 FMM=F ISym2X=1 I1Cent= 0 IOpClX= 0 NMat=1 NMatS=1 NMatT=0.
 ***** Axes restored to original set *****
 -------------------------------------------------------------------
 Center     Atomic                   Forces (Hartrees/Bohr)
 Number     Number              X              Y              Z
 -------------------------------------------------------------------
      1        6          -0.055368390    0.051337070    0.000000000
      2        6          -0.005279075    0.066962150    0.000000000
      3        6           0.063773615    0.031704384    0.000000000
      4        6           0.041709604   -0.015634290   -0.000000000
      5        6           0.017252088    0.015752908    0.000000000
      6        6           0.011805525    0.007711405   -0.000000000
      7       17           0.020413193    0.014744489    0.000000000
      8        1           0.100321826   -0.053314165   -0.000000000
      9        1          -0.100791178    0.054941129   -0.000000000
     10        1           0.003053549   -0.116448022   -0.000000000
     11        1          -0.096890758   -0.057757058   -0.000000000
 -------------------------------------------------------------------
 Cartesian Forces:  Max     0.116448022 RMS     0.046392743

 GradGradGradGradGradGradGradGradGradGradGradGradGradGradGradGradGradGrad
 Berny optimization.
 FormGI is forming the generalized inverse of G from B-inverse, IUseBI=4.
 Internal  Forces:  Max     0.116487960 RMS     0.037330247
 Search for a local minimum.
 Step number   1 out of a maximum of   57
 All quantities printed in internal units (Hartrees-Bohrs-Radians)
 Mixed Optimization -- RFO/linear search
 Second derivative matrix not updated -- first step.
 ITU=  0
     Eigenvalues ---    0.02011   0.02011   0.02011   0.02011   0.02011
     Eigenvalues ---    0.02011   0.02011   0.02011   0.06524   0.06524
     Eigenvalues ---    0.06524   0.06524   0.16000   0.16000   0.16000
     Eigenvalues ---    0.16000   0.22000   0.22408   0.24406   0.25000
     Eigenvalues ---    0.29033   0.40825   0.41341   0.44656   0.44657
     Eigenvalues ---    0.44657   0.44657
 RFO step:  Lambda=-2.10697904D-01 EMin= 2.01067220D-02
 Linear search not attempted -- first point.
 Maximum step size (   0.300) exceeded in Quadratic search.
    -- Step size scaled by   0.353
 Iteration  1 RMS(Cart)=  0.05094665 RMS(Int)=  0.00005750
 Iteration  2 RMS(Cart)=  0.00010438 RMS(Int)=  0.00000864
 Iteration  3 RMS(Cart)=  0.00000001 RMS(Int)=  0.00000864
 ClnCor:  largest displacement from symmetrization is 7.42D-09 for atom     7.
 Variable       Old X    -DE/DX   Delta X   Delta X   Delta X     New X
                                 (Linear)    (Quad)   (Total)
    R1        2.65676  -0.05433   0.00000  -0.02919  -0.02920   2.62757
    R2        2.65677  -0.02881   0.00000  -0.01516  -0.01517   2.64159
    R3        3.33635  -0.11361   0.00000  -0.14540  -0.14540   3.19095
    R4        2.65677  -0.05033   0.00000  -0.02736  -0.02736   2.62941
    R5        3.33634  -0.11649   0.00000  -0.14909  -0.14909   3.18726
    R6        2.65677  -0.04894   0.00000  -0.02662  -0.02660   2.63016
    R7        3.33633  -0.11279   0.00000  -0.14435  -0.14435   3.19198
    R8        2.65678  -0.04509   0.00000  -0.02423  -0.02422   2.63256
    R9        3.33633  -0.11479   0.00000  -0.14691  -0.14691   3.18942
   R10        2.65675  -0.02939   0.00000  -0.01547  -0.01548   2.64127
   R11        3.33633  -0.02511   0.00000  -0.01770  -0.01770   3.31863
    A1        2.09439   0.00134   0.00000   0.00145   0.00142   2.09582
    A2        2.09439  -0.00212   0.00000  -0.00211  -0.00210   2.09230
    A3        2.09440   0.00078   0.00000   0.00066   0.00067   2.09507
    A4        2.09439  -0.00105   0.00000  -0.00151  -0.00152   2.09288
    A5        2.09440   0.00028   0.00000   0.00053   0.00053   2.09493
    A6        2.09439   0.00077   0.00000   0.00099   0.00099   2.09538
    A7        2.09440  -0.00013   0.00000  -0.00127  -0.00125   2.09315
    A8        2.09440  -0.00248   0.00000  -0.00179  -0.00180   2.09260
    A9        2.09439   0.00261   0.00000   0.00306   0.00305   2.09744
   A10        2.09439   0.01649   0.00000   0.01285   0.01287   2.10726
   A11        2.09440  -0.00880   0.00000  -0.00696  -0.00697   2.08743
   A12        2.09440  -0.00768   0.00000  -0.00589  -0.00590   2.08850
   A13        2.09439  -0.02038   0.00000  -0.01516  -0.01515   2.07924
   A14        2.09440   0.00373   0.00000   0.00364   0.00362   2.09802
   A15        2.09439  -0.00499   0.00000  -0.00422  -0.00421   2.09019
   A16        2.09439   0.00126   0.00000   0.00057   0.00058   2.09498
    D1        0.00000  -0.00000   0.00000  -0.00000   0.00000   0.00000
    D2        3.14159  -0.00000   0.00000  -0.00000   0.00000   3.14159
    D3        3.14159   0.00000   0.00000   0.00000   0.00000   3.14159
    D4        0.00000   0.00000   0.00000   0.00000   0.00000   0.00000
    D5        0.00000   0.00000   0.00000   0.00000   0.00000   0.00000
    D6        3.14159   0.00000   0.00000   0.00000   0.00000   3.14159
    D7        3.14159  -0.00000   0.00000  -0.00000   0.00000   3.14159
    D8        0.00000  -0.00000   0.00000  -0.00000   0.00000   0.00000
    D9        0.00000   0.00000   0.00000   0.00000   0.00000   0.00000
   D10        3.14159  -0.00000   0.00000  -0.00000   0.00000   3.14159
   D11        3.14159   0.00000   0.00000   0.00000   0.00000   3.14159
   D12        0.00000   0.00000   0.00000   0.00000   0.00000   0.00000
   D13        0.00000  -0.00000   0.00000  -0.00000   0.00000   0.00000
   D14        3.14159  -0.00000   0.00000  -0.00000   0.00000   3.14159
   D15        3.14159   0.00000   0.00000   0.00000   0.00000   3.14159
   D16        0.00000  -0.00000   0.00000   0.00000   0.00000   0.00000
   D17        0.00000   0.00000   0.00000   0.00000   0.00000   0.00000
   D18        3.14159   0.00000   0.00000   0.00000   0.00000   3.14159
   D19        0.00000  -0.00000   0.00000   0.00000   0.00000   0.00000
   D20        3.14159  -0.00000   0.00000  -0.00000   0.00000   3.14159
         Item               Value     Threshold  Converged?
 Maximum Force            0.116488     0.000450     NO 
 RMS     Force            0.037330     0.000300     NO 
 Maximum Displacement     0.166129     0.001800     NO 
 RMS     Displacement     0.050934     0.001200     NO 
 Predicted change in Energy=-7.075118D-02
 GradGradGradGradGradGradGradGradGradGradGradGradGradGradGradGradGradGrad

                          Input orientation:                          
 ---------------------------------------------------------------------
 Center     Atomic      Atomic             Coordinates (Angstroms)
 Number     Number       Type             X           Y           Z
 ---------------------------------------------------------------------
      1          6           0       -3.190072    0.205203    0.000000
      2          6           0       -2.006040    0.934185    0.000000
      3          6           0       -0.782854    0.270951    0.000000
      4          6           0       -0.747364   -1.120419    0.000000
      5          6           0       -1.926209   -1.862728    0.000000
      6          6           0       -3.152550   -1.192164    0.000000
      7         17           0       -4.653154   -2.104434    0.000000
      8          1           0       -4.674018    1.010936    0.000000
      9          1           0        0.740909   -1.916410    0.000000
     10          1           0       -2.052816    2.620159    0.000000
     11          1           0        0.655268    1.156922    0.000000
 ---------------------------------------------------------------------
                    Distance matrix (angstroms):
                    1          2          3          4          5
     1  C    0.000000
     2  C    1.390448   0.000000
     3  C    2.408115   1.391425   0.000000
     4  C    2.779226   2.409494   1.391822   0.000000
     5  C    2.423569   2.798052   2.420711   1.393089   0.000000
     6  C    1.397872   2.415750   2.784989   2.406256   1.397701
     7  Cl   2.734051   4.029940   4.541109   4.027838   2.737636
     8  H    1.688580   2.669082   3.960901   4.467806   3.975978
     9  H    4.466974   3.958740   2.665784   1.687767   2.667658
    10  H    2.669337   1.686623   2.670503   3.961835   4.484675
    11  H    3.961364   2.670612   1.689124   2.674632   3.972695
                    6          7          8          9         10
     6  C    0.000000
     7  Cl   1.756145   0.000000
     8  H    2.677408   3.115440   0.000000
     9  H    3.960247   5.397339   6.155550   0.000000
    10  H    3.967774   5.392916   3.075760   5.327792   0.000000
    11  H    4.474113   6.230231   5.331286   3.074525   3.078114
                   11
    11  H    0.000000
 Stoichiometry    C6H4Cl(1-)
 Framework group  CS[SG(C6H4Cl)]
 Deg. of freedom    19
 Full point group                 CS      NOp   2
 Largest Abelian subgroup         CS      NOp   2
 Largest concise Abelian subgroup C1      NOp   1
                         Standard orientation:                         
 ---------------------------------------------------------------------
 Center     Atomic      Atomic             Coordinates (Angstroms)
 Number     Number       Type             X           Y           Z
 ---------------------------------------------------------------------
      1          6           0        1.137510   -0.275274    0.000000
      2          6           0        1.005326   -1.659424    0.000000
      3          6           0       -0.261240   -2.235508   -0.000000
      4          6           0       -1.392740   -1.425028   -0.000000
      5          6           0       -1.274316   -0.036981   -0.000000
      6          6           0        0.000000    0.537202    0.000000
      7         17           0        0.176794    2.284425    0.000000
      8          1           0        2.674969    0.422952    0.000000
      9          1           0       -2.925036   -2.132578   -0.000000
     10          1           0        2.378680   -2.638504    0.000000
     11          1           0       -0.421349   -3.917027   -0.000000
 ---------------------------------------------------------------------
 Rotational constants (GHZ):           5.5242024           1.5173510           1.1903842
 Standard basis: VSTO-6G (5D, 7F)
 There are    25 symmetry adapted cartesian basis functions of A'  symmetry.
 There are     7 symmetry adapted cartesian basis functions of A"  symmetry.
 There are    25 symmetry adapted basis functions of A'  symmetry.
 There are     7 symmetry adapted basis functions of A"  symmetry.
    32 basis functions,   192 primitive gaussians,    32 cartesian basis functions
    18 alpha electrons       18 beta electrons
       nuclear repulsion energy       148.3400277965 Hartrees.
 Integral buffers will be    131072 words long.
 Regular integral format.
 Two-electron integral symmetry is turned off.
 Do NDO integrals.
 One-electron integrals computed using PRISM.
 NBasis=    32 RedAO= T EigKep=  1.00D+00  NBF=    25     7
 NBsUse=    32 1.00D-06 EigRej= -1.00D+00 NBFU=    25     7
 Initial guess from the checkpoint file:  "geometry_chks/1_ClBzAnionIntermediate.chk"
 B after Tr=     0.000000    0.000000   -0.000000
         Rot=    0.952269    0.000000    0.000000    0.305260 Ang=  35.55 deg.
 Initial guess orbital symmetries:
       Occupied  (A') (A') (A') (A') (A') (A') (A') (A') (A") (A')
                 (A") (A') (A') (A') (A') (A") (A") (A')
       Virtual   (A') (A') (A') (A") (A') (A") (A') (A") (A') (A')
                 (A') (A') (A') (A')
 Keep J ints in memory in canonical form, NReq=862079.
 Overlap will be assumed to be unity.
 Requested convergence on RMS density matrix=1.00D-08 within**** cycles.
 Requested convergence on MAX density matrix=1.00D-06.
 Requested convergence on             energy=1.00D-06.
 No special actions if energy rises.
 Fock symm off for IB=2 I1=    1 I=   26 J=   23 Cut=1.00D-07 Err=1.28D-03
 Fock matrix is not symmetric: symmetry in diagonalization turned off.
 SCF Done:  E(RAM1) =  0.477468082165     A.U. after   14 cycles
            NFock= 13  Conv=0.31D-08     -V/T= 1.0069
 Calling FoFJK, ICntrl=      2127 FMM=F ISym2X=1 I1Cent= 0 IOpClX= 0 NMat=1 NMatS=1 NMatT=0.
 ***** Axes restored to original set *****
 -------------------------------------------------------------------
 Center     Atomic                   Forces (Hartrees/Bohr)
 Number     Number              X              Y              Z
 -------------------------------------------------------------------
      1        6          -0.078205667    0.055751858    0.000000000
      2        6          -0.005662908    0.092229749    0.000000000
      3        6           0.084435751    0.043699483    0.000000000
      4        6           0.065630969   -0.029718121    0.000000000
      5        6           0.011969875    0.004286461   -0.000000000
      6        6           0.004192377    0.002276584    0.000000000
      7       17           0.015187396    0.011324207    0.000000000
      8        1           0.103845731   -0.055481407   -0.000000000
      9        1          -0.104158677    0.056126440   -0.000000000
     10        1           0.003161593   -0.120320523   -0.000000000
     11        1          -0.100396441   -0.060174733   -0.000000000
 -------------------------------------------------------------------
 Cartesian Forces:  Max     0.120320523 RMS     0.051810998

 GradGradGradGradGradGradGradGradGradGradGradGradGradGradGradGradGradGrad
 Berny optimization.
 Using GEDIIS/GDIIS optimizer.
 FormGI is forming the generalized inverse of G from B-inverse, IUseBI=4.
 Internal  Forces:  Max     0.120361924 RMS     0.035965375
 Search for a local minimum.
 Step number   2 out of a maximum of   57
 All quantities printed in internal units (Hartrees-Bohrs-Radians)
 Mixed Optimization -- RFO/linear search
 Update second derivatives using D2CorX and points    1    2
 DE= -7.42D-02 DEPred=-7.08D-02 R= 1.05D+00
 TightC=F SS=  1.41D+00  RLast= 3.00D-01 DXNew= 5.0454D-01 9.0000D-01
 Trust test= 1.05D+00 RLast= 3.00D-01 DXMaxT set to 5.05D-01
 ITU=  1  0
 Use linear search instead of GDIIS.
 Linear search step of   0.600 exceeds DXMaxT=   0.505 but not scaled.
 Quartic linear search produced a step of  2.00000.
 Iteration  1 RMS(Cart)=  0.07654038 RMS(Int)=  0.02712817
 Iteration  2 RMS(Cart)=  0.02610901 RMS(Int)=  0.00005306
 Iteration  3 RMS(Cart)=  0.00000714 RMS(Int)=  0.00005291
 Iteration  4 RMS(Cart)=  0.00000000 RMS(Int)=  0.00005291
 ClnCor:  largest displacement from symmetrization is 7.39D-09 for atom     8.
 Variable       Old X    -DE/DX   Delta X   Delta X   Delta X     New X
                                 (Linear)    (Quad)   (Total)
    R1        2.62757  -0.03212  -0.05839   0.00000  -0.05845   2.56911
    R2        2.64159  -0.01514  -0.03034   0.00000  -0.03043   2.61116
    R3        3.19095  -0.11773  -0.29079   0.00000  -0.29079   2.90016
    R4        2.62941  -0.02858  -0.05471   0.00000  -0.05468   2.57473
    R5        3.18726  -0.12036  -0.29817   0.00000  -0.29817   2.88909
    R6        2.63016  -0.02932  -0.05321   0.00000  -0.05312   2.57704
    R7        3.19198  -0.11704  -0.28870   0.00000  -0.28870   2.90328
    R8        2.63256  -0.02580  -0.04844   0.00000  -0.04838   2.58417
    R9        3.18942  -0.11832  -0.29383   0.00000  -0.29383   2.89559
   R10        2.64127  -0.01555  -0.03096   0.00000  -0.03099   2.61029
   R11        3.31863  -0.01886  -0.03540   0.00000  -0.03540   3.28323
    A1        2.09582   0.00100   0.00285   0.00000   0.00270   2.09852
    A2        2.09230  -0.00177  -0.00419   0.00000  -0.00412   2.08818
    A3        2.09507   0.00076   0.00134   0.00000   0.00141   2.09648
    A4        2.09288  -0.00112  -0.00304   0.00000  -0.00307   2.08981
    A5        2.09493   0.00028   0.00106   0.00000   0.00107   2.09600
    A6        2.09538   0.00084   0.00198   0.00000   0.00199   2.09738
    A7        2.09315  -0.00080  -0.00250   0.00000  -0.00238   2.09077
    A8        2.09260  -0.00188  -0.00360   0.00000  -0.00365   2.08894
    A9        2.09744   0.00268   0.00609   0.00000   0.00604   2.10348
   A10        2.10726   0.01303   0.02574   0.00000   0.02588   2.13314
   A11        2.08743  -0.00710  -0.01394   0.00000  -0.01401   2.07342
   A12        2.08850  -0.00593  -0.01180   0.00000  -0.01187   2.07663
   A13        2.07924  -0.01550  -0.03030   0.00000  -0.03026   2.04898
   A14        2.09802   0.00338   0.00725   0.00000   0.00713   2.10515
   A15        2.09019  -0.00465  -0.00842   0.00000  -0.00836   2.08183
   A16        2.09498   0.00128   0.00117   0.00000   0.00123   2.09620
    D1       -0.00000   0.00000   0.00000   0.00000   0.00000   0.00000
    D2        3.14159  -0.00000   0.00000   0.00000   0.00000   3.14159
    D3        3.14159   0.00000   0.00000   0.00000   0.00000   3.14159
    D4        0.00000  -0.00000   0.00000   0.00000   0.00000   0.00000
    D5        0.00000  -0.00000   0.00000   0.00000  -0.00000   0.00000
    D6        3.14159   0.00000   0.00000   0.00000   0.00000   3.14159
    D7        3.14159  -0.00000   0.00000   0.00000   0.00000   3.14159
    D8       -0.00000  -0.00000   0.00000   0.00000   0.00000   0.00000
    D9        0.00000   0.00000   0.00000   0.00000   0.00000   0.00000
   D10        3.14159  -0.00000   0.00000   0.00000   0.00000   3.14159
   D11        3.14159   0.00000   0.00000   0.00000   0.00000   3.14159
   D12       -0.00000  -0.00000   0.00000   0.00000   0.00000   0.00000
   D13       -0.00000  -0.00000   0.00000   0.00000   0.00000   0.00000
   D14        3.14159  -0.00000   0.00000   0.00000   0.00000   3.14159
   D15        3.14159   0.00000   0.00000   0.00000   0.00000   3.14159
   D16        0.00000  -0.00000   0.00000   0.00000   0.00000   0.00000
   D17        0.00000  -0.00000   0.00000   0.00000  -0.00000   0.00000
   D18        3.14159   0.00000   0.00000   0.00000   0.00000   3.14159
   D19       -0.00000   0.00000   0.00000   0.00000   0.00000   0.00000
   D20        3.14159  -0.00000   0.00000   0.00000   0.00000   3.14159
         Item               Value     Threshold  Converged?
 Maximum Force            0.120362     0.000450     NO 
 RMS     Force            0.035965     0.000300     NO 
 Maximum Displacement     0.331357     0.001800     NO 
 RMS     Displacement     0.101789     0.001200     NO 
 Predicted change in Energy=-1.464191D-01
 GradGradGradGradGradGradGradGradGradGradGradGradGradGradGradGradGradGrad

                          Input orientation:                          
 ---------------------------------------------------------------------
 Center     Atomic      Atomic             Coordinates (Angstroms)
 Number     Number       Type             X           Y           Z
 ---------------------------------------------------------------------
      1          6           0       -3.151765    0.216972    0.000000
      2          6           0       -1.995252    0.931650    0.000000
      3          6           0       -0.798423    0.280517    0.000000
      4          6           0       -0.768823   -1.082875    0.000000
      5          6           0       -1.909629   -1.836919    0.000000
      6          6           0       -3.116124   -1.164336   -0.000000
      7         17           0       -4.609142   -2.052873   -0.000000
      8          1           0       -4.498672    0.952597   -0.000000
      9          1           0        0.589653   -1.791693    0.000000
     10          1           0       -2.038542    2.459876    0.000000
     11          1           0        0.507819    1.089284    0.000000
 ---------------------------------------------------------------------
                    Distance matrix (angstroms):
                    1          2          3          4          5
     1  C    0.000000
     2  C    1.359517   0.000000
     3  C    2.354200   1.362489   0.000000
     4  C    2.714408   2.358483   1.363713   0.000000
     5  C    2.400285   2.769893   2.391299   1.367486   0.000000
     6  C    1.381767   2.376870   2.731179   2.348714   1.381303
     7  Cl   2.697433   3.967342   4.468366   3.960927   2.708138
     8  H    1.534700   2.503507   3.760789   4.249108   3.805857
     9  H    4.246521   3.754775   2.494154   1.532280   2.499691
    10  H    2.503973   1.528838   2.507489   3.763412   4.298728
    11  H    3.762111   2.508030   1.536350   2.519541   3.795618
                    6          7          8          9         10
     6  C    0.000000
     7  Cl   1.737412   0.000000
     8  H    2.528407   3.007500   0.000000
     9  H    3.758505   5.205352   5.781192   0.000000
    10  H    3.781017   5.193543   2.885156   4.998324   0.000000
    11  H    4.267524   6.004701   5.008356   2.882139   2.891795
                   11
    11  H    0.000000
 Stoichiometry    C6H4Cl(1-)
 Framework group  CS[SG(C6H4Cl)]
 Deg. of freedom    19
 Full point group                 CS      NOp   2
 Largest Abelian subgroup         CS      NOp   2
 Largest concise Abelian subgroup C1      NOp   1
                         Standard orientation:                         
 ---------------------------------------------------------------------
 Center     Atomic      Atomic             Coordinates (Angstroms)
 Number     Number       Type             X           Y           Z
 ---------------------------------------------------------------------
      1          6           0        1.110887   -0.301334    0.000000
      2          6           0        0.962796   -1.652761    0.000000
      3          6           0       -0.286843   -2.195696   -0.000000
      4          6           0       -1.379889   -1.380244   -0.000000
      5          6           0       -1.272495   -0.016981   -0.000000
      6          6           0       -0.000000    0.520378   -0.000000
      7         17           0        0.218053    2.244053    0.000000
      8          1           0        2.519466    0.307934    0.000000
      9          1           0       -2.774452   -2.015125   -0.000000
     10          1           0        2.194213   -2.558830    0.000000
     11          1           0       -0.452875   -3.723048   -0.000000
 ---------------------------------------------------------------------
 Rotational constants (GHZ):           5.8190970           1.5744754           1.2391878
 Standard basis: VSTO-6G (5D, 7F)
 There are    25 symmetry adapted cartesian basis functions of A'  symmetry.
 There are     7 symmetry adapted cartesian basis functions of A"  symmetry.
 There are    25 symmetry adapted basis functions of A'  symmetry.
 There are     7 symmetry adapted basis functions of A"  symmetry.
    32 basis functions,   192 primitive gaussians,    32 cartesian basis functions
    18 alpha electrons       18 beta electrons
       nuclear repulsion energy       150.5498923593 Hartrees.
 Integral buffers will be    131072 words long.
 Regular integral format.
 Two-electron integral symmetry is turned off.
 Do NDO integrals.
 One-electron integrals computed using PRISM.
 NBasis=    32 RedAO= T EigKep=  1.00D+00  NBF=    25     7
 NBsUse=    32 1.00D-06 EigRej= -1.00D+00 NBFU=    25     7
 Initial guess from the checkpoint file:  "geometry_chks/1_ClBzAnionIntermediate.chk"
 B after Tr=    -0.000000   -0.000000   -0.000000
         Rot=    0.999963    0.000000    0.000000    0.008561 Ang=   0.98 deg.
 Initial guess orbital symmetries:
       Occupied  (A') (A') (A') (A') (A') (A') (A') (A') (A") (A')
                 (A") (A') (A') (A') (A') (A") (A") (A')
       Virtual   (A') (A') (A') (A") (A") (A') (A') (A") (A') (A')
                 (A') (A') (A') (A')
 Keep J ints in memory in canonical form, NReq=862079.
 Overlap will be assumed to be unity.
 Requested convergence on RMS density matrix=1.00D-08 within**** cycles.
 Requested convergence on MAX density matrix=1.00D-06.
 Requested convergence on             energy=1.00D-06.
 No special actions if energy rises.
 Fock symm off for IB=2 I1=    1 I=   26 J=   21 Cut=1.00D-07 Err=2.26D-03
 Fock matrix is not symmetric: symmetry in diagonalization turned off.
 SCF Done:  E(RAM1) =  0.335253999549     A.U. after   14 cycles
            NFock= 13  Conv=0.43D-08     -V/T= 1.0048
 Calling FoFJK, ICntrl=      2127 FMM=F ISym2X=1 I1Cent= 0 IOpClX= 0 NMat=1 NMatS=1 NMatT=0.
 ***** Axes restored to original set *****
 -------------------------------------------------------------------
 Center     Atomic                   Forces (Hartrees/Bohr)
 Number     Number              X              Y              Z
 -------------------------------------------------------------------
      1        6          -0.123744754    0.060318265    0.000000000
      2        6          -0.006010424    0.141439340    0.000000000
      3        6           0.124766408    0.067112145    0.000000000
      4        6           0.111508699   -0.058331462    0.000000000
      5        6          -0.000600543   -0.021589368    0.000000000
      6        6          -0.012564518   -0.010785128    0.000000000
      7       17           0.003918278    0.004089983    0.000000000
      8        1           0.103759760   -0.056094477   -0.000000000
      9        1          -0.103619160    0.054479516   -0.000000000
     10        1           0.003146017   -0.119586799   -0.000000000
     11        1          -0.100559761   -0.061052014   -0.000000000
 -------------------------------------------------------------------
 Cartesian Forces:  Max     0.141439340 RMS     0.063111394

 GradGradGradGradGradGradGradGradGradGradGradGradGradGradGradGradGradGrad
 Berny optimization.
 Using GEDIIS/GDIIS optimizer.
 FormGI is forming the generalized inverse of G from B-inverse, IUseBI=4.
 Internal  Forces:  Max     0.119627930 RMS     0.035074491
 Search for a local minimum.
 Step number   3 out of a maximum of   57
 All quantities printed in internal units (Hartrees-Bohrs-Radians)
 Mixed Optimization -- RFO/linear search
 Update second derivatives using D2CorX and points    2    3
 ITU=  0  1  0
 Use linear search instead of GDIIS.
 Linear search step of   1.200 exceeds DXMaxT=   0.505 scaled by   0.841
 Quartic linear search produced a step of  1.68179.
 Iteration  1 RMS(Cart)=  0.09250112 RMS(Int)=  0.08540094
 Iteration  2 RMS(Cart)=  0.05612110 RMS(Int)=  0.02709300
 Iteration  3 RMS(Cart)=  0.02608724 RMS(Int)=  0.00016620
 Iteration  4 RMS(Cart)=  0.00000492 RMS(Int)=  0.00016614
 Iteration  5 RMS(Cart)=  0.00000000 RMS(Int)=  0.00016614
 ClnCor:  largest displacement from symmetrization is 1.32D-08 for atom     8.
 Variable       Old X    -DE/DX   Delta X   Delta X   Delta X     New X
                                 (Linear)    (Quad)   (Total)
    R1        2.56911   0.02014  -0.09830   0.00000  -0.09848   2.47063
    R2        2.61116   0.01572  -0.05118   0.00000  -0.05147   2.55969
    R3        2.90016  -0.11795  -0.48905   0.00000  -0.48905   2.41111
    R4        2.57473   0.02210  -0.09196   0.00000  -0.09185   2.48288
    R5        2.88909  -0.11963  -0.50146   0.00000  -0.50146   2.38762
    R6        2.57704   0.01639  -0.08934   0.00000  -0.08905   2.48800
    R7        2.90328  -0.11764  -0.48554   0.00000  -0.48554   2.41774
    R8        2.58417   0.01749  -0.08137   0.00000  -0.08117   2.50300
    R9        2.89559  -0.11707  -0.49416   0.00000  -0.49416   2.40143
   R10        2.61029   0.01484  -0.05211   0.00000  -0.05223   2.55805
   R11        3.28323  -0.00546  -0.05954   0.00000  -0.05954   3.22370
    A1        2.09852  -0.00001   0.00454   0.00000   0.00409   2.10261
    A2        2.08818  -0.00073  -0.00692   0.00000  -0.00670   2.08148
    A3        2.09648   0.00074   0.00238   0.00000   0.00260   2.09909
    A4        2.08981  -0.00142  -0.00516   0.00000  -0.00523   2.08458
    A5        2.09600   0.00036   0.00180   0.00000   0.00184   2.09784
    A6        2.09738   0.00106   0.00335   0.00000   0.00339   2.10077
    A7        2.09077  -0.00291  -0.00401   0.00000  -0.00363   2.08713
    A8        2.08894  -0.00004  -0.00614   0.00000  -0.00633   2.08261
    A9        2.10348   0.00295   0.01015   0.00000   0.00996   2.11344
   A10        2.13314   0.00446   0.04353   0.00000   0.04396   2.17710
   A11        2.07342  -0.00276  -0.02356   0.00000  -0.02378   2.04964
   A12        2.07663  -0.00170  -0.01996   0.00000  -0.02018   2.05645
   A13        2.04898  -0.00312  -0.05089   0.00000  -0.05079   1.99819
   A14        2.10515   0.00300   0.01199   0.00000   0.01160   2.11675
   A15        2.08183  -0.00398  -0.01405   0.00000  -0.01386   2.06797
   A16        2.09620   0.00098   0.00206   0.00000   0.00226   2.09846
    D1        0.00000   0.00000   0.00000   0.00000  -0.00000   0.00000
    D2        3.14159  -0.00000   0.00000   0.00000   0.00000   3.14159
    D3        3.14159   0.00000   0.00000   0.00000   0.00000   3.14159
    D4       -0.00000   0.00000   0.00000   0.00000   0.00000   0.00000
    D5        0.00000  -0.00000   0.00000   0.00000   0.00000   0.00000
    D6        3.14159   0.00000   0.00000   0.00000   0.00000   3.14159
    D7        3.14159  -0.00000   0.00000   0.00000   0.00000   3.14159
    D8       -0.00000  -0.00000   0.00000   0.00000   0.00000   0.00000
    D9        0.00000   0.00000   0.00000   0.00000   0.00000   0.00000
   D10        3.14159  -0.00000   0.00000   0.00000   0.00000   3.14159
   D11        3.14159   0.00000   0.00000   0.00000   0.00000   3.14159
   D12       -0.00000   0.00000   0.00000   0.00000   0.00000   0.00000
   D13       -0.00000  -0.00000   0.00000   0.00000   0.00000   0.00000
   D14        3.14159  -0.00000   0.00000   0.00000   0.00000   3.14159
   D15        3.14159   0.00000   0.00000   0.00000   0.00000   3.14159
   D16        0.00000  -0.00000   0.00000   0.00000   0.00000   0.00000
   D17        0.00000   0.00000   0.00000   0.00000   0.00000   0.00000
   D18        3.14159   0.00000   0.00000   0.00000   0.00000   3.14159
   D19       -0.00000   0.00000   0.00000   0.00000   0.00000   0.00000
   D20        3.14159  -0.00000   0.00000   0.00000   0.00000   3.14159
         Item               Value     Threshold  Converged?
 Maximum Force            0.119628     0.000450     NO 
 RMS     Force            0.035074     0.000300     NO 
 Maximum Displacement     0.554627     0.001800     NO 
 RMS     Displacement     0.170937     0.001200     NO 
 Predicted change in Energy=-2.056113D-01
 GradGradGradGradGradGradGradGradGradGradGradGradGradGradGradGradGradGrad

                          Input orientation:                          
 ---------------------------------------------------------------------
 Center     Atomic      Atomic             Coordinates (Angstroms)
 Number     Number       Type             X           Y           Z
 ---------------------------------------------------------------------
      1          6           0       -3.087698    0.237428    0.000000
      2          6           0       -1.977549    0.927987    0.000000
      3          6           0       -0.824850    0.297449    0.000000
      4          6           0       -0.804061   -1.018979    0.000000
      5          6           0       -1.880454   -1.790834    0.000000
      6          6           0       -3.054310   -1.116691   -0.000000
      7         17           0       -4.533180   -1.967022   -0.000000
      8          1           0       -4.205176    0.853200   -0.000000
      9          1           0        0.332899   -1.586611    0.000000
     10          1           0       -2.014726    2.190916    0.000000
     11          1           0        0.260204    0.975357    0.000000
 ---------------------------------------------------------------------
                    Distance matrix (angstroms):
                    1          2          3          4          5
     1  C    0.000000
     2  C    1.307403   0.000000
     3  C    2.263644   1.313885   0.000000
     4  C    2.606445   2.273268   1.316592   0.000000
     5  C    2.360357   2.720554   2.339920   1.324531   0.000000
     6  C    1.354530   2.310870   2.640129   2.252369   1.353664
     7  Cl   2.636100   3.861648   4.345060   3.847741   2.658571
     8  H    1.275905   2.228882   3.425706   3.882349   3.520689
     9  H    3.876545   3.414875   2.211348   1.270781   2.222754
    10  H    2.228763   1.263476   2.236297   3.430617   3.984013
    11  H    3.428263   2.238254   1.279415   2.260539   3.497747
                    6          7          8          9         10
     6  C    0.000000
     7  Cl   1.705908   0.000000
     8  H    2.281439   2.839233   0.000000
     9  H    3.419650   4.880926   5.152358   0.000000
    10  H    3.467131   4.861179   2.566624   4.447589   0.000000
    11  H    3.919524   5.624423   4.467050   2.563000   2.579319
                   11
    11  H    0.000000
 Stoichiometry    C6H4Cl(1-)
 Framework group  CS[SG(C6H4Cl)]
 Deg. of freedom    19
 Full point group                 CS      NOp   2
 Largest Abelian subgroup         CS      NOp   2
 Largest concise Abelian subgroup C1      NOp   1
                         Standard orientation:                         
 ---------------------------------------------------------------------
 Center     Atomic      Atomic             Coordinates (Angstroms)
 Number     Number       Type             X           Y           Z
 ---------------------------------------------------------------------
      1          6           0        1.065383   -0.344321    0.000000
      2          6           0        0.890968   -1.640038    0.000000
      3          6           0       -0.329201   -2.127358   -0.000000
      4          6           0       -1.357499   -1.305154   -0.000000
      5          6           0       -1.267263    0.016299   -0.000000
      6          6           0        0.000000    0.492167    0.000000
      7         17           0        0.286001    2.173929    0.000000
      8          1           0        2.251739    0.125243    0.000000
      9          1           0       -2.519141   -1.820394   -0.000000
     10          1           0        1.888449   -2.415540    0.000000
     11          1           0       -0.497391   -3.395669   -0.000000
 ---------------------------------------------------------------------
 Rotational constants (GHZ):           6.3552270           1.6780642           1.3275355
 Standard basis: VSTO-6G (5D, 7F)
 There are    25 symmetry adapted cartesian basis functions of A'  symmetry.
 There are     7 symmetry adapted cartesian basis functions of A"  symmetry.
 There are    25 symmetry adapted basis functions of A'  symmetry.
 There are     7 symmetry adapted basis functions of A"  symmetry.
    32 basis functions,   192 primitive gaussians,    32 cartesian basis functions
    18 alpha electrons       18 beta electrons
       nuclear repulsion energy       154.6564342085 Hartrees.
 Integral buffers will be    131072 words long.
 Regular integral format.
 Two-electron integral symmetry is turned off.
 Do NDO integrals.
 One-electron integrals computed using PRISM.
 NBasis=    32 RedAO= T EigKep=  1.00D+00  NBF=    25     7
 NBsUse=    32 1.00D-06 EigRej= -1.00D+00 NBFU=    25     7
 Initial guess from the checkpoint file:  "geometry_chks/1_ClBzAnionIntermediate.chk"
 B after Tr=     0.000000    0.000000    0.000000
         Rot=    0.999888    0.000000    0.000000    0.014936 Ang=   1.71 deg.
 Initial guess orbital symmetries:
       Occupied  (A') (A') (A') (A') (A') (A') (A') (A') (A') (A")
                 (A') (A") (A') (A') (A') (A") (A") (A')
       Virtual   (A') (A") (A") (A') (A') (A') (A') (A") (A') (A')
                 (A') (A') (A') (A')
 Keep J ints in memory in canonical form, NReq=862079.
 Overlap will be assumed to be unity.
 Requested convergence on RMS density matrix=1.00D-08 within**** cycles.
 Requested convergence on MAX density matrix=1.00D-06.
 Requested convergence on             energy=1.00D-06.
 No special actions if energy rises.
 Fock symm off for IB=2 I1=    1 I=   26 J=   20 Cut=1.00D-07 Err=2.93D-03
 Fock matrix is not symmetric: symmetry in diagonalization turned off.
 SCF Done:  E(RAM1) =  0.164310293054     A.U. after   14 cycles
            NFock= 13  Conv=0.43D-08     -V/T= 1.0023
 Calling FoFJK, ICntrl=      2127 FMM=F ISym2X=1 I1Cent= 0 IOpClX= 0 NMat=1 NMatS=1 NMatT=0.
 ***** Axes restored to original set *****
 -------------------------------------------------------------------
 Center     Atomic                   Forces (Hartrees/Bohr)
 Number     Number              X              Y              Z
 -------------------------------------------------------------------
      1        6          -0.188705495    0.045940371    0.000000000
      2        6          -0.004556161    0.205270265    0.000000000
      3        6           0.178473263    0.097318294    0.000000000
      4        6           0.167443684   -0.102102009    0.000000000
      5        6          -0.029163782   -0.075834892    0.000000000
      6        6          -0.044979848   -0.040713381    0.000000000
      7       17          -0.017571020   -0.009397184   -0.000000000
      8        1           0.066674339   -0.037565156   -0.000000000
      9        1          -0.064051223    0.031860274   -0.000000000
     10        1           0.001861539   -0.073375118   -0.000000000
     11        1          -0.065425297   -0.041401463   -0.000000000
 -------------------------------------------------------------------
 Cartesian Forces:  Max     0.205270265 RMS     0.076415555

 GradGradGradGradGradGradGradGradGradGradGradGradGradGradGradGradGradGrad
 Berny optimization.
 Using GEDIIS/GDIIS optimizer.
 FormGI is forming the generalized inverse of G from B-inverse, IUseBI=4.
 Internal  Forces:  Max     0.136245560 RMS     0.045433136
 Search for a local minimum.
 Step number   4 out of a maximum of   57
 All quantities printed in internal units (Hartrees-Bohrs-Radians)
 Mixed Optimization -- RFO/linear search
 Update second derivatives using D2CorX and points    3    4
 ITU=  0  0  1  0
 Use linear search instead of GDIIS.
     Eigenvalues ---    0.02011   0.02011   0.02011   0.02011   0.02011
     Eigenvalues ---    0.02011   0.02011   0.02011   0.06119   0.06524
     Eigenvalues ---    0.06524   0.06612   0.16000   0.16000   0.16000
     Eigenvalues ---    0.16002   0.21993   0.22470   0.24426   0.24994
     Eigenvalues ---    0.29015   0.40263   0.41390   0.44652   0.44656
     Eigenvalues ---    0.44657   0.75397
 RFO step:  Lambda=-1.88566869D-01 EMin= 2.01067225D-02
 Quartic linear search produced a step of  0.35614.
 Maximum step size (   0.505) exceeded in Quadratic search.
    -- Step size scaled by   0.835
 Iteration  1 RMS(Cart)=  0.04882843 RMS(Int)=  0.04478194
 Iteration  2 RMS(Cart)=  0.04322249 RMS(Int)=  0.00018389
 Iteration  3 RMS(Cart)=  0.00004539 RMS(Int)=  0.00018019
 Iteration  4 RMS(Cart)=  0.00000000 RMS(Int)=  0.00018019
 ClnCor:  largest displacement from symmetrization is 9.58D-09 for atom    11.
 Variable       Old X    -DE/DX   Delta X   Delta X   Delta X     New X
                                 (Linear)    (Quad)   (Total)
    R1        2.47063   0.13625  -0.03507   0.17686   0.14179   2.61242
    R2        2.55969   0.08016  -0.01833   0.10204   0.08345   2.64314
    R3        2.41111  -0.07653  -0.17417  -0.18368  -0.35785   2.05326
    R4        2.48288   0.13294  -0.03271   0.17348   0.14103   2.62391
    R5        2.38762  -0.07340  -0.17859  -0.17301  -0.35160   2.03603
    R6        2.48800   0.11623  -0.03171   0.15165   0.12019   2.60819
    R7        2.41774  -0.07742  -0.17292  -0.18680  -0.35972   2.05803
    R8        2.50300   0.10629  -0.02891   0.13714   0.10825   2.61125
    R9        2.40143  -0.07154  -0.17599  -0.16788  -0.34386   2.05756
   R10        2.55805   0.07448  -0.01860   0.09430   0.07544   2.63349
   R11        3.22370   0.01992  -0.02120   0.03840   0.01720   3.24090
    A1        2.10261  -0.00281   0.00146  -0.00648  -0.00526   2.09736
    A2        2.08148   0.00228  -0.00239   0.00562   0.00336   2.08484
    A3        2.09909   0.00053   0.00093   0.00085   0.00190   2.10099
    A4        2.08458  -0.00303  -0.00186   0.00025  -0.00133   2.08325
    A5        2.09784   0.00116   0.00065  -0.00086  -0.00034   2.09749
    A6        2.10077   0.00187   0.00121   0.00061   0.00167   2.10244
    A7        2.08713  -0.00962  -0.00129  -0.01067  -0.01143   2.07571
    A8        2.08261   0.00535  -0.00225   0.00735   0.00483   2.08744
    A9        2.11344   0.00427   0.00355   0.00332   0.00660   2.12004
   A10        2.17710  -0.01530   0.01566  -0.03091  -0.01498   2.16212
   A11        2.04964   0.00778  -0.00847   0.01586   0.00726   2.05690
   A12        2.05645   0.00753  -0.00719   0.01505   0.00772   2.06417
   A13        1.99819   0.02652  -0.01809   0.04647   0.02801   2.02620
   A14        2.11675   0.00424   0.00413   0.00134   0.00498   2.12173
   A15        2.06797  -0.00311  -0.00494  -0.00169  -0.00637   2.06159
   A16        2.09846  -0.00113   0.00080   0.00034   0.00139   2.09986
    D1        0.00000   0.00000   0.00000   0.00000   0.00000   0.00000
    D2        3.14159  -0.00000   0.00000  -0.00000   0.00000   3.14159
    D3        3.14159   0.00000   0.00000   0.00000   0.00000   3.14159
    D4        0.00000   0.00000   0.00000   0.00000  -0.00000   0.00000
    D5       -0.00000  -0.00000   0.00000  -0.00000   0.00000   0.00000
    D6        3.14159   0.00000   0.00000   0.00000   0.00000   3.14159
    D7        3.14159  -0.00000   0.00000  -0.00000   0.00000   3.14159
    D8       -0.00000  -0.00000   0.00000  -0.00000   0.00000   0.00000
    D9       -0.00000   0.00000   0.00000   0.00000   0.00000   0.00000
   D10        3.14159  -0.00000   0.00000  -0.00000   0.00000   3.14159
   D11        3.14159   0.00000   0.00000   0.00000   0.00000   3.14159
   D12        0.00000  -0.00000   0.00000  -0.00000   0.00000   0.00000
   D13        0.00000  -0.00000   0.00000  -0.00000   0.00000   0.00000
   D14        3.14159  -0.00000   0.00000  -0.00000   0.00000   3.14159
   D15        3.14159   0.00000   0.00000   0.00000   0.00000   3.14159
   D16       -0.00000  -0.00000   0.00000  -0.00000   0.00000   0.00000
   D17       -0.00000   0.00000   0.00000   0.00000   0.00000   0.00000
   D18        3.14159   0.00000   0.00000   0.00000   0.00000   3.14159
   D19        0.00000   0.00000   0.00000   0.00000   0.00000   0.00000
   D20        3.14159  -0.00000   0.00000  -0.00000   0.00000   3.14159
         Item               Value     Threshold  Converged?
 Maximum Force            0.136246     0.000450     NO 
 RMS     Force            0.045433     0.000300     NO 
 Maximum Displacement     0.213516     0.001800     NO 
 RMS     Displacement     0.076671     0.001200     NO 
 Predicted change in Energy=-1.514178D-01
 GradGradGradGradGradGradGradGradGradGradGradGradGradGradGradGradGradGrad

                          Input orientation:                          
 ---------------------------------------------------------------------
 Center     Atomic      Atomic             Coordinates (Angstroms)
 Number     Number       Type             X           Y           Z
 ---------------------------------------------------------------------
      1          6           0       -3.135688    0.277664    0.000000
      2          6           0       -1.966246    1.014906    0.000000
      3          6           0       -0.744962    0.354275    0.000000
      4          6           0       -0.732464   -1.025862    0.000000
      5          6           0       -1.872628   -1.806524    0.000000
      6          6           0       -3.085447   -1.120122   -0.000000
      7         17           0       -4.568001   -1.982268   -0.000000
      8          1           0       -4.092188    0.793098   -0.000000
      9          1           0        0.234792   -1.525798    0.000000
     10          1           0       -2.004801    2.091635    0.000000
     11          1           0        0.178734    0.931197    0.000000
 ---------------------------------------------------------------------
                    Distance matrix (angstroms):
                    1          2          3          4          5
     1  C    0.000000
     2  C    1.382432   0.000000
     3  C    2.391954   1.388513   0.000000
     4  C    2.733984   2.384733   1.380194   0.000000
     5  C    2.437039   2.822982   2.437352   1.381813   0.000000
     6  C    1.398689   2.410592   2.766174   2.354870   1.393584
     7  Cl   2.675596   3.968901   4.480520   3.952980   2.701096
     8  H    1.086537   2.137481   3.375869   3.820518   3.418257
     9  H    3.822645   3.361509   2.120045   1.088816   2.126035
    10  H    2.137615   1.077420   2.146070   3.367140   3.900399
    11  H    3.378240   2.146614   1.089061   2.158788   3.420995
                    6          7          8          9         10
     6  C    0.000000
     7  Cl   1.715010   0.000000
     8  H    2.161929   2.815858   0.000000
     9  H    3.344930   4.824435   4.909178   0.000000
    10  H    3.388685   4.813178   2.458330   4.254597   0.000000
    11  H    3.855229   5.569540   4.273154   2.457635   2.472740
                   11
    11  H    0.000000
 Stoichiometry    C6H4Cl(1-)
 Framework group  CS[SG(C6H4Cl)]
 Deg. of freedom    19
 Full point group                 CS      NOp   2
 Largest Abelian subgroup         CS      NOp   2
 Largest concise Abelian subgroup C1      NOp   1
                         Standard orientation:                         
 ---------------------------------------------------------------------
 Center     Atomic      Atomic             Coordinates (Angstroms)
 Number     Number       Type             X           Y           Z
 ---------------------------------------------------------------------
      1          6           0        1.123758   -0.309582    0.000000
      2          6           0        0.970362   -1.683478    0.000000
      3          6           0       -0.307859   -2.225806   -0.000000
      4          6           0       -1.394277   -1.374553   -0.000000
      5          6           0       -1.293080    0.003549   -0.000000
      6          6           0       -0.000000    0.523183    0.000000
      7         17           0        0.251119    2.219709    0.000000
      8          1           0        2.123313    0.116391    0.000000
      9          1           0       -2.388431   -1.818602   -0.000000
     10          1           0        1.835913   -2.325081    0.000000
     11          1           0       -0.433238   -3.307626   -0.000000
 ---------------------------------------------------------------------
 Rotational constants (GHZ):           6.0561676           1.6018612           1.2667933
 Standard basis: VSTO-6G (5D, 7F)
 There are    25 symmetry adapted cartesian basis functions of A'  symmetry.
 There are     7 symmetry adapted cartesian basis functions of A"  symmetry.
 There are    25 symmetry adapted basis functions of A'  symmetry.
 There are     7 symmetry adapted basis functions of A"  symmetry.
    32 basis functions,   192 primitive gaussians,    32 cartesian basis functions
    18 alpha electrons       18 beta electrons
       nuclear repulsion energy       153.3003760589 Hartrees.
 Integral buffers will be    131072 words long.
 Regular integral format.
 Two-electron integral symmetry is turned off.
 Do NDO integrals.
 One-electron integrals computed using PRISM.
 NBasis=    32 RedAO= T EigKep=  1.00D+00  NBF=    25     7
 NBsUse=    32 1.00D-06 EigRej= -1.00D+00 NBFU=    25     7
 Initial guess from the checkpoint file:  "geometry_chks/1_ClBzAnionIntermediate.chk"
 B after Tr=     0.000000   -0.000000   -0.000000
         Rot=    0.999961   -0.000000   -0.000000   -0.008795 Ang=  -1.01 deg.
 Initial guess orbital symmetries:
       Occupied  (A') (A') (A') (A') (A') (A') (A') (A') (A') (A")
                 (A') (A') (A") (A') (A') (A") (A") (A')
       Virtual   (A") (A") (A') (A') (A') (A') (A') (A") (A') (A')
                 (A') (A') (A') (A')
 Keep J ints in memory in canonical form, NReq=862079.
 Overlap will be assumed to be unity.
 Requested convergence on RMS density matrix=1.00D-08 within**** cycles.
 Requested convergence on MAX density matrix=1.00D-06.
 Requested convergence on             energy=1.00D-06.
 No special actions if energy rises.
 Fock symm off for IB=2 I1=    1 I=   26 J=   15 Cut=1.00D-07 Err=4.10D-03
 Fock matrix is not symmetric: symmetry in diagonalization turned off.
 SCF Done:  E(RAM1) =  0.678522067433E-01 A.U. after   14 cycles
            NFock= 13  Conv=0.73D-08     -V/T= 1.0010
 Calling FoFJK, ICntrl=      2127 FMM=F ISym2X=1 I1Cent= 0 IOpClX= 0 NMat=1 NMatS=1 NMatT=0.
 ***** Axes restored to original set *****
 -------------------------------------------------------------------
 Center     Atomic                   Forces (Hartrees/Bohr)
 Number     Number              X              Y              Z
 -------------------------------------------------------------------
      1        6          -0.015569323   -0.008577481    0.000000000
      2        6           0.001898603    0.001305044    0.000000000
      3        6           0.003450047    0.007422535    0.000000000
      4        6           0.014516372   -0.010543263    0.000000000
      5        6          -0.017525022   -0.007023354    0.000000000
      6        6           0.014268541    0.002365483    0.000000000
      7       17          -0.006573615   -0.003733467    0.000000000
      8        1          -0.008801488    0.005400908   -0.000000000
      9        1           0.008697439   -0.005517429   -0.000000000
     10        1          -0.000865423    0.015010315   -0.000000000
     11        1           0.006503869    0.003890709   -0.000000000
 -------------------------------------------------------------------
 Cartesian Forces:  Max     0.017525022 RMS     0.007445110

 GradGradGradGradGradGradGradGradGradGradGradGradGradGradGradGradGradGrad
 Berny optimization.
 Using GEDIIS/GDIIS optimizer.
 FormGI is forming the generalized inverse of G from B-inverse, IUseBI=4.
 Internal  Forces:  Max     0.020285725 RMS     0.006815164
 Search for a local minimum.
 Step number   5 out of a maximum of   57
 All quantities printed in internal units (Hartrees-Bohrs-Radians)
 Mixed Optimization -- RFO/linear search
 Update second derivatives using D2CorX and points    4    5
 DE= -9.65D-02 DEPred=-1.51D-01 R= 6.37D-01
 TightC=F SS=  1.41D+00  RLast= 7.61D-01 DXNew= 8.4853D-01 2.2844D+00
 Trust test= 6.37D-01 RLast= 7.61D-01 DXMaxT set to 8.49D-01
 ITU=  1  0  0  1  0
 Use linear search instead of GDIIS.
     Eigenvalues ---    0.02011   0.02011   0.02011   0.02011   0.02011
     Eigenvalues ---    0.02011   0.02011   0.02011   0.06520   0.06524
     Eigenvalues ---    0.06528   0.15997   0.16000   0.16000   0.16002
     Eigenvalues ---    0.20166   0.21998   0.22719   0.24516   0.24994
     Eigenvalues ---    0.29007   0.40623   0.41590   0.44653   0.44655
     Eigenvalues ---    0.44668   0.67728
 RFO step:  Lambda=-6.13605145D-03 EMin= 2.01067212D-02
 Quartic linear search produced a step of -0.02081.
 Iteration  1 RMS(Cart)=  0.03033446 RMS(Int)=  0.00013140
 Iteration  2 RMS(Cart)=  0.00016609 RMS(Int)=  0.00002169
 Iteration  3 RMS(Cart)=  0.00000002 RMS(Int)=  0.00002169
 ClnCor:  largest displacement from symmetrization is 5.89D-10 for atom     8.
 Variable       Old X    -DE/DX   Delta X   Delta X   Delta X     New X
                                 (Linear)    (Quad)   (Total)
    R1        2.61242   0.01825  -0.00295   0.03501   0.03202   2.64444
    R2        2.64314   0.00448  -0.00174   0.00688   0.00513   2.64827
    R3        2.05326   0.01031   0.00745   0.04322   0.05067   2.10392
    R4        2.62391   0.01821  -0.00293   0.03638   0.03343   2.65734
    R5        2.03603   0.01503   0.00732   0.09930   0.10661   2.14264
    R6        2.60819   0.02029  -0.00250   0.04160   0.03911   2.64730
    R7        2.05803   0.00758   0.00748   0.00775   0.01524   2.07326
    R8        2.61125   0.01662  -0.00225   0.03427   0.03205   2.64330
    R9        2.05756   0.01026   0.00715   0.03597   0.04312   2.10069
   R10        2.63349   0.00120  -0.00157   0.00083  -0.00072   2.63277
   R11        3.24090   0.00756  -0.00036   0.02369   0.02333   3.26423
    A1        2.09736  -0.00469   0.00011  -0.02125  -0.02120   2.07616
    A2        2.08484   0.00175  -0.00007   0.00635   0.00631   2.09115
    A3        2.10099   0.00294  -0.00004   0.01490   0.01489   2.11588
    A4        2.08325   0.00030   0.00003   0.00403   0.00400   2.08725
    A5        2.09749  -0.00048   0.00001  -0.00402  -0.00398   2.09351
    A6        2.10244   0.00018  -0.00003  -0.00001  -0.00002   2.10242
    A7        2.07571   0.00069   0.00024   0.00976   0.00999   2.08570
    A8        2.08744  -0.00019  -0.00010  -0.00487  -0.00497   2.08247
    A9        2.12004  -0.00049  -0.00014  -0.00488  -0.00502   2.11502
   A10        2.16212  -0.00858   0.00031  -0.02971  -0.02935   2.13277
   A11        2.05690   0.00522  -0.00015   0.01993   0.01976   2.07665
   A12        2.06417   0.00336  -0.00016   0.00978   0.00959   2.07376
   A13        2.02620   0.00458  -0.00058   0.01138   0.01087   2.03708
   A14        2.12173   0.00770  -0.00010   0.02579   0.02569   2.14742
   A15        2.06159  -0.00397   0.00013  -0.01360  -0.01346   2.04813
   A16        2.09986  -0.00372  -0.00003  -0.01219  -0.01222   2.08763
    D1       -0.00000   0.00000   0.00000   0.00000   0.00000   0.00000
    D2        3.14159  -0.00000   0.00000  -0.00000   0.00000   3.14159
    D3        3.14159   0.00000   0.00000   0.00000   0.00000   3.14159
    D4        0.00000   0.00000   0.00000   0.00000  -0.00000   0.00000
    D5       -0.00000  -0.00000   0.00000  -0.00000   0.00000   0.00000
    D6        3.14159   0.00000   0.00000   0.00000   0.00000   3.14159
    D7        3.14159  -0.00000   0.00000  -0.00000   0.00000   3.14159
    D8        0.00000  -0.00000   0.00000  -0.00000   0.00000   0.00000
    D9        0.00000  -0.00000   0.00000  -0.00000  -0.00000   0.00000
   D10        3.14159  -0.00000   0.00000  -0.00000   0.00000   3.14159
   D11        3.14159   0.00000   0.00000   0.00000   0.00000   3.14159
   D12       -0.00000  -0.00000   0.00000  -0.00000   0.00000   0.00000
   D13       -0.00000  -0.00000   0.00000  -0.00000   0.00000   0.00000
   D14        3.14159  -0.00000   0.00000  -0.00000   0.00000   3.14159
   D15        3.14159   0.00000   0.00000   0.00000   0.00000   3.14159
   D16        0.00000  -0.00000   0.00000  -0.00000  -0.00000   0.00000
   D17       -0.00000   0.00000   0.00000   0.00000   0.00000   0.00000
   D18        3.14159   0.00000   0.00000   0.00000   0.00000   3.14159
   D19        0.00000   0.00000   0.00000   0.00000   0.00000   0.00000
   D20        3.14159  -0.00000   0.00000  -0.00000   0.00000   3.14159
         Item               Value     Threshold  Converged?
 Maximum Force            0.020286     0.000450     NO 
 RMS     Force            0.006815     0.000300     NO 
 Maximum Displacement     0.118109     0.001800     NO 
 RMS     Displacement     0.030343     0.001200     NO 
 Predicted change in Energy=-3.268127D-03
 GradGradGradGradGradGradGradGradGradGradGradGradGradGradGradGradGradGrad

                          Input orientation:                          
 ---------------------------------------------------------------------
 Center     Atomic      Atomic             Coordinates (Angstroms)
 Number     Number       Type             X           Y           Z
 ---------------------------------------------------------------------
      1          6           0       -3.158000    0.279558    0.000000
      2          6           0       -1.971201    1.021022    0.000000
      3          6           0       -0.734398    0.351898    0.000000
      4          6           0       -0.707805   -1.048741    0.000000
      5          6           0       -1.877092   -1.816422    0.000000
      6          6           0       -3.083668   -1.119870   -0.000000
      7         17           0       -4.573693   -1.993703   -0.000000
      8          1           0       -4.139289    0.805505   -0.000000
      9          1           0        0.274659   -1.568836    0.000000
     10          1           0       -2.011684    2.154136    0.000000
     11          1           0        0.193272    0.937654    0.000000
 ---------------------------------------------------------------------
                    Distance matrix (angstroms):
                    1          2          3          4          5
     1  C    0.000000
     2  C    1.399379   0.000000
     3  C    2.424682   1.406203   0.000000
     4  C    2.787084   2.424889   1.400892   0.000000
     5  C    2.456392   2.839004   2.450993   1.398773   0.000000
     6  C    1.401402   2.412675   2.772214   2.376927   1.393201
     7  Cl   2.678041   3.982654   4.499115   3.979704   2.702422
     8  H    1.113349   2.178773   3.434973   3.900424   3.462952
     9  H    3.898681   3.428010   2.169659   1.111636   2.165949
    10  H    2.197290   1.133837   2.208964   3.458109   3.972839
    11  H    3.415277   2.166078   1.097124   2.181216   3.445482
                    6          7          8          9         10
     6  C    0.000000
     7  Cl   1.727356   0.000000
     8  H    2.195770   2.832715   0.000000
     9  H    3.388205   4.866932   5.012029   0.000000
    10  H    3.445035   4.875291   2.519029   4.368969   0.000000
    11  H    3.869333   5.596142   4.334575   2.507811   2.518265
                   11
    11  H    0.000000
 Stoichiometry    C6H4Cl(1-)
 Framework group  CS[SG(C6H4Cl)]
 Deg. of freedom    19
 Full point group                 CS      NOp   2
 Largest Abelian subgroup         CS      NOp   2
 Largest concise Abelian subgroup C1      NOp   1
                         Standard orientation:                         
 ---------------------------------------------------------------------
 Center     Atomic      Atomic             Coordinates (Angstroms)
 Number     Number       Type             X           Y           Z
 ---------------------------------------------------------------------
      1          6           0        1.144358   -0.291652    0.000000
      2          6           0        0.990772   -1.682577   -0.000000
      3          6           0       -0.300851   -2.238560   -0.000000
      4          6           0       -1.416573   -1.391411   -0.000000
      5          6           0       -1.294416    0.002019   -0.000000
      6          6           0       -0.000000    0.517281    0.000000
      7         17           0        0.237619    2.228215    0.000000
      8          1           0        2.165263    0.152531    0.000000
      9          1           0       -2.433615   -1.840143   -0.000000
     10          1           0        1.905144   -2.353031   -0.000000
     11          1           0       -0.416048   -3.329620   -0.000000
 ---------------------------------------------------------------------
 Rotational constants (GHZ):           5.8883183           1.5892352           1.2514685
 Standard basis: VSTO-6G (5D, 7F)
 There are    25 symmetry adapted cartesian basis functions of A'  symmetry.
 There are     7 symmetry adapted cartesian basis functions of A"  symmetry.
 There are    25 symmetry adapted basis functions of A'  symmetry.
 There are     7 symmetry adapted basis functions of A"  symmetry.
    32 basis functions,   192 primitive gaussians,    32 cartesian basis functions
    18 alpha electrons       18 beta electrons
       nuclear repulsion energy       152.4422145344 Hartrees.
 Integral buffers will be    131072 words long.
 Regular integral format.
 Two-electron integral symmetry is turned off.
 Do NDO integrals.
 One-electron integrals computed using PRISM.
 NBasis=    32 RedAO= T EigKep=  1.00D+00  NBF=    25     7
 NBsUse=    32 1.00D-06 EigRej= -1.00D+00 NBFU=    25     7
 Initial guess from the checkpoint file:  "geometry_chks/1_ClBzAnionIntermediate.chk"
 B after Tr=     0.000000    0.000000    0.000000
         Rot=    0.999996    0.000000    0.000000   -0.002830 Ang=  -0.32 deg.
 Initial guess orbital symmetries:
       Occupied  (A') (A') (A') (A') (A') (A') (A') (A') (A') (A')
                 (A") (A') (A") (A') (A') (A") (A") (A')
       Virtual   (A") (A") (A') (A") (A') (A') (A') (A') (A') (A')
                 (A') (A') (A') (A')
 Keep J ints in memory in canonical form, NReq=862079.
[...]
 Requested convergence on             energy=1.00D-06.
 No special actions if energy rises.
 An orbital has undefined symmetry, so N**3 symmetry is turned off.
 SCF Done:  E(RAM1) =  0.656625640761E-01 A.U. after   10 cycles
            NFock=  9  Conv=0.58D-08     -V/T= 1.0009
 Calling FoFJK, ICntrl=      2127 FMM=F ISym2X=1 I1Cent= 0 IOpClX= 0 NMat=1 NMatS=1 NMatT=0.
 ***** Axes restored to original set *****
 -------------------------------------------------------------------
 Center     Atomic                   Forces (Hartrees/Bohr)
 Number     Number              X              Y              Z
 -------------------------------------------------------------------
      1        6          -0.000103096    0.000092033    0.000000000
      2        6           0.000056812    0.000023004    0.000000000
      3        6          -0.000021195   -0.000013781    0.000000000
      4        6          -0.000035000    0.000065654   -0.000000000
      5        6           0.000041382   -0.000036366   -0.000000000
      6        6           0.000048547   -0.000034891    0.000000000
      7       17          -0.000065720   -0.000021552   -0.000000000
      8        1           0.000078532   -0.000028900   -0.000000000
      9        1           0.000014728    0.000005349   -0.000000000
     10        1           0.000000664   -0.000033775   -0.000000000
     11        1          -0.000015656   -0.000016775   -0.000000000
 -------------------------------------------------------------------
 Cartesian Forces:  Max     0.000103096 RMS     0.000038667

 GradGradGradGradGradGradGradGradGradGradGradGradGradGradGradGradGradGrad
 Berny optimization.
 Using GEDIIS/GDIIS optimizer.
 FormGI is forming the generalized inverse of G from B-inverse, IUseBI=4.
 Internal  Forces:  Max     0.000082823 RMS     0.000024946
 Search for a local minimum.
 Step number  11 out of a maximum of   57
 All quantities printed in internal units (Hartrees-Bohrs-Radians)
 Mixed Optimization -- En-DIIS/RFO-DIIS
 Update second derivatives using D2CorX and points    5    7    6    8   10
                                                      9   11
 DE= -1.71D-05 DEPred=-1.56D-05 R= 1.10D+00
 TightC=F SS=  1.41D+00  RLast= 9.67D-03 DXNew= 3.5676D-01 2.9005D-02
 Trust test= 1.10D+00 RLast= 9.67D-03 DXMaxT set to 2.12D-01
 ITU=  1 -1  1  0 -1  0  1  0  0  1  0
 Use linear search instead of GDIIS.
     Eigenvalues ---    0.02011   0.02011   0.02011   0.02011   0.02011
     Eigenvalues ---    0.02011   0.02011   0.02011   0.06532   0.15262
     Eigenvalues ---    0.15987   0.16000   0.16016   0.17705   0.21620
     Eigenvalues ---    0.23821   0.24878   0.27361   0.34112   0.34821
     Eigenvalues ---    0.36921   0.42424   0.43313   0.44653   0.45088
     Eigenvalues ---    0.45813   0.78878
 RFO step:  Lambda=-1.38001261D-07 EMin= 2.01067249D-02
 Quartic linear search produced a step of  0.00090.
 Iteration  1 RMS(Cart)=  0.00015668 RMS(Int)=  0.00000001
 Iteration  2 RMS(Cart)=  0.00000001 RMS(Int)=  0.00000000
 ClnCor:  largest displacement from symmetrization is 1.37D-13 for atom     7.
 Variable       Old X    -DE/DX   Delta X   Delta X   Delta X     New X
                                 (Linear)    (Quad)   (Total)
    R1        2.63831   0.00001  -0.00000   0.00004   0.00004   2.63836
    R2        2.64193   0.00007  -0.00000   0.00016   0.00016   2.64209
    R3        2.07557  -0.00008  -0.00000  -0.00082  -0.00082   2.07475
    R4        2.64268  -0.00005   0.00000  -0.00011  -0.00011   2.64257
    R5        2.07339  -0.00003   0.00000  -0.00005  -0.00004   2.07334
    R6        2.63612  -0.00005  -0.00000  -0.00010  -0.00010   2.63602
    R7        2.07747  -0.00002   0.00001  -0.00007  -0.00007   2.07740
    R8        2.63655   0.00001  -0.00000   0.00002   0.00002   2.63657
    R9        2.07738   0.00001  -0.00000   0.00060   0.00059   2.07797
   R10        2.62064   0.00003   0.00000   0.00007   0.00007   2.62071
   R11        3.28188   0.00007  -0.00000   0.00027   0.00027   3.28215
    A1        2.06335  -0.00001   0.00000  -0.00004  -0.00004   2.06331
    A2        2.09227  -0.00001  -0.00000  -0.00007  -0.00007   2.09220
    A3        2.12757   0.00002  -0.00000   0.00010   0.00010   2.12767
    A4        2.09083   0.00000  -0.00000  -0.00001  -0.00001   2.09082
    A5        2.09275  -0.00000   0.00000   0.00000   0.00000   2.09275
    A6        2.09960   0.00000   0.00000   0.00001   0.00001   2.09962
    A7        2.09261   0.00002  -0.00000   0.00005   0.00005   2.09266
    A8        2.07956  -0.00000   0.00000   0.00001   0.00001   2.07958
    A9        2.11101  -0.00002   0.00000  -0.00007  -0.00007   2.11095
   A10        2.12635   0.00003   0.00000   0.00008   0.00008   2.12643
   A11        2.08010  -0.00003  -0.00000  -0.00011  -0.00011   2.07999
   A12        2.07674  -0.00000  -0.00000   0.00003   0.00003   2.07676
   A13        2.03487  -0.00003  -0.00000  -0.00010  -0.00010   2.03477
   A14        2.15836  -0.00001  -0.00000   0.00001   0.00001   2.15837
   A15        2.04142  -0.00002  -0.00000  -0.00011  -0.00011   2.04131
   A16        2.08341   0.00003   0.00000   0.00009   0.00009   2.08350
    D1       -0.00000   0.00000   0.00000   0.00000   0.00000   0.00000
    D2        3.14159  -0.00000   0.00000  -0.00000   0.00000   3.14159
    D3        3.14159   0.00000   0.00000   0.00000   0.00000   3.14159
    D4       -0.00000   0.00000   0.00000   0.00000   0.00000   0.00000
    D5       -0.00000  -0.00000   0.00000  -0.00000   0.00000   0.00000
    D6        3.14159   0.00000   0.00000   0.00000   0.00000   3.14159
    D7        3.14159  -0.00000   0.00000  -0.00000   0.00000   3.14159
    D8       -0.00000   0.00000   0.00000   0.00000   0.00000   0.00000
    D9        0.00000  -0.00000   0.00000  -0.00000  -0.00000   0.00000
   D10        3.14159  -0.00000   0.00000  -0.00000   0.00000   3.14159
   D11        3.14159   0.00000   0.00000   0.00000   0.00000   3.14159
   D12        0.00000   0.00000   0.00000   0.00000   0.00000   0.00000
   D13        0.00000  -0.00000   0.00000  -0.00000   0.00000   0.00000
   D14        3.14159  -0.00000   0.00000  -0.00000   0.00000   3.14159
   D15        3.14159   0.00000   0.00000   0.00000   0.00000   3.14159
   D16       -0.00000   0.00000   0.00000   0.00000   0.00000   0.00000
   D17       -0.00000   0.00000   0.00000   0.00000   0.00000   0.00000
   D18        3.14159   0.00000   0.00000   0.00000   0.00000   3.14159
   D19        0.00000   0.00000   0.00000   0.00000   0.00000   0.00000
   D20        3.14159  -0.00000   0.00000  -0.00000   0.00000   3.14159
         Item               Value     Threshold  Converged?
 Maximum Force            0.000083     0.000450     YES
 RMS     Force            0.000025     0.000300     YES
 Maximum Displacement     0.000691     0.001800     YES
 RMS     Displacement     0.000157     0.001200     YES
 Predicted change in Energy=-6.901423D-08
 Optimization completed.
    -- Stationary point found.
                           ----------------------------
                           !   Optimized Parameters   !
                           ! (Angstroms and Degrees)  !
 --------------------------                            --------------------------
 ! Name  Definition              Value          Derivative Info.                !
 --------------------------------------------------------------------------------
 ! R1    R(1,2)                  1.3961         -DE/DX =    0.0                 !
 ! R2    R(1,6)                  1.398          -DE/DX =    0.0001              !
 ! R3    R(1,8)                  1.0983         -DE/DX =   -0.0001              !
 ! R4    R(2,3)                  1.3984         -DE/DX =   -0.0001              !
 ! R5    R(2,10)                 1.0972         -DE/DX =    0.0                 !
 ! R6    R(3,4)                  1.395          -DE/DX =    0.0                 !
 ! R7    R(3,11)                 1.0994         -DE/DX =    0.0                 !
 ! R8    R(4,5)                  1.3952         -DE/DX =    0.0                 !
 ! R9    R(4,9)                  1.0993         -DE/DX =    0.0                 !
 ! R10   R(5,6)                  1.3868         -DE/DX =    0.0                 !
 ! R11   R(6,7)                  1.7367         -DE/DX =    0.0001              !
 ! A1    A(2,1,6)              118.2212         -DE/DX =    0.0                 !
 ! A2    A(2,1,8)              119.8782         -DE/DX =    0.0                 !
 ! A3    A(6,1,8)              121.9006         -DE/DX =    0.0                 !
 ! A4    A(1,2,3)              119.7957         -DE/DX =    0.0                 !
 ! A5    A(1,2,10)             119.9058         -DE/DX =    0.0                 !
 ! A6    A(3,2,10)             120.2985         -DE/DX =    0.0                 !
 ! A7    A(2,3,4)              119.8977         -DE/DX =    0.0                 !
 ! A8    A(2,3,11)             119.1502         -DE/DX =    0.0                 !
 ! A9    A(4,3,11)             120.9521         -DE/DX =    0.0                 !
 ! A10   A(3,4,5)              121.8309         -DE/DX =    0.0                 !
 ! A11   A(3,4,9)              119.1809         -DE/DX =    0.0                 !
 ! A12   A(5,4,9)              118.9882         -DE/DX =    0.0                 !
 ! A13   A(4,5,6)              116.5897         -DE/DX =    0.0                 !
 ! A14   A(1,6,5)              123.6649         -DE/DX =    0.0                 !
 ! A15   A(1,6,7)              116.9648         -DE/DX =    0.0                 !
 ! A16   A(5,6,7)              119.3704         -DE/DX =    0.0                 !
 ! D1    D(6,1,2,3)              0.0            -DE/DX =    0.0                 !
 ! D2    D(6,1,2,10)           180.0            -DE/DX =    0.0                 !
 ! D3    D(8,1,2,3)            180.0            -DE/DX =    0.0                 !
 ! D4    D(8,1,2,10)             0.0            -DE/DX =    0.0                 !
 ! D5    D(2,1,6,5)              0.0            -DE/DX =    0.0                 !
 ! D6    D(2,1,6,7)            180.0            -DE/DX =    0.0                 !
 ! D7    D(8,1,6,5)            180.0            -DE/DX =    0.0                 !
 ! D8    D(8,1,6,7)              0.0            -DE/DX =    0.0                 !
 ! D9    D(1,2,3,4)              0.0            -DE/DX =    0.0                 !
 ! D10   D(1,2,3,11)           180.0            -DE/DX =    0.0                 !
 ! D11   D(10,2,3,4)           180.0            -DE/DX =    0.0                 !
 ! D12   D(10,2,3,11)            0.0            -DE/DX =    0.0                 !
 ! D13   D(2,3,4,5)              0.0            -DE/DX =    0.0                 !
 ! D14   D(2,3,4,9)            180.0            -DE/DX =    0.0                 !
 ! D15   D(11,3,4,5)           180.0            -DE/DX =    0.0                 !
 ! D16   D(11,3,4,9)             0.0            -DE/DX =    0.0                 !
 ! D17   D(3,4,5,6)              0.0            -DE/DX =    0.0                 !
 ! D18   D(9,4,5,6)            180.0            -DE/DX =    0.0                 !
 ! D19   D(4,5,6,1)              0.0            -DE/DX =    0.0                 !
 ! D20   D(4,5,6,7)            180.0            -DE/DX =    0.0                 !
 --------------------------------------------------------------------------------
 GradGradGradGradGradGradGradGradGradGradGradGradGradGradGradGradGradGrad

                          Input orientation:                          
 ---------------------------------------------------------------------
 Center     Atomic      Atomic             Coordinates (Angstroms)
 Number     Number       Type             X           Y           Z
 ---------------------------------------------------------------------
      1          6           0       -3.159720    0.284229    0.000000
      2          6           0       -1.971933    1.017957    0.000000
      3          6           0       -0.742952    0.350686    0.000000
      4          6           0       -0.708916   -1.043872    0.000000
      5          6           0       -1.875984   -1.808423    0.000000
      6          6           0       -3.074772   -1.111235   -0.000000
      7         17           0       -4.571955   -1.991325   -0.000000
      8          1           0       -4.125721    0.806915   -0.000000
      9          1           0        0.263657   -1.556280    0.000000
     10          1           0       -2.006375    2.114606    0.000000
     11          1           0        0.185772    0.938941    0.000000
 ---------------------------------------------------------------------
                    Distance matrix (angstroms):
                    1          2          3          4          5
     1  C    0.000000
     2  C    1.396136   0.000000
     3  C    2.417682   1.398444   0.000000
     4  C    2.787525   2.417922   1.394973   0.000000
     5  C    2.455030   2.828007   2.438342   1.395201   0.000000
     6  C    1.398047   2.397855   2.752199   2.366815   1.386782
     7  Cl   2.678162   3.976919   4.488460   3.977528   2.702168
     8  H    1.098344   2.164103   3.413396   3.885868   3.449828
     9  H    3.886771   3.409481   2.156335   1.099300   2.154447
    10  H    2.163443   1.097190   2.169713   3.414584   3.925195
    11  H    3.408954   2.159152   1.099351   2.175319   3.434944
                    6          7          8          9         10
     6  C    0.000000
     7  Cl   1.736696   0.000000
     8  H    2.187189   2.833597   0.000000
     9  H    3.367963   4.855142   4.985111   0.000000
    10  H    3.398165   4.841577   2.490318   4.316069   0.000000
    11  H    3.851541   5.587703   4.313514   2.496436   2.487509
                   11
    11  H    0.000000
 Stoichiometry    C6H4Cl(1-)
 Framework group  CS[SG(C6H4Cl)]
 Deg. of freedom    19
 Full point group                 CS      NOp   2
 Largest Abelian subgroup         CS      NOp   2
 Largest concise Abelian subgroup C1      NOp   1
                         Standard orientation:                         
 ---------------------------------------------------------------------
 Center     Atomic      Atomic             Coordinates (Angstroms)
 Number     Number       Type             X           Y           Z
 ---------------------------------------------------------------------
      1          6           0        1.146911   -0.292666   -0.000000
      2          6           0        0.985057   -1.679388   -0.000000
      3          6           0       -0.300894   -2.228911    0.000000
      4          6           0       -1.415498   -1.390097    0.000000
      5          6           0       -1.290670   -0.000492    0.000000
      6          6           0        0.000000    0.506790   -0.000000
      7         17           0        0.239111    2.226947   -0.000000
      8          1           0        2.156280    0.140386   -0.000000
      9          1           0       -2.420886   -1.834682    0.000000
     10          1           0        1.866321   -2.332993   -0.000000
     11          1           0       -0.416033   -3.322216    0.000000
 ---------------------------------------------------------------------
 Rotational constants (GHZ):           5.9238754           1.5947499           1.2564929

 **********************************************************************

            Population analysis using the SCF Density.

 **********************************************************************

 Orbital symmetries:
       Occupied  (A') (A') (A') (A') (A') (A') (A') (A') (A') (A')
                 (A") (A') (A") (A') (A') (A") (A") (A')
       Virtual   (A") (A") (A') (A') (A") (A') (A') (A') (A') (A')
                 (A') (A') (A') (A')
 The electronic state is 1-A'.
 Alpha  occ. eigenvalues --   -1.24308  -1.17830  -0.95889  -0.92822  -0.65858
 Alpha  occ. eigenvalues --   -0.63984  -0.47015  -0.40516  -0.38440  -0.34955
 Alpha  occ. eigenvalues --   -0.33074  -0.31131  -0.27413  -0.27059  -0.24339
 Alpha  occ. eigenvalues --   -0.16996  -0.14640  -0.09494
 Alpha virt. eigenvalues --    0.19940   0.21671   0.24265   0.31022   0.31152
 Alpha virt. eigenvalues --    0.31830   0.32410   0.34439   0.36617   0.36798
 Alpha virt. eigenvalues --    0.37992   0.38913   0.41978   0.43214
          Condensed to atoms (all electrons):
               1          2          3          4          5          6
     1  C    4.158048   0.000000   0.000000   0.000000   0.000000   0.000000
     2  C    0.000000   4.222442   0.000000   0.000000   0.000000   0.000000
     3  C    0.000000   0.000000   4.168995   0.000000   0.000000   0.000000
     4  C    0.000000   0.000000   0.000000   4.155693   0.000000   0.000000
     5  C    0.000000   0.000000   0.000000   0.000000   4.383772   0.000000
     6  C    0.000000   0.000000   0.000000   0.000000   0.000000   4.063694
     7  Cl   0.000000   0.000000   0.000000   0.000000   0.000000   0.000000
     8  H    0.000000   0.000000   0.000000   0.000000   0.000000   0.000000
     9  H    0.000000   0.000000   0.000000   0.000000   0.000000   0.000000
    10  H    0.000000   0.000000   0.000000   0.000000   0.000000   0.000000
    11  H    0.000000   0.000000   0.000000   0.000000   0.000000   0.000000
               7          8          9         10         11
     1  C    0.000000   0.000000   0.000000   0.000000   0.000000
     2  C    0.000000   0.000000   0.000000   0.000000   0.000000
     3  C    0.000000   0.000000   0.000000   0.000000   0.000000
     4  C    0.000000   0.000000   0.000000   0.000000   0.000000
     5  C    0.000000   0.000000   0.000000   0.000000   0.000000
     6  C    0.000000   0.000000   0.000000   0.000000   0.000000
     7  Cl   7.165861   0.000000   0.000000   0.000000   0.000000
     8  H    0.000000   0.911911   0.000000   0.000000   0.000000
     9  H    0.000000   0.000000   0.919668   0.000000   0.000000
    10  H    0.000000   0.000000   0.000000   0.921314   0.000000
    11  H    0.000000   0.000000   0.000000   0.000000   0.928602
 Mulliken charges:
               1
     1  C   -0.158048
     2  C   -0.222442
     3  C   -0.168995
     4  C   -0.155693
     5  C   -0.383772
     6  C   -0.063694
     7  Cl  -0.165861
     8  H    0.088089
     9  H    0.080332
    10  H    0.078686
    11  H    0.071398
 Sum of Mulliken charges =  -1.00000
 Mulliken charges with hydrogens summed into heavy atoms:
               1
     1  C   -0.069959
     2  C   -0.143756
     3  C   -0.097597
     4  C   -0.075361
     5  C   -0.383772
     6  C   -0.063694
     7  Cl  -0.165861
 Charge=             -1.0000 electrons
 Dipole moment (field-independent basis, Debye):
    X=              3.8216    Y=             -0.8572    Z=              0.0000  Tot=              3.9165
 N-N= 1.527429867967D+02 E-N=-2.170470954875D+02  KE=-7.019227689364D+01
 Symmetry A'   KE=-5.535037811205D+01
 Symmetry A"   KE=-1.484189878159D+01
 1\1\GINC-SH03-01N67\FOpt\RAM1\ZDO\C6H4Cl1(1-)\JLAPIER\08-Dec-2025\0\\#
  opt am1 SCF(maxcyc=10000)\\Anion Intermediate (removed 4) 1_\\-1,1\C,
 -3.1597204633,0.2842291517,0.\C,-1.971933135,1.017956699,0.\C,-0.74295
 17794,0.350685848,0.\C,-0.7089162766,-1.0438719969,0.\C,-1.8759840737,
 -1.8084225296,0.\C,-3.0747723197,-1.111234795,0.\Cl,-4.5719547526,-1.9
 913247279,0.\H,-4.1257212206,0.8069154917,0.\H,0.2636572987,-1.5562799
 326,0.\H,-2.0063754404,2.1146062669,0.\H,0.1857721627,0.9389405247,0.\
 \Version=ES64L-G16RevB.01\State=1-A'\HF=0.0656626\RMSD=5.835e-09\RMSF=
 3.867e-05\Dipole=-0.668696,1.3882194,0.\PG=CS [SG(C6H4Cl1)]\\@


 Democracy is the recurrent suspicion that more than half of the people
 are right more than half of the time.
 -- E. B. White
 Job cpu time:       0 days  0 hours  0 minutes  4.2 seconds.
 Elapsed time:       0 days  0 hours  0 minutes 23.5 seconds.
 File lengths (MBytes):  RWF=     10 Int=      0 D2E=      0 Chk=      2 Scr=      1
 Normal termination of Gaussian 16 at Mon Dec  8 17:08:56 2025.
