 Entering Gaussian System, Link 0=g16
 Initial command:
 /share/software/user/restricted/gaussian/g16.B01/l1.exe "/home/users/jlapier/Chloroaromatics/Gau-243561.inp" -scrdir="/home/users/jlapier/Chloroaromatics/"
 Entering Link 1 = /share/software/user/restricted/gaussian/g16.B01/l1.exe PID=    243562.
  
 Copyright (c) 1988-2017, Gaussian, Inc.  All Rights Reserved.
  
 This is part of the Gaussian(R) 16 program.  It is based on
 the Gaussian(R) 09 system (copyright 2009, Gaussian, Inc.),
 the Gaussian(R) 03 system (copyright 2003, Gaussian, Inc.),
 the Gaussian(R) 98 system (copyright 1998, Gaussian, Inc.),
 the Gaussian(R) 94 system (copyright 1995, Gaussian, Inc.),
 the Gaussian 92(TM) system (copyright 1992, Gaussian, Inc.),
 the Gaussian 90(TM) system (copyright 1990, Gaussian, Inc.),
 the Gaussian 88(TM) system (copyright 1988, Gaussian, Inc.),
 the Gaussian 86(TM) system (copyright 1986, Carnegie Mellon
 University), and the Gaussian 82(TM) system (copyright 1983,
 Carnegie Mellon University). Gaussian is a federally registered
 trademark of Gaussian, Inc.
  
 This software contains proprietary and confidential information,
 including trade secrets, belonging to Gaussian, Inc.
  
 This software is provided under written license and may be
 used, copied, transmitted, or stored only in accord with that
 written license.
  
 The following legend is applicable only to US Government
 contracts under FAR:
  
                    RESTRICTED RIGHTS LEGEND
  
 Use, reproduction and disclosure by the US Government is
 subject to restrictions as set forth in subparagraphs (a)
 and (c) of the Commercial Computer Software - Restricted
 Rights clause in FAR 52.227-19.
  
 Gaussian, Inc.
 340 Quinnipiac St., Bldg. 40, Wallingford CT 06492
  
  
 ---------------------------------------------------------------
 Warning -- This program may not be used in any manner that
 competes with the business of Gaussian, Inc. or will provide
 assistance to any competitor of Gaussian, Inc.  The licensee
 of this program is prohibited from giving any competitor of
 Gaussian, Inc. access to this program.  By using this program,
 the user acknowledges that Gaussian, Inc. is engaged in the
 business of creating and licensing software in the field of
 computational chemistry and represents and warrants to the
 licensee that it is not a competitor of Gaussian, Inc. and that
 it will not use this program in any manner prohibited above.
 ---------------------------------------------------------------
  

 Cite this work as:
 Gaussian 16, Revision B.01,
 M. J. Frisch, G. W. Trucks, H. B. Schlegel, G. E. Scuseria, 
 M. A. Robb, J. R. Cheeseman, G. Scalmani, V. Barone, 
 G. A. Petersson, H. Nakatsuji, X. Li, M. Caricato, A. V. Marenich, 
 J. Bloino, B. G. Janesko, R. Gomperts, B. Mennucci, H. P. Hratchian, 
 J. V. Ortiz, A. F. Izmaylov, J. L. Sonnenberg, D. Williams-Young, 
 F. Ding, F. Lipparini, F. Egidi, J. Goings, B. Peng, A. Petrone, 
 T. Henderson, D. Ranasinghe, V. G. Zakrzewski, J. Gao, N. Rega, 
 G. Zheng, W. Liang, M. Hada, M. Ehara, K. Toyota, R. Fukuda, 
 J. Hasegawa, M. Ishida, T. Nakajima, Y. Honda, O. Kitao, H. Nakai, 
 T. Vreven, K. Throssell, J. A. Montgomery, Jr., J. E. Peralta, 
 F. Ogliaro, M. J. Bearpark, J. J. Heyd, E. N. Brothers, K. N. Kudin, 
 V. N. Staroverov, T. A. Keith, R. Kobayashi, J. Normand, 
 K. Raghavachari, A. P. Rendell, J. C. Burant, S. S. Iyengar, 
 J. Tomasi, M. Cossi, J. M. Millam, M. Klene, C. Adamo, R. Cammi, 
 J. W. Ochterski, R. L. Martin, K. Morokuma, O. Farkas, 
 J. B. Foresman, and D. J. Fox, Gaussian, Inc., Wallingford CT, 2016.
 
 ******************************************
 Gaussian 16:  ES64L-G16RevB.01 20-Dec-2017
                 8-Dec-2025 
 ******************************************
 %mem=2GB
 %nprocshare=1
 Will use up to    1 processors via shared memory.
 %chk=geometry_chks/1_ClBzNeutralRadical.chk
 ------------------
 # opt am1 pop=None
 ------------------
 1/18=20,19=15,26=1,38=1/1,3;
 2/9=110,12=2,17=6,18=5,40=1/2;
 3/5=2,25=1,41=700000,71=1/1,2,3;
 4/35=1/1;
 5/5=2,35=1,38=5/2;
 7//1,2,3,16;
 1/18=20,19=15,26=1/3(2);
 2/9=110/2;
 99//99;
 2/9=110/2;
 3/5=2,25=1,41=700000,71=1,135=20/1,2,3;
 4/5=5,16=3,35=1/1;
 5/5=2,35=1,38=5/2;
 7//1,2,3,16;
 1/18=20,19=15,26=1/3(-5);
 2/9=110/2;
 99/9=1/99;
 ------------------------------
 Neutral Radical (removed 4) 1_
 ------------------------------
 Symbolic Z-matrix:
 Charge =  0 Multiplicity = 2
 C                    -3.20928   0.19943   0. 
 C                    -2.0115    0.93555   0. 
 C                    -0.77511   0.2663    0. 
 C                    -0.7365   -1.13907   0. 
 C                    -1.93429  -1.87519   0. 
 C                    -3.17067  -1.20594   0. 
 Cl                   -4.67483  -2.13035   0. 
 H                    -4.76193   1.03987   0. 
 H                     0.81614  -1.97951   0. 
 H                    -2.05998   2.7004    0. 
 H                     0.72905   1.19071   0. 
 
 Add virtual bond connecting atoms H9         and C4         Dist= 3.34D+00.
 Add virtual bond connecting atoms H11        and C3         Dist= 3.34D+00.
 Add virtual bond connecting atoms H10        and C2         Dist= 3.34D+00.
 Add virtual bond connecting atoms H8         and C1         Dist= 3.34D+00.

 GradGradGradGradGradGradGradGradGradGradGradGradGradGradGradGradGradGrad
 Berny optimization.
 Initialization pass.
                           ----------------------------
                           !    Initial Parameters    !
                           ! (Angstroms and Degrees)  !
 --------------------------                            --------------------------
 ! Name  Definition              Value          Derivative Info.                !
 --------------------------------------------------------------------------------
 ! R1    R(1,2)                  1.4059         estimate D2E/DX2                !
 ! R2    R(1,6)                  1.4059         estimate D2E/DX2                !
 ! R3    R(1,8)                  1.7655         estimate D2E/DX2                !
 ! R4    R(2,3)                  1.4059         estimate D2E/DX2                !
 ! R5    R(2,10)                 1.7655         estimate D2E/DX2                !
 ! R6    R(3,4)                  1.4059         estimate D2E/DX2                !
 ! R7    R(3,11)                 1.7655         estimate D2E/DX2                !
 ! R8    R(4,5)                  1.4059         estimate D2E/DX2                !
 ! R9    R(4,9)                  1.7655         estimate D2E/DX2                !
 ! R10   R(5,6)                  1.4059         estimate D2E/DX2                !
 ! R11   R(6,7)                  1.7655         estimate D2E/DX2                !
 ! A1    A(2,1,6)              119.9999         estimate D2E/DX2                !
 ! A2    A(2,1,8)              119.9999         estimate D2E/DX2                !
 ! A3    A(6,1,8)              120.0001         estimate D2E/DX2                !
 ! A4    A(1,2,3)              120.0            estimate D2E/DX2                !
 ! A5    A(1,2,10)             120.0001         estimate D2E/DX2                !
 ! A6    A(3,2,10)             119.9999         estimate D2E/DX2                !
 ! A7    A(2,3,4)              120.0001         estimate D2E/DX2                !
 ! A8    A(2,3,11)             120.0            estimate D2E/DX2                !
 ! A9    A(4,3,11)             119.9999         estimate D2E/DX2                !
 ! A10   A(3,4,5)              119.9997         estimate D2E/DX2                !
 ! A11   A(3,4,9)              120.0003         estimate D2E/DX2                !
 ! A12   A(5,4,9)              120.0            estimate D2E/DX2                !
 ! A13   A(4,5,6)              120.0            estimate D2E/DX2                !
 ! A14   A(1,6,5)              120.0003         estimate D2E/DX2                !
 ! A15   A(1,6,7)              119.9999         estimate D2E/DX2                !
 ! A16   A(5,6,7)              119.9998         estimate D2E/DX2                !
 ! D1    D(6,1,2,3)              0.0            estimate D2E/DX2                !
 ! D2    D(6,1,2,10)           180.0            estimate D2E/DX2                !
 ! D3    D(8,1,2,3)            180.0            estimate D2E/DX2                !
 ! D4    D(8,1,2,10)             0.0            estimate D2E/DX2                !
 ! D5    D(2,1,6,5)              0.0            estimate D2E/DX2                !
 ! D6    D(2,1,6,7)            180.0            estimate D2E/DX2                !
 ! D7    D(8,1,6,5)            180.0            estimate D2E/DX2                !
 ! D8    D(8,1,6,7)              0.0            estimate D2E/DX2                !
 ! D9    D(1,2,3,4)              0.0            estimate D2E/DX2                !
 ! D10   D(1,2,3,11)           180.0            estimate D2E/DX2                !
 ! D11   D(10,2,3,4)           180.0            estimate D2E/DX2                !
 ! D12   D(10,2,3,11)            0.0            estimate D2E/DX2                !
 ! D13   D(2,3,4,5)              0.0            estimate D2E/DX2                !
 ! D14   D(2,3,4,9)            180.0            estimate D2E/DX2                !
 ! D15   D(11,3,4,5)           180.0            estimate D2E/DX2                !
 ! D16   D(11,3,4,9)             0.0            estimate D2E/DX2                !
 ! D17   D(3,4,5,6)              0.0            estimate D2E/DX2                !
 ! D18   D(9,4,5,6)            180.0            estimate D2E/DX2                !
 ! D19   D(4,5,6,1)              0.0            estimate D2E/DX2                !
 ! D20   D(4,5,6,7)            180.0            estimate D2E/DX2                !
 --------------------------------------------------------------------------------
 Trust Radius=3.00D-01 FncErr=1.00D-07 GrdErr=1.00D-07 EigMax=2.50D+02 EigMin=1.00D-04
 Number of steps in this run=     57 maximum allowed number of steps=    100.
 GradGradGradGradGradGradGradGradGradGradGradGradGradGradGradGradGradGrad

                          Input orientation:                          
 ---------------------------------------------------------------------
 Center     Atomic      Atomic             Coordinates (Angstroms)
 Number     Number       Type             X           Y           Z
 ---------------------------------------------------------------------
      1          6           0       -3.209280    0.199430    0.000000
      2          6           0       -2.011500    0.935550    0.000000
      3          6           0       -0.775110    0.266300    0.000000
      4          6           0       -0.736500   -1.139070    0.000000
      5          6           0       -1.934290   -1.875190    0.000000
      6          6           0       -3.170670   -1.205940    0.000000
      7         17           0       -4.674830   -2.130350    0.000000
      8          1           0       -4.761930    1.039870    0.000000
      9          1           0        0.816140   -1.979510    0.000000
     10          1           0       -2.059980    2.700400    0.000000
     11          1           0        0.729050    1.190710    0.000000
 ---------------------------------------------------------------------
                    Distance matrix (angstroms):
                    1          2          3          4          5
     1  C    0.000000
     2  C    1.405898   0.000000
     3  C    2.435088   1.405900   0.000000
     4  C    2.811801   2.435092   1.405900   0.000000
     5  C    2.435087   2.811800   2.435093   1.405907   0.000000
     6  C    1.405900   2.435088   2.811796   2.435088   1.405892
     7  Cl   2.752401   4.061166   4.577308   4.061167   2.752393
     8  H    1.765520   2.752408   4.061175   4.577321   4.061173
     9  H    4.577312   4.061173   2.752406   1.765511   2.752408
    10  H    2.752406   1.765516   2.752405   4.061173   4.577316
    11  H    4.061167   2.752403   1.765512   2.752401   4.061173
                    6          7          8          9         10
     6  C    0.000000
     7  Cl   1.765512   0.000000
     8  H    2.752412   3.171416   0.000000
     9  H    4.061165   5.493041   6.342832   0.000000
    10  H    4.061173   5.493049   3.171418   5.493052   0.000000
    11  H    4.577308   6.342819   5.493051   3.171416   3.171412
                   11
    11  H    0.000000
 Stoichiometry    C6H4Cl(2)
 Framework group  CS[SG(C6H4Cl)]
 Deg. of freedom    19
 Full point group                 CS      NOp   2
 Largest Abelian subgroup         CS      NOp   2
 Largest concise Abelian subgroup C1      NOp   1
                         Standard orientation:                         
 ---------------------------------------------------------------------
 Center     Atomic      Atomic             Coordinates (Angstroms)
 Number     Number       Type             X           Y           Z
 ---------------------------------------------------------------------
      1          6           0        1.092422    0.446591    0.000000
      2          6           0        1.795372   -0.770952    0.000000
      3          6           0        1.092422   -1.988497    0.000000
      4          6           0       -0.313479   -1.988500    0.000000
      5          6           0       -1.016429   -0.770947    0.000000
      6          6           0       -0.313479    0.446588    0.000000
      7         17           0       -1.196234    1.975566    0.000000
      8          1           0        1.975182    1.975576    0.000000
      9          1           0       -1.196239   -3.517475    0.000000
     10          1           0        3.560887   -0.770955    0.000000
     11          1           0        1.975177   -3.517475    0.000000
 ---------------------------------------------------------------------
 Rotational constants (GHZ):           5.3831393           1.4899579           1.1669631
 Standard basis: VSTO-6G (5D, 7F)
 There are    25 symmetry adapted cartesian basis functions of A'  symmetry.
 There are     7 symmetry adapted cartesian basis functions of A"  symmetry.
 There are    25 symmetry adapted basis functions of A'  symmetry.
 There are     7 symmetry adapted basis functions of A"  symmetry.
    32 basis functions,   192 primitive gaussians,    32 cartesian basis functions
    18 alpha electrons       17 beta electrons
       nuclear repulsion energy       147.2898775663 Hartrees.
 Integral buffers will be    131072 words long.
 Regular integral format.
 Two-electron integral symmetry is turned off.
 Do NDO integrals.
 One-electron integrals computed using PRISM.
 NBasis=    32 RedAO= T EigKep=  1.00D+00  NBF=    25     7
 NBsUse=    32 1.00D-06 EigRej= -1.00D+00 NBFU=    25     7
 Simple Huckel Guess.
 Initial guess orbital symmetries:
 Alpha Orbitals:
       Occupied  (A') (A') (A') (A') (A') (A') (A') (A') (A") (A')
                 (A') (A') (A") (A') (A") (A') (A") (A')
       Virtual   (A') (A") (A') (A") (A') (A') (A") (A') (A') (A')
                 (A') (A') (A') (A')
 Beta  Orbitals:
       Occupied  (A') (A') (A') (A') (A') (A') (A') (A') (A") (A')
                 (A') (A') (A") (A') (A") (A') (A")
       Virtual   (A') (A') (A") (A') (A") (A') (A') (A") (A') (A')
                 (A') (A') (A') (A') (A')
 The electronic state of the initial guess is 2-A'.
 Initial guess <Sx>= 0.0000 <Sy>= 0.0000 <Sz>= 0.5000 <S**2>= 0.7500 S= 0.5000
 Keep J ints in memory in canonical form, NReq=862079.
 Overlap will be assumed to be unity.
 Requested convergence on RMS density matrix=1.00D-08 within 128 cycles.
 Requested convergence on MAX density matrix=1.00D-06.
 Requested convergence on             energy=1.00D-06.
 No special actions if energy rises.
 Fock symm off for IB=2 I1=    1 I=   26 J=   23 Cut=1.00D-07 Err=4.72D-03
 Fock matrix is not symmetric: symmetry in diagonalization turned off.
 Rare condition: small coef for last iteration:  0.000D+00
 Rare condition: small coef for last iteration:  0.000D+00
 Rare condition: small coef for last iteration:  0.000D+00
 Rare condition: small coef for last iteration:  0.000D+00
 Rare condition: small coef for last iteration:  0.000D+00
 Rare condition: small coef for last iteration:  0.000D+00
 Rare condition: small coef for last iteration:  0.000D+00
 Rare condition: small coef for last iteration:  0.000D+00
 Rare condition: small coef for last iteration:  0.000D+00
 Rare condition: small coef for last iteration:  0.000D+00
 Rare condition: small coef for last iteration:  0.000D+00
 Rare condition: small coef for last iteration:  0.000D+00
 Rare condition: small coef for last iteration:  0.000D+00
 Rare condition: small coef for last iteration:  0.000D+00
 Rare condition: small coef for last iteration:  0.000D+00
 Rare condition: small coef for last iteration:  0.000D+00
 Rare condition: small coef for last iteration:  0.000D+00
 Rare condition: small coef for last iteration:  0.000D+00
 Rare condition: small coef for last iteration:  0.000D+00
 Rare condition: small coef for last iteration:  0.000D+00
 Rare condition: small coef for last iteration:  0.000D+00
 Rare condition: small coef for last iteration:  0.000D+00
 Rare condition: small coef for last iteration:  0.000D+00
 Rare condition: small coef for last iteration:  0.000D+00
 Rare condition: small coef for last iteration:  0.000D+00
 Rare condition: small coef for last iteration:  0.000D+00
 Rare condition: small coef for last iteration:  0.000D+00
 Rare condition: small coef for last iteration:  0.000D+00
 Rare condition: small coef for last iteration:  0.000D+00
 Rare condition: small coef for last iteration:  0.000D+00
 Rare condition: small coef for last iteration:  0.000D+00
 SCF Done:  E(UAM1) =  0.607531272178     A.U. after   71 cycles
            NFock= 70  Conv=0.66D-08     -V/T= 1.0089
 <Sx>= 0.0000 <Sy>= 0.0000 <Sz>= 0.5000 <S**2>= 1.1040 S= 0.6636
 <L.S>=  0.00000000000    
 Annihilation of the first spin contaminant:
 S**2 before annihilation     1.1040,   after     0.8568
 Calling FoFJK, ICntrl=      2127 FMM=F ISym2X=1 I1Cent= 0 IOpClX= 1 NMat=1 NMatS=1 NMatT=0.
 ***** Axes restored to original set *****
 -------------------------------------------------------------------
 Center     Atomic                   Forces (Hartrees/Bohr)
 Number     Number              X              Y              Z
 -------------------------------------------------------------------
      1        6          -0.038461931    0.044871295    0.000000000
      2        6          -0.003206791    0.070145694    0.000000000
      3        6           0.042214397    0.025078157    0.000000000
      4        6           0.062007775   -0.041491014    0.000000000
      5        6           0.016967967    0.071692697   -0.000000000
      6        6          -0.017442070   -0.021173308    0.000000000
      7       17           0.030987278    0.019548524   -0.000000000
      8        1           0.091594737   -0.050744826   -0.000000000
      9        1          -0.100678054    0.053753700   -0.000000000
     10        1           0.003084467   -0.117925806   -0.000000000
     11        1          -0.087067776   -0.053755113   -0.000000000
 -------------------------------------------------------------------
 Cartesian Forces:  Max     0.117925806 RMS     0.046807187

 GradGradGradGradGradGradGradGradGradGradGradGradGradGradGradGradGradGrad
 Berny optimization.
 FormGI is forming the generalized inverse of G from B-inverse, IUseBI=4.
 Internal  Forces:  Max     0.117966036 RMS     0.036710772
 Search for a local minimum.
 Step number   1 out of a maximum of   57
 All quantities printed in internal units (Hartrees-Bohrs-Radians)
 Mixed Optimization -- RFO/linear search
 Second derivative matrix not updated -- first step.
 ITU=  0
     Eigenvalues ---    0.02011   0.02011   0.02011   0.02011   0.02011
     Eigenvalues ---    0.02011   0.02011   0.02011   0.06524   0.06524
     Eigenvalues ---    0.06524   0.06524   0.16000   0.16000   0.16000
     Eigenvalues ---    0.16000   0.22000   0.22408   0.24406   0.25000
     Eigenvalues ---    0.29033   0.40825   0.41341   0.44656   0.44657
     Eigenvalues ---    0.44657   0.44657
 RFO step:  Lambda=-2.03962670D-01 EMin= 2.01067220D-02
 Linear search not attempted -- first point.
 Maximum step size (   0.300) exceeded in Quadratic search.
    -- Step size scaled by   0.357
 Iteration  1 RMS(Cart)=  0.04950874 RMS(Int)=  0.00003995
 Iteration  2 RMS(Cart)=  0.00005927 RMS(Int)=  0.00000502
 Iteration  3 RMS(Cart)=  0.00000000 RMS(Int)=  0.00000502
 ClnCor:  largest displacement from symmetrization is 1.29D-09 for atom    10.
 Variable       Old X    -DE/DX   Delta X   Delta X   Delta X     New X
                                 (Linear)    (Quad)   (Total)
    R1        2.65676  -0.04813   0.00000  -0.02631  -0.02632   2.63045
    R2        2.65677  -0.03213   0.00000  -0.01740  -0.01740   2.63937
    R3        3.33635  -0.10471   0.00000  -0.13873  -0.13873   3.19762
    R4        2.65677  -0.04597   0.00000  -0.02534  -0.02535   2.63142
    R5        3.33634  -0.11797   0.00000  -0.15629  -0.15629   3.18005
    R6        2.65677  -0.05039   0.00000  -0.02785  -0.02785   2.62892
    R7        3.33633  -0.10232   0.00000  -0.13557  -0.13557   3.20076
    R8        2.65678  -0.05674   0.00000  -0.03119  -0.03119   2.62559
    R9        3.33633  -0.11413   0.00000  -0.15121  -0.15121   3.18513
   R10        2.65675  -0.03888   0.00000  -0.02117  -0.02117   2.63558
   R11        3.33633  -0.03664   0.00000  -0.02643  -0.02643   3.30990
    A1        2.09439   0.00220   0.00000   0.00232   0.00231   2.09670
    A2        2.09439   0.00061   0.00000   0.00051   0.00052   2.09491
    A3        2.09440  -0.00281   0.00000  -0.00284  -0.00283   2.09157
    A4        2.09439   0.00239   0.00000   0.00192   0.00190   2.09629
    A5        2.09440  -0.00145   0.00000  -0.00121  -0.00120   2.09319
    A6        2.09439  -0.00094   0.00000  -0.00070  -0.00070   2.09370
    A7        2.09440   0.00250   0.00000   0.00154   0.00153   2.09593
    A8        2.09440  -0.00090   0.00000  -0.00043  -0.00042   2.09397
    A9        2.09439  -0.00160   0.00000  -0.00111  -0.00111   2.09328
   A10        2.09439  -0.00681   0.00000  -0.00620  -0.00620   2.08819
   A11        2.09440   0.00449   0.00000   0.00417   0.00417   2.09857
   A12        2.09440   0.00231   0.00000   0.00203   0.00203   2.09643
   A13        2.09439   0.01757   0.00000   0.01393   0.01395   2.10834
   A14        2.09440  -0.01785   0.00000  -0.01350  -0.01349   2.08091
   A15        2.09439   0.00821   0.00000   0.00619   0.00618   2.10058
   A16        2.09439   0.00964   0.00000   0.00731   0.00731   2.10170
    D1        0.00000  -0.00000   0.00000  -0.00000   0.00000   0.00000
    D2        3.14159  -0.00000   0.00000  -0.00000   0.00000   3.14159
    D3        3.14159   0.00000   0.00000   0.00000   0.00000   3.14159
    D4        0.00000   0.00000   0.00000  -0.00000   0.00000   0.00000
    D5        0.00000  -0.00000   0.00000  -0.00000   0.00000   0.00000
    D6        3.14159   0.00000   0.00000   0.00000   0.00000   3.14159
    D7        3.14159  -0.00000   0.00000  -0.00000   0.00000   3.14159
    D8        0.00000  -0.00000   0.00000   0.00000   0.00000   0.00000
    D9        0.00000   0.00000   0.00000   0.00000   0.00000   0.00000
   D10        3.14159  -0.00000   0.00000  -0.00000   0.00000   3.14159
   D11        3.14159   0.00000   0.00000   0.00000   0.00000   3.14159
   D12        0.00000   0.00000   0.00000   0.00000   0.00000   0.00000
   D13        0.00000  -0.00000   0.00000  -0.00000   0.00000   0.00000
   D14        3.14159  -0.00000   0.00000  -0.00000   0.00000   3.14159
   D15        3.14159   0.00000   0.00000   0.00000   0.00000   3.14159
   D16        0.00000  -0.00000   0.00000  -0.00000   0.00000   0.00000
   D17        0.00000  -0.00000   0.00000  -0.00000   0.00000   0.00000
   D18        3.14159   0.00000   0.00000   0.00000   0.00000   3.14159
   D19        0.00000   0.00000   0.00000   0.00000   0.00000   0.00000
   D20        3.14159  -0.00000   0.00000  -0.00000   0.00000   3.14159
         Item               Value     Threshold  Converged?
 Maximum Force            0.117966     0.000450     NO 
 RMS     Force            0.036711     0.000300     NO 
 Maximum Displacement     0.161896     0.001800     NO 
 RMS     Displacement     0.049521     0.001200     NO 
 Predicted change in Energy=-6.895176D-02
 GradGradGradGradGradGradGradGradGradGradGradGradGradGradGradGradGradGrad

                          Input orientation:                          
 ---------------------------------------------------------------------
 Center     Atomic      Atomic             Coordinates (Angstroms)
 Number     Number       Type             X           Y           Z
 ---------------------------------------------------------------------
      1          6           0       -3.193152    0.205282    0.000000
      2          6           0       -2.006278    0.932549    0.000000
      3          6           0       -0.781297    0.270400    0.000000
      4          6           0       -0.740150   -1.120154    0.000000
      5          6           0       -1.926839   -1.842798    0.000000
      6          6           0       -3.159859   -1.191015    0.000000
      7         17           0       -4.649751   -2.111913    0.000000
      8          1           0       -4.680600    1.011961    0.000000
      9          1           0        0.740474   -1.925542    0.000000
     10          1           0       -2.052297    2.614729    0.000000
     11          1           0        0.660847    1.158701    0.000000
 ---------------------------------------------------------------------
                    Distance matrix (angstroms):
                    1          2          3          4          5
     1  C    0.000000
     2  C    1.391973   0.000000
     3  C    2.412733   1.392486   0.000000
     4  C    2.788190   2.411778   1.391164   0.000000
     5  C    2.407941   2.776484   2.403720   1.389404   0.000000
     6  C    1.396694   2.416666   2.791646   2.420746   1.394690
     7  Cl   2.736983   4.031960   4.543165   4.033431   2.736179
     8  H    1.692109   2.675501   3.969190   4.480297   3.966466
     9  H    4.473681   3.964004   2.671695   1.685496   2.668596
    10  H    2.665892   1.682809   2.666705   3.958672   4.459291
    11  H    3.970179   2.676696   1.693771   2.675065   3.962968
                    6          7          8          9         10
     6  C    0.000000
     7  Cl   1.751523   0.000000
     8  H    2.676893   3.124026   0.000000
     9  H    3.968894   5.393446   6.165790   0.000000
    10  H    3.963632   5.393321   3.078448   5.330443   0.000000
    11  H    4.485416   6.236936   5.343463   3.085271   3.079151
                   11
    11  H    0.000000
 Stoichiometry    C6H4Cl(2)
 Framework group  CS[SG(C6H4Cl)]
 Deg. of freedom    19
 Full point group                 CS      NOp   2
 Largest Abelian subgroup         CS      NOp   2
 Largest concise Abelian subgroup C1      NOp   1
                         Standard orientation:                         
 ---------------------------------------------------------------------
 Center     Atomic      Atomic             Coordinates (Angstroms)
 Number     Number       Type             X           Y           Z
 ---------------------------------------------------------------------
      1          6           0        1.143192   -0.259700    0.000000
      2          6           0        1.023496   -1.646516    0.000000
      3          6           0       -0.236712   -2.238878   -0.000000
      4          6           0       -1.379948   -1.446194   -0.000000
      5          6           0       -1.256642   -0.062272   -0.000000
      6          6           0        0.000000    0.542714    0.000000
      7         17           0        0.143855    2.288319    0.000000
      8          1           0        2.675553    0.458006    0.000000
      9          1           0       -2.907218   -2.159176   -0.000000
     10          1           0        2.404257   -2.608464    0.000000
     11          1           0       -0.378439   -3.926709   -0.000000
 ---------------------------------------------------------------------
 Rotational constants (GHZ):           5.5450553           1.5149028           1.1898399
 Standard basis: VSTO-6G (5D, 7F)
 There are    25 symmetry adapted cartesian basis functions of A'  symmetry.
 There are     7 symmetry adapted cartesian basis functions of A"  symmetry.
 There are    25 symmetry adapted basis functions of A'  symmetry.
 There are     7 symmetry adapted basis functions of A"  symmetry.
    32 basis functions,   192 primitive gaussians,    32 cartesian basis functions
    18 alpha electrons       17 beta electrons
       nuclear repulsion energy       148.3689316112 Hartrees.
 Integral buffers will be    131072 words long.
 Regular integral format.
 Two-electron integral symmetry is turned off.
 Do NDO integrals.
 One-electron integrals computed using PRISM.
 NBasis=    32 RedAO= T EigKep=  1.00D+00  NBF=    25     7
 NBsUse=    32 1.00D-06 EigRej= -1.00D+00 NBFU=    25     7
 Initial guess from the checkpoint file:  "geometry_chks/1_ClBzNeutralRadical.chk"
 B after Tr=     0.000000    0.000000    0.000000
         Rot=    0.954204   -0.000000    0.000000    0.299157 Ang=  34.81 deg.
 Initial guess orbital symmetries:
 Alpha Orbitals:
       Occupied  (A') (A') (A') (A') (A') (A') (A') (A') (A") (A')
                 (A") (A') (A') (A') (A') (A') (A") (A")
       Virtual   (A') (A") (A') (A') (A") (A') (A') (A") (A') (A')
                 (A') (A') (A') (A')
 Beta  Orbitals:
       Occupied  (A') (A') (A') (A') (A') (A') (A') (A') (A") (A')
                 (A") (A') (A') (A') (A') (A") (A")
       Virtual   (A') (A') (A") (A') (A") (A') (A') (A') (A") (A')
                 (A') (A') (A') (A') (A')
 Initial guess <Sx>= 0.0000 <Sy>= 0.0000 <Sz>= 0.5000 <S**2>= 1.1040 S= 0.6636
 Keep J ints in memory in canonical form, NReq=862079.
 Overlap will be assumed to be unity.
 Requested convergence on RMS density matrix=1.00D-08 within 128 cycles.
 Requested convergence on MAX density matrix=1.00D-06.
 Requested convergence on             energy=1.00D-06.
 No special actions if energy rises.
 Fock symm off for IB=2 I1=    1 I=   26 J=   17 Cut=1.00D-07 Err=3.54D-04
 Fock matrix is not symmetric: symmetry in diagonalization turned off.
 Rare condition: small coef for last iteration:  0.000D+00
 Rare condition: small coef for last iteration:  0.000D+00
 Rare condition: small coef for last iteration:  0.000D+00
 Rare condition: small coef for last iteration:  0.000D+00
 Rare condition: small coef for last iteration:  0.000D+00
 Rare condition: small coef for last iteration:  0.000D+00
 Rare condition: small coef for last iteration:  0.000D+00
 Rare condition: small coef for last iteration:  0.000D+00
 Rare condition: small coef for last iteration:  0.000D+00
 Rare condition: small coef for last iteration:  0.000D+00
 Rare condition: small coef for last iteration:  0.000D+00
 Rare condition: small coef for last iteration:  0.000D+00
 Rare condition: small coef for last iteration:  0.000D+00
 Rare condition: small coef for last iteration:  0.000D+00
 Rare condition: small coef for last iteration:  0.000D+00
 Rare condition: small coef for last iteration:  0.000D+00
 Rare condition: small coef for last iteration:  0.000D+00
 Rare condition: small coef for last iteration:  0.000D+00
 Rare condition: small coef for last iteration:  0.000D+00
 Rare condition: small coef for last iteration:  0.000D+00
 Rare condition: small coef for last iteration:  0.000D+00
 Rare condition: small coef for last iteration:  0.000D+00
 Rare condition: small coef for last iteration:  0.000D+00
 Rare condition: small coef for last iteration:  0.000D+00
 Rare condition: small coef for last iteration:  0.000D+00
 Rare condition: small coef for last iteration:  0.000D+00
 Rare condition: small coef for last iteration:  0.000D+00
 Rare condition: small coef for last iteration:  0.000D+00
 Rare condition: small coef for last iteration:  0.000D+00
 Rare condition: small coef for last iteration:  0.000D+00
 Rare condition: small coef for last iteration:  0.000D+00
 Rare condition: small coef for last iteration:  0.000D+00
 Rare condition: small coef for last iteration:  0.000D+00
 Rare condition: small coef for last iteration:  0.000D+00
 Rare condition: small coef for last iteration:  0.000D+00
 Rare condition: small coef for last iteration:  0.000D+00
 Rare condition: small coef for last iteration:  0.000D+00
 Rare condition: small coef for last iteration:  0.000D+00
 Rare condition: small coef for last iteration:  0.000D+00
 Rare condition: small coef for last iteration:  0.000D+00
 Rare condition: small coef for last iteration:  0.000D+00
 Rare condition: small coef for last iteration:  0.000D+00
 Rare condition: small coef for last iteration:  0.000D+00
 Rare condition: small coef for last iteration:  0.000D+00
 Rare condition: small coef for last iteration:  0.000D+00
 Rare condition: small coef for last iteration:  0.000D+00
 Rare condition: small coef for last iteration:  0.000D+00
 Rare condition: small coef for last iteration:  0.000D+00
 Rare condition: small coef for last iteration:  0.000D+00
 Rare condition: small coef for last iteration:  0.000D+00
 Rare condition: small coef for last iteration:  0.000D+00
 Rare condition: small coef for last iteration:  0.000D+00
 Rare condition: small coef for last iteration:  0.000D+00
 Rare condition: small coef for last iteration:  0.000D+00
 Rare condition: small coef for last iteration:  0.000D+00
 Rare condition: small coef for last iteration:  0.000D+00
 Rare condition: small coef for last iteration:  0.000D+00
 Rare condition: small coef for last iteration:  0.000D+00
 Rare condition: small coef for last iteration:  0.000D+00
 Rare condition: small coef for last iteration:  0.000D+00
 >>>>>>>>>> Convergence criterion not met.
 SCF Done:  E(UAM1) =  0.538918053208     A.U. after  129 cycles
            NFock=128  Conv=0.85D-02     -V/T= 1.0079
 <Sx>= 0.0000 <Sy>= 0.0000 <Sz>= 0.5000 <S**2>= 1.2845 S= 0.7387
 <L.S>=  0.00000000000    
 Annihilation of the first spin contaminant:
 S**2 before annihilation     1.2845,   after     1.1028
 SCFChk:  SCF convergence  8.51D-03 required  1.00D-08


 SCF Error SCF Error SCF Error SCF Error SCF Error SCF Error SCF Error SCF Error

                                    ERROR!!!!

    SCF has not converged.  Gradients and post-SCF results would be GARBAGE!!

 SCF Error SCF Error SCF Error SCF Error SCF Error SCF Error SCF Error SCF Error


 Error termination via Lnk1e in /share/software/user/restricted/gaussian/g16.B01/l701.exe at Mon Dec  8 19:25:14 2025.
 Job cpu time:       0 days  0 hours  0 minutes  1.7 seconds.
 Elapsed time:       0 days  0 hours  0 minutes  2.4 seconds.
 File lengths (MBytes):  RWF=     10 Int=      0 D2E=      0 Chk=      2 Scr=      1
