 Entering Gaussian System, Link 0=g16
 Initial command:
 /share/software/user/restricted/gaussian/g16.B01/l1.exe "/home/users/jlapier/Chloroaromatics/Gau-23398.inp" -scrdir="/home/users/jlapier/Chloroaromatics/"
 Entering Link 1 = /share/software/user/restricted/gaussian/g16.B01/l1.exe PID=     23399.
  
 Copyright (c) 1988-2017, Gaussian, Inc.  All Rights Reserved.
  
 This is part of the Gaussian(R) 16 program.  It is based on
 the Gaussian(R) 09 system (copyright 2009, Gaussian, Inc.),
 the Gaussian(R) 03 system (copyright 2003, Gaussian, Inc.),
 the Gaussian(R) 98 system (copyright 1998, Gaussian, Inc.),
 the Gaussian(R) 94 system (copyright 1995, Gaussian, Inc.),
 the Gaussian 92(TM) system (copyright 1992, Gaussian, Inc.),
 the Gaussian 90(TM) system (copyright 1990, Gaussian, Inc.),
 the Gaussian 88(TM) system (copyright 1988, Gaussian, Inc.),
 the Gaussian 86(TM) system (copyright 1986, Carnegie Mellon
 University), and the Gaussian 82(TM) system (copyright 1983,
 Carnegie Mellon University). Gaussian is a federally registered
 trademark of Gaussian, Inc.
  
 This software contains proprietary and confidential information,
 including trade secrets, belonging to Gaussian, Inc.
  
 This software is provided under written license and may be
 used, copied, transmitted, or stored only in accord with that
 written license.
  
 The following legend is applicable only to US Government
 contracts under FAR:
  
                    RESTRICTED RIGHTS LEGEND
  
 Use, reproduction and disclosure by the US Government is
 subject to restrictions as set forth in subparagraphs (a)
 and (c) of the Commercial Computer Software - Restricted
 Rights clause in FAR 52.227-19.
  
 Gaussian, Inc.
 340 Quinnipiac St., Bldg. 40, Wallingford CT 06492
  
  
 ---------------------------------------------------------------
 Warning -- This program may not be used in any manner that
 competes with the business of Gaussian, Inc. or will provide
 assistance to any competitor of Gaussian, Inc.  The licensee
 of this program is prohibited from giving any competitor of
 Gaussian, Inc. access to this program.  By using this program,
 the user acknowledges that Gaussian, Inc. is engaged in the
 business of creating and licensing software in the field of
 computational chemistry and represents and warrants to the
 licensee that it is not a competitor of Gaussian, Inc. and that
 it will not use this program in any manner prohibited above.
 ---------------------------------------------------------------
  

 Cite this work as:
 Gaussian 16, Revision B.01,
 M. J. Frisch, G. W. Trucks, H. B. Schlegel, G. E. Scuseria, 
 M. A. Robb, J. R. Cheeseman, G. Scalmani, V. Barone, 
 G. A. Petersson, H. Nakatsuji, X. Li, M. Caricato, A. V. Marenich, 
 J. Bloino, B. G. Janesko, R. Gomperts, B. Mennucci, H. P. Hratchian, 
 J. V. Ortiz, A. F. Izmaylov, J. L. Sonnenberg, D. Williams-Young, 
 F. Ding, F. Lipparini, F. Egidi, J. Goings, B. Peng, A. Petrone, 
 T. Henderson, D. Ranasinghe, V. G. Zakrzewski, J. Gao, N. Rega, 
 G. Zheng, W. Liang, M. Hada, M. Ehara, K. Toyota, R. Fukuda, 
 J. Hasegawa, M. Ishida, T. Nakajima, Y. Honda, O. Kitao, H. Nakai, 
 T. Vreven, K. Throssell, J. A. Montgomery, Jr., J. E. Peralta, 
 F. Ogliaro, M. J. Bearpark, J. J. Heyd, E. N. Brothers, K. N. Kudin, 
 V. N. Staroverov, T. A. Keith, R. Kobayashi, J. Normand, 
 K. Raghavachari, A. P. Rendell, J. C. Burant, S. S. Iyengar, 
 J. Tomasi, M. Cossi, J. M. Millam, M. Klene, C. Adamo, R. Cammi, 
 J. W. Ochterski, R. L. Martin, K. Morokuma, O. Farkas, 
 J. B. Foresman, and D. J. Fox, Gaussian, Inc., Wallingford CT, 2016.
 
 ******************************************
 Gaussian 16:  ES64L-G16RevB.01 20-Dec-2017
                 8-Dec-2025 
 ******************************************
 %mem=2GB
 %nprocshare=1
 Will use up to    1 processors via shared memory.
 %chk=geometry_chks/1ClBzAnionRadical.chk
 ----------------------------
 # opt am1 SCF(maxcyc=100000)
 ----------------------------
 1/18=20,19=15,26=1,38=1/1,3;
 2/9=110,12=2,17=6,18=5,40=1/2;
 3/5=2,25=1,41=700000,71=1/1,2,3;
 4/35=1/1;
 5/5=2,7=100000,35=1,38=5/2;
 6/7=2,8=2,9=2,10=2,28=1/1;
 7//1,2,3,16;
 1/18=20,19=15,26=1/3(2);
 2/9=110/2;
 99//99;
 2/9=110/2;
 3/5=2,25=1,41=700000,71=1,135=20/1,2,3;
 4/5=5,16=3,35=1/1;
 5/5=2,7=100000,35=1,38=5/2;
 7//1,2,3,16;
 1/18=20,19=15,26=1/3(-5);
 2/9=110/2;
 6/7=2,8=2,9=2,10=2,19=2,28=1/1;
 99/9=1/99;
 ----------------------------------
 1-Chloro-Benzene Anion Radical (1)
 ----------------------------------
 Symbolic Z-matrix:
 Charge = -1 Multiplicity = 2
 C                    -3.20928   0.19943   0. 
 C                    -2.0115    0.93555   0. 
 C                    -0.77511   0.2663    0. 
 C                    -0.7365   -1.13907   0. 
 C                    -1.93429  -1.87519   0. 
 C                    -3.17067  -1.20594   0. 
 Cl                   -4.67483  -2.13035   0. 
 H                    -4.76193   1.03987   0. 
 H                     0.81614  -1.97951   0. 
 H                    -1.8858   -3.64003   0. 
 H                    -2.05998   2.7004    0. 
 H                     0.72905   1.19071   0. 
 
 Add virtual bond connecting atoms H10        and C5         Dist= 3.34D+00.
 Add virtual bond connecting atoms H9         and C4         Dist= 3.34D+00.
 Add virtual bond connecting atoms H12        and C3         Dist= 3.34D+00.
 Add virtual bond connecting atoms H11        and C2         Dist= 3.34D+00.
 Add virtual bond connecting atoms H8         and C1         Dist= 3.34D+00.

 GradGradGradGradGradGradGradGradGradGradGradGradGradGradGradGradGradGrad
 Berny optimization.
 Initialization pass.
                           ----------------------------
                           !    Initial Parameters    !
                           ! (Angstroms and Degrees)  !
 --------------------------                            --------------------------
 ! Name  Definition              Value          Derivative Info.                !
 --------------------------------------------------------------------------------
 ! R1    R(1,2)                  1.4059         estimate D2E/DX2                !
 ! R2    R(1,6)                  1.4059         estimate D2E/DX2                !
 ! R3    R(1,8)                  1.7655         estimate D2E/DX2                !
 ! R4    R(2,3)                  1.4059         estimate D2E/DX2                !
 ! R5    R(2,11)                 1.7655         estimate D2E/DX2                !
 ! R6    R(3,4)                  1.4059         estimate D2E/DX2                !
 ! R7    R(3,12)                 1.7655         estimate D2E/DX2                !
 ! R8    R(4,5)                  1.4059         estimate D2E/DX2                !
 ! R9    R(4,9)                  1.7655         estimate D2E/DX2                !
 ! R10   R(5,6)                  1.4059         estimate D2E/DX2                !
 ! R11   R(5,10)                 1.7655         estimate D2E/DX2                !
 ! R12   R(6,7)                  1.7655         estimate D2E/DX2                !
 ! A1    A(2,1,6)              119.9999         estimate D2E/DX2                !
 ! A2    A(2,1,8)              119.9999         estimate D2E/DX2                !
 ! A3    A(6,1,8)              120.0001         estimate D2E/DX2                !
 ! A4    A(1,2,3)              120.0            estimate D2E/DX2                !
 ! A5    A(1,2,11)             120.0001         estimate D2E/DX2                !
 ! A6    A(3,2,11)             119.9999         estimate D2E/DX2                !
 ! A7    A(2,3,4)              120.0001         estimate D2E/DX2                !
 ! A8    A(2,3,12)             120.0            estimate D2E/DX2                !
 ! A9    A(4,3,12)             119.9999         estimate D2E/DX2                !
 ! A10   A(3,4,5)              119.9997         estimate D2E/DX2                !
 ! A11   A(3,4,9)              120.0003         estimate D2E/DX2                !
 ! A12   A(5,4,9)              120.0            estimate D2E/DX2                !
 ! A13   A(4,5,6)              120.0            estimate D2E/DX2                !
 ! A14   A(4,5,10)             119.9996         estimate D2E/DX2                !
 ! A15   A(6,5,10)             120.0004         estimate D2E/DX2                !
 ! A16   A(1,6,5)              120.0003         estimate D2E/DX2                !
 ! A17   A(1,6,7)              119.9999         estimate D2E/DX2                !
 ! A18   A(5,6,7)              119.9998         estimate D2E/DX2                !
 ! D1    D(6,1,2,3)              0.0            estimate D2E/DX2                !
 ! D2    D(6,1,2,11)           180.0            estimate D2E/DX2                !
 ! D3    D(8,1,2,3)            180.0            estimate D2E/DX2                !
 ! D4    D(8,1,2,11)             0.0            estimate D2E/DX2                !
 ! D5    D(2,1,6,5)              0.0            estimate D2E/DX2                !
 ! D6    D(2,1,6,7)            180.0            estimate D2E/DX2                !
 ! D7    D(8,1,6,5)            180.0            estimate D2E/DX2                !
 ! D8    D(8,1,6,7)              0.0            estimate D2E/DX2                !
 ! D9    D(1,2,3,4)              0.0            estimate D2E/DX2                !
 ! D10   D(1,2,3,12)           180.0            estimate D2E/DX2                !
 ! D11   D(11,2,3,4)           180.0            estimate D2E/DX2                !
 ! D12   D(11,2,3,12)            0.0            estimate D2E/DX2                !
 ! D13   D(2,3,4,5)              0.0            estimate D2E/DX2                !
 ! D14   D(2,3,4,9)            180.0            estimate D2E/DX2                !
 ! D15   D(12,3,4,5)           180.0            estimate D2E/DX2                !
 ! D16   D(12,3,4,9)             0.0            estimate D2E/DX2                !
 ! D17   D(3,4,5,6)              0.0            estimate D2E/DX2                !
 ! D18   D(3,4,5,10)           180.0            estimate D2E/DX2                !
 ! D19   D(9,4,5,6)            180.0            estimate D2E/DX2                !
 ! D20   D(9,4,5,10)             0.0            estimate D2E/DX2                !
 ! D21   D(4,5,6,1)              0.0            estimate D2E/DX2                !
 ! D22   D(4,5,6,7)            180.0            estimate D2E/DX2                !
 ! D23   D(10,5,6,1)           180.0            estimate D2E/DX2                !
 ! D24   D(10,5,6,7)             0.0            estimate D2E/DX2                !
 --------------------------------------------------------------------------------
 Trust Radius=3.00D-01 FncErr=1.00D-07 GrdErr=1.00D-07 EigMax=2.50D+02 EigMin=1.00D-04
 Number of steps in this run=     64 maximum allowed number of steps=    100.
 GradGradGradGradGradGradGradGradGradGradGradGradGradGradGradGradGradGrad

                          Input orientation:                          
 ---------------------------------------------------------------------
 Center     Atomic      Atomic             Coordinates (Angstroms)
 Number     Number       Type             X           Y           Z
 ---------------------------------------------------------------------
      1          6           0       -3.209280    0.199430    0.000000
      2          6           0       -2.011500    0.935550    0.000000
      3          6           0       -0.775110    0.266300    0.000000
      4          6           0       -0.736500   -1.139070    0.000000
      5          6           0       -1.934290   -1.875190    0.000000
      6          6           0       -3.170670   -1.205940    0.000000
      7         17           0       -4.674830   -2.130350    0.000000
      8          1           0       -4.761930    1.039870    0.000000
      9          1           0        0.816140   -1.979510    0.000000
     10          1           0       -1.885800   -3.640030    0.000000
     11          1           0       -2.059980    2.700400    0.000000
     12          1           0        0.729050    1.190710    0.000000
 ---------------------------------------------------------------------
                    Distance matrix (angstroms):
                    1          2          3          4          5
     1  C    0.000000
     2  C    1.405898   0.000000
     3  C    2.435088   1.405900   0.000000
     4  C    2.811801   2.435092   1.405900   0.000000
     5  C    2.435087   2.811800   2.435093   1.405907   0.000000
     6  C    1.405900   2.435088   2.811796   2.435088   1.405892
     7  Cl   2.752401   4.061166   4.577308   4.061167   2.752393
     8  H    1.765520   2.752408   4.061175   4.577321   4.061173
     9  H    4.577312   4.061173   2.752406   1.765511   2.752408
    10  H    4.061164   4.577306   4.061163   2.752397   1.765506
    11  H    2.752406   1.765516   2.752405   4.061173   4.577316
    12  H    4.061167   2.752403   1.765512   2.752401   4.061173
                    6          7          8          9         10
     6  C    0.000000
     7  Cl   1.765512   0.000000
     8  H    2.752412   3.171416   0.000000
     9  H    4.061165   5.493041   6.342832   0.000000
    10  H    2.752396   3.171407   5.493049   3.171404   0.000000
    11  H    4.061173   5.493049   3.171418   5.493052   6.342822
    12  H    4.577308   6.342819   5.493051   3.171416   5.493040
                   11         12
    11  H    0.000000
    12  H    3.171412   0.000000
 Stoichiometry    C6H5Cl(1-,2)
 Framework group  CS[SG(C6H5Cl)]
 Deg. of freedom    21
 Full point group                 CS      NOp   2
 Largest Abelian subgroup         CS      NOp   2
 Largest concise Abelian subgroup C1      NOp   1
                         Standard orientation:                         
 ---------------------------------------------------------------------
 Center     Atomic      Atomic             Coordinates (Angstroms)
 Number     Number       Type             X           Y           Z
 ---------------------------------------------------------------------
      1          6           0       -1.217545   -0.171923   -0.000000
      2          6           0       -1.217545   -1.577822   -0.000000
      3          6           0        0.000001   -2.280771   -0.000000
      4          6           0        1.217547   -1.577822   -0.000000
      5          6           0        1.217542   -0.171915    0.000000
      6          6           0        0.000001    0.531026    0.000000
      7         17           0       -0.000000    2.296537    0.000000
      8          1           0       -2.746531    0.710835    0.000000
      9          1           0        2.746528   -2.460572   -0.000000
     10          1           0        2.746518    0.710833    0.000000
     11          1           0       -2.746524   -2.460583   -0.000000
     12          1           0        0.000003   -4.046282   -0.000000
 ---------------------------------------------------------------------
 Rotational constants (GHZ):           4.9758856           1.4882741           1.1456217
 Standard basis: VSTO-6G (5D, 7F)
 There are    26 symmetry adapted cartesian basis functions of A'  symmetry.
 There are     7 symmetry adapted cartesian basis functions of A"  symmetry.
 There are    26 symmetry adapted basis functions of A'  symmetry.
 There are     7 symmetry adapted basis functions of A"  symmetry.
    33 basis functions,   198 primitive gaussians,    33 cartesian basis functions
    19 alpha electrons       18 beta electrons
       nuclear repulsion energy       153.2264601429 Hartrees.
 Integral buffers will be    131072 words long.
 Regular integral format.
 Two-electron integral symmetry is turned off.
 Do NDO integrals.
 One-electron integrals computed using PRISM.
 NBasis=    33 RedAO= T EigKep=  1.00D+00  NBF=    26     7
 NBsUse=    33 1.00D-06 EigRej= -1.00D+00 NBFU=    26     7
 Simple Huckel Guess.
 Initial guess orbital symmetries:
 Alpha Orbitals:
       Occupied  (A') (A') (A') (A') (A') (A') (A') (A') (A") (A')
                 (A') (A') (A") (A') (A') (A") (A') (A") (A')
       Virtual   (A') (A") (A") (A') (A') (A') (A") (A') (A') (A')
                 (A') (A') (A') (A')
 Beta  Orbitals:
       Occupied  (A') (A') (A') (A') (A') (A') (A') (A') (A") (A')
                 (A') (A') (A") (A') (A') (A") (A') (A")
       Virtual   (A') (A') (A") (A") (A') (A') (A') (A") (A') (A')
                 (A') (A') (A') (A') (A')
 The electronic state of the initial guess is 2-A'.
 Initial guess <Sx>= 0.0000 <Sy>= 0.0000 <Sz>= 0.5000 <S**2>= 0.7500 S= 0.5000
 Keep J ints in memory in canonical form, NReq=862182.
 Overlap will be assumed to be unity.
 Requested convergence on RMS density matrix=1.00D-08 within**** cycles.
 Requested convergence on MAX density matrix=1.00D-06.
 Requested convergence on             energy=1.00D-06.
 No special actions if energy rises.
 Fock symm off for IB=2 I1=    1 I=   27 J=   23 Cut=1.00D-07 Err=1.20D-02
 Fock matrix is not symmetric: symmetry in diagonalization turned off.
 Rare condition: small coef for last iteration:  0.000D+00
 SCF Done:  E(UAM1) =  0.604236227556     A.U. after   59 cycles
            NFock= 58  Conv=0.66D-08     -V/T= 1.0087
 <Sx>= 0.0000 <Sy>= 0.0000 <Sz>= 0.5000 <S**2>= 1.6653 S= 0.8839
 <L.S>=  0.00000000000    
 Annihilation of the first spin contaminant:
 S**2 before annihilation     1.6653,   after     1.8116

 **********************************************************************

            Population analysis using the SCF Density.

 **********************************************************************

 Orbital symmetries:
 Alpha Orbitals:
       Occupied  (A') (A') (A') (A') (A') (A') (A') (A') (A") (A')
                 (A') (A") (A') (A') (A') (A') (A") (A") (A')
       Virtual   (A') (A') (A') (A") (A") (A') (A') (A") (A') (A')
                 (A') (A') (A') (A')
 Beta  Orbitals:
       Occupied  (A') (A') (A') (A') (A') (A') (A') (A') (A") (A')
                 (A') (A") (A') (A') (A") (A') (A") (A')
       Virtual   (A') (A") (A") (A') (A') (A') (A') (A") (A') (A')
                 (A') (A') (A') (A') (A')
 The electronic state is 2-A'.
 Alpha  occ. eigenvalues --   -1.23847  -1.19204  -0.91469  -0.89776  -0.62096
 Alpha  occ. eigenvalues --   -0.59699  -0.42629  -0.39473  -0.35933  -0.31322
 Alpha  occ. eigenvalues --   -0.30007  -0.28789  -0.27501  -0.26969  -0.22432
 Alpha  occ. eigenvalues --   -0.20989  -0.17835  -0.17180  -0.05814
 Alpha virt. eigenvalues --    0.14594   0.14916   0.16621   0.18541   0.19742
 Alpha virt. eigenvalues --    0.21120   0.21459   0.28821   0.33410   0.33515
 Alpha virt. eigenvalues --    0.36399   0.37143   0.38205   0.41156
  Beta  occ. eigenvalues --   -1.24439  -1.20050  -0.92518  -0.92422  -0.63254
  Beta  occ. eigenvalues --   -0.62401  -0.43945  -0.40497  -0.36252  -0.31591
  Beta  occ. eigenvalues --   -0.30200  -0.29432  -0.27419  -0.26178  -0.19502
  Beta  occ. eigenvalues --   -0.18643  -0.17574  -0.16362
  Beta virt. eigenvalues --    0.17761   0.17788   0.18396   0.19146   0.19147
  Beta virt. eigenvalues --    0.21516   0.22068   0.27659   0.28700   0.32606
  Beta virt. eigenvalues --    0.32747   0.34734   0.35681   0.37161   0.39228
          Condensed to atoms (all electrons):
               1          2          3          4          5          6
     1  C    4.108541   0.000000   0.000000   0.000000   0.000000   0.000000
     2  C    0.000000   4.140641   0.000000   0.000000   0.000000   0.000000
     3  C    0.000000   0.000000   4.190743   0.000000   0.000000   0.000000
     4  C    0.000000   0.000000   0.000000   4.140637   0.000000   0.000000
     5  C    0.000000   0.000000   0.000000   0.000000   4.108545   0.000000
     6  C    0.000000   0.000000   0.000000   0.000000   0.000000   4.109973
     7  Cl   0.000000   0.000000   0.000000   0.000000   0.000000   0.000000
     8  H    0.000000   0.000000   0.000000   0.000000   0.000000   0.000000
     9  H    0.000000   0.000000   0.000000   0.000000   0.000000   0.000000
    10  H    0.000000   0.000000   0.000000   0.000000   0.000000   0.000000
    11  H    0.000000   0.000000   0.000000   0.000000   0.000000   0.000000
    12  H    0.000000   0.000000   0.000000   0.000000   0.000000   0.000000
               7          8          9         10         11         12
     1  C    0.000000   0.000000   0.000000   0.000000   0.000000   0.000000
     2  C    0.000000   0.000000   0.000000   0.000000   0.000000   0.000000
     3  C    0.000000   0.000000   0.000000   0.000000   0.000000   0.000000
     4  C    0.000000   0.000000   0.000000   0.000000   0.000000   0.000000
     5  C    0.000000   0.000000   0.000000   0.000000   0.000000   0.000000
     6  C    0.000000   0.000000   0.000000   0.000000   0.000000   0.000000
     7  Cl   7.127798   0.000000   0.000000   0.000000   0.000000   0.000000
     8  H    0.000000   0.968323   0.000000   0.000000   0.000000   0.000000
     9  H    0.000000   0.000000   0.995758   0.000000   0.000000   0.000000
    10  H    0.000000   0.000000   0.000000   0.968311   0.000000   0.000000
    11  H    0.000000   0.000000   0.000000   0.000000   0.995770   0.000000
    12  H    0.000000   0.000000   0.000000   0.000000   0.000000   1.144961
          Atomic-Atomic Spin Densities.
               1          2          3          4          5          6
     1  C   -0.363612   0.000000   0.000000   0.000000   0.000000   0.000000
     2  C    0.000000  -0.455044   0.000000   0.000000   0.000000   0.000000
     3  C    0.000000   0.000000  -0.005276   0.000000   0.000000   0.000000
     4  C    0.000000   0.000000   0.000000  -0.455061   0.000000   0.000000
     5  C    0.000000   0.000000   0.000000   0.000000  -0.363546   0.000000
     6  C    0.000000   0.000000   0.000000   0.000000   0.000000  -0.031085
     7  Cl   0.000000   0.000000   0.000000   0.000000   0.000000   0.000000
     8  H    0.000000   0.000000   0.000000   0.000000   0.000000   0.000000
     9  H    0.000000   0.000000   0.000000   0.000000   0.000000   0.000000
    10  H    0.000000   0.000000   0.000000   0.000000   0.000000   0.000000
    11  H    0.000000   0.000000   0.000000   0.000000   0.000000   0.000000
    12  H    0.000000   0.000000   0.000000   0.000000   0.000000   0.000000
               7          8          9         10         11         12
     1  C    0.000000   0.000000   0.000000   0.000000   0.000000   0.000000
     2  C    0.000000   0.000000   0.000000   0.000000   0.000000   0.000000
     3  C    0.000000   0.000000   0.000000   0.000000   0.000000   0.000000
     4  C    0.000000   0.000000   0.000000   0.000000   0.000000   0.000000
     5  C    0.000000   0.000000   0.000000   0.000000   0.000000   0.000000
     6  C    0.000000   0.000000   0.000000   0.000000   0.000000   0.000000
     7  Cl  -0.015301   0.000000   0.000000   0.000000   0.000000   0.000000
     8  H    0.000000   0.444061   0.000000   0.000000   0.000000   0.000000
     9  H    0.000000   0.000000   0.535477   0.000000   0.000000   0.000000
    10  H    0.000000   0.000000   0.000000   0.443975   0.000000   0.000000
    11  H    0.000000   0.000000   0.000000   0.000000   0.535512   0.000000
    12  H    0.000000   0.000000   0.000000   0.000000   0.000000   0.729900
 Mulliken charges and spin densities:
               1          2
     1  C   -0.108541  -0.363612
     2  C   -0.140641  -0.455044
     3  C   -0.190743  -0.005276
     4  C   -0.140637  -0.455061
     5  C   -0.108545  -0.363546
     6  C   -0.109973  -0.031085
     7  Cl  -0.127798  -0.015301
     8  H    0.031677   0.444061
     9  H    0.004242   0.535477
    10  H    0.031689   0.443975
    11  H    0.004230   0.535512
    12  H   -0.144961   0.729900
 Sum of Mulliken charges =  -1.00000   1.00000
 Mulliken charges and spin densities with hydrogens summed into heavy atoms:
               1          2
     1  C   -0.076864   0.080449
     2  C   -0.136410   0.080469
     3  C   -0.335704   0.724624
     4  C   -0.136395   0.080416
     5  C   -0.076857   0.080429
     6  C   -0.109973  -0.031085
     7  Cl  -0.127798  -0.015301
 Charge=             -1.0000 electrons
 Dipole moment (field-independent basis, Debye):
    X=              0.0004    Y=              6.7572    Z=              0.0000  Tot=              6.7572
 N-N= 1.532264601429D+02 E-N=-2.180430579605D+02  KE=-6.934494352040D+01
 Symmetry A'   KE=-5.450240322478D+01
 Symmetry A"   KE=-1.484254029563D+01
 Symmetry A'   SP= 1.000000000000D+00
 Symmetry A"   SP=-3.108624468950D-15
 Calling FoFJK, ICntrl=      2127 FMM=F ISym2X=1 I1Cent= 0 IOpClX= 1 NMat=1 NMatS=1 NMatT=0.
 ***** Axes restored to original set *****
 -------------------------------------------------------------------
 Center     Atomic                   Forces (Hartrees/Bohr)
 Number     Number              X              Y              Z
 -------------------------------------------------------------------
      1        6          -0.031068991    0.046241660   -0.000000000
      2        6           0.007448360    0.015434566   -0.000000000
      3        6          -0.007948797   -0.004884131   -0.000000000
      4        6           0.017137222   -0.000331373    0.000000000
      5        6           0.027229457   -0.048616286   -0.000000000
      6        6          -0.007801485   -0.004789188    0.000000000
      7       17           0.022426213    0.013782674   -0.000000000
      8        1           0.083249720   -0.046476053    0.000000000
      9        1          -0.074287914    0.039917163    0.000000000
     10        1          -0.003861299    0.095274744    0.000000000
     11        1           0.002056557   -0.084302464    0.000000000
     12        1          -0.034579043   -0.021251312    0.000000000
 -------------------------------------------------------------------
 Cartesian Forces:  Max     0.095274744 RMS     0.034039624

 GradGradGradGradGradGradGradGradGradGradGradGradGradGradGradGradGradGrad
 Berny optimization.
 FormGI is forming the generalized inverse of G from B-inverse, IUseBI=4.
 Internal  Forces:  Max     0.095344854 RMS     0.030725779
 Search for a local minimum.
 Step number   1 out of a maximum of   64
 All quantities printed in internal units (Hartrees-Bohrs-Radians)
 Mixed Optimization -- RFO/linear search
 Second derivative matrix not updated -- first step.
 ITU=  0
     Eigenvalues ---    0.02011   0.02011   0.02011   0.02011   0.02011
     Eigenvalues ---    0.02011   0.02011   0.02011   0.02011   0.06524
     Eigenvalues ---    0.06524   0.06524   0.06524   0.06524   0.16000
     Eigenvalues ---    0.16000   0.16000   0.16000   0.16000   0.22000
     Eigenvalues ---    0.22000   0.23485   0.25000   0.29033   0.40686
     Eigenvalues ---    0.40876   0.44656   0.44657   0.44657   0.44657
 RFO step:  Lambda=-1.71850909D-01 EMin= 2.01065826D-02
 Linear search not attempted -- first point.
 Maximum step size (   0.300) exceeded in Quadratic search.
    -- Step size scaled by   0.371
 Iteration  1 RMS(Cart)=  0.05059837 RMS(Int)=  0.00004007
 Iteration  2 RMS(Cart)=  0.00007556 RMS(Int)=  0.00000803
 Iteration  3 RMS(Cart)=  0.00000000 RMS(Int)=  0.00000803
 ClnCor:  largest displacement from symmetrization is 2.11D-10 for atom    12.
 Variable       Old X    -DE/DX   Delta X   Delta X   Delta X     New X
                                 (Linear)    (Quad)   (Total)
    R1        2.65676  -0.05292   0.00000  -0.03176  -0.03176   2.62500
    R2        2.65677  -0.03319   0.00000  -0.01939  -0.01940   2.63736
    R3        3.33635  -0.09534   0.00000  -0.14924  -0.14924   3.18711
    R4        2.65677  -0.06254   0.00000  -0.03806  -0.03805   2.61872
    R5        3.33634  -0.08433   0.00000  -0.13201  -0.13201   3.20433
    R6        2.65677  -0.06254   0.00000  -0.03806  -0.03805   2.61872
    R7        3.33633  -0.04059   0.00000  -0.06354  -0.06354   3.27280
    R8        2.65678  -0.05292   0.00000  -0.03176  -0.03176   2.62502
    R9        3.33633  -0.08433   0.00000  -0.13202  -0.13202   3.20432
   R10        2.65675  -0.03318   0.00000  -0.01939  -0.01940   2.63735
   R11        3.33632  -0.09534   0.00000  -0.14926  -0.14926   3.18707
   R12        3.33633  -0.02632   0.00000  -0.02114  -0.02114   3.31520
    A1        2.09439   0.00036   0.00000   0.00104   0.00103   2.09543
    A2        2.09439   0.00189   0.00000   0.00180   0.00180   2.09620
    A3        2.09440  -0.00225   0.00000  -0.00284  -0.00283   2.09156
    A4        2.09439   0.00904   0.00000   0.00757   0.00758   2.10197
    A5        2.09440  -0.00495   0.00000  -0.00427  -0.00427   2.09013
    A6        2.09439  -0.00409   0.00000  -0.00330  -0.00331   2.09109
    A7        2.09440  -0.00416   0.00000  -0.00578  -0.00576   2.08864
    A8        2.09440   0.00208   0.00000   0.00289   0.00288   2.09727
    A9        2.09439   0.00208   0.00000   0.00289   0.00288   2.09727
   A10        2.09439   0.00904   0.00000   0.00757   0.00758   2.10197
   A11        2.09440  -0.00409   0.00000  -0.00330  -0.00331   2.09109
   A12        2.09440  -0.00495   0.00000  -0.00427  -0.00427   2.09012
   A13        2.09439   0.00036   0.00000   0.00104   0.00103   2.09543
   A14        2.09439   0.00189   0.00000   0.00180   0.00180   2.09619
   A15        2.09440  -0.00225   0.00000  -0.00284  -0.00283   2.09157
   A16        2.09440  -0.01463   0.00000  -0.01143  -0.01146   2.08294
   A17        2.09439   0.00732   0.00000   0.00572   0.00573   2.10012
   A18        2.09439   0.00732   0.00000   0.00572   0.00573   2.10012
    D1       -0.00000   0.00000   0.00000   0.00000   0.00000   0.00000
    D2        3.14159   0.00000   0.00000   0.00000   0.00000   3.14159
    D3        3.14159  -0.00000   0.00000  -0.00000   0.00000   3.14159
    D4        0.00000  -0.00000   0.00000  -0.00000   0.00000   0.00000
    D5        0.00000   0.00000   0.00000   0.00000  -0.00000   0.00000
    D6        3.14159  -0.00000   0.00000  -0.00000   0.00000   3.14159
    D7        3.14159   0.00000   0.00000   0.00000   0.00000   3.14159
    D8       -0.00000   0.00000   0.00000   0.00000   0.00000   0.00000
    D9        0.00000  -0.00000   0.00000  -0.00000  -0.00000   0.00000
   D10        3.14159   0.00000   0.00000   0.00000   0.00000   3.14159
   D11        3.14159  -0.00000   0.00000  -0.00000   0.00000   3.14159
   D12       -0.00000   0.00000   0.00000   0.00000   0.00000   0.00000
   D13       -0.00000   0.00000   0.00000   0.00000   0.00000   0.00000
   D14        3.14159   0.00000   0.00000   0.00000   0.00000   3.14159
   D15        3.14159  -0.00000   0.00000  -0.00000   0.00000   3.14159
   D16        0.00000  -0.00000   0.00000   0.00000  -0.00000   0.00000
   D17        0.00000  -0.00000   0.00000  -0.00000   0.00000   0.00000
   D18        3.14159   0.00000   0.00000   0.00000   0.00000   3.14159
   D19        3.14159  -0.00000   0.00000  -0.00000   0.00000   3.14159
   D20       -0.00000   0.00000   0.00000   0.00000   0.00000   0.00000
   D21       -0.00000  -0.00000   0.00000  -0.00000   0.00000   0.00000
   D22        3.14159   0.00000   0.00000   0.00000   0.00000   3.14159
   D23        3.14159  -0.00000   0.00000  -0.00000   0.00000   3.14159
   D24        0.00000  -0.00000   0.00000  -0.00000  -0.00000   0.00000
         Item               Value     Threshold  Converged?
 Maximum Force            0.095345     0.000450     NO 
 RMS     Force            0.030726     0.000300     NO 
 Maximum Displacement     0.180253     0.001800     NO 
 RMS     Displacement     0.050598     0.001200     NO 
 Predicted change in Energy=-5.967929D-02
 GradGradGradGradGradGradGradGradGradGradGradGradGradGradGradGradGradGrad

                          Input orientation:                          
 ---------------------------------------------------------------------
 Center     Atomic      Atomic             Coordinates (Angstroms)
 Number     Number       Type             X           Y           Z
 ---------------------------------------------------------------------
      1          6           0       -3.193907    0.193724    0.000000
      2          6           0       -2.007041    0.915475    0.000000
      3          6           0       -0.786463    0.259322    0.000000
      4          6           0       -0.752395   -1.126026    0.000000
      5          6           0       -1.932435   -1.858898    0.000000
      6          6           0       -3.163573   -1.201579   -0.000000
      7         17           0       -4.658203   -2.120131   -0.000000
      8          1           0       -4.674772    1.000859   -0.000000
      9          1           0        0.739151   -1.932574    0.000000
     10          1           0       -1.881233   -3.544644   -0.000000
     11          1           0       -2.052880    2.610515    0.000000
     12          1           0        0.689052    1.166127    0.000000
 ---------------------------------------------------------------------
                    Distance matrix (angstroms):
                    1          2          3          4          5
     1  C    0.000000
     2  C    1.389092   0.000000
     3  C    2.408337   1.385766   0.000000
     4  C    2.775377   2.396218   1.385766   0.000000
     5  C    2.409267   2.775376   2.408341   1.389099   0.000000
     6  C    1.395632   2.412361   2.790140   2.412361   1.395625
     7  Cl   2.738264   4.030331   4.544465   4.030333   2.738258
     8  H    1.686544   2.669097   3.958386   4.461915   3.962149
     9  H    4.471028   3.956382   2.670563   1.695651   2.672602
    10  H    3.962134   4.461893   3.958368   2.669081   1.686523
    11  H    2.672606   1.695660   2.670566   3.956387   4.471036
    12  H    4.002866   2.707719   1.731889   2.707717   4.002870
                    6          7          8          9         10
     6  C    0.000000
     7  Cl   1.754326   0.000000
     8  H    2.671040   3.121035   0.000000
     9  H    3.970593   5.400613   6.157565   0.000000
    10  H    2.671020   3.121025   5.335303   3.076554   0.000000
    11  H    3.970604   5.400623   3.076574   5.332457   6.157552
    12  H    4.522029   6.276355   5.366369   3.099106   5.366352
                   11         12
    11  H    0.000000
    12  H    3.099104   0.000000
 Stoichiometry    C6H5Cl(1-,2)
 Framework group  CS[SG(C6H5Cl)]
 Deg. of freedom    21
 Full point group                 CS      NOp   2
 Largest Abelian subgroup         CS      NOp   2
 Largest concise Abelian subgroup C1      NOp   1
                         Standard orientation:                         
 ---------------------------------------------------------------------
 Center     Atomic      Atomic             Coordinates (Angstroms)
 Number     Number       Type             X           Y           Z
 ---------------------------------------------------------------------
      1          6           0       -1.204634   -0.176497   -0.000000
      2          6           0       -1.198104   -1.565573   -0.000000
      3          6           0        0.000006   -2.261905   -0.000000
      4          6           0        1.198114   -1.565568    0.000000
      5          6           0        1.204633   -0.176485    0.000000
      6          6           0       -0.000000    0.528234    0.000000
      7         17           0       -0.000006    2.282560    0.000000
      8          1           0       -2.667662    0.662538   -0.000000
      9          1           0        2.666234   -2.414011    0.000000
     10          1           0        2.667642    0.662543    0.000000
     11          1           0       -2.666223   -2.414036   -0.000000
     12          1           0        0.000012   -3.993795   -0.000000
 ---------------------------------------------------------------------
 Rotational constants (GHZ):           5.1594828           1.5113900           1.1689611
 Standard basis: VSTO-6G (5D, 7F)
 There are    26 symmetry adapted cartesian basis functions of A'  symmetry.
 There are     7 symmetry adapted cartesian basis functions of A"  symmetry.
 There are    26 symmetry adapted basis functions of A'  symmetry.
 There are     7 symmetry adapted basis functions of A"  symmetry.
    33 basis functions,   198 primitive gaussians,    33 cartesian basis functions
    19 alpha electrons       18 beta electrons
       nuclear repulsion energy       154.4563471363 Hartrees.
 Integral buffers will be    131072 words long.
 Regular integral format.
 Two-electron integral symmetry is turned off.
 Do NDO integrals.
 One-electron integrals computed using PRISM.
 NBasis=    33 RedAO= T EigKep=  1.00D+00  NBF=    26     7
 NBsUse=    33 1.00D-06 EigRej= -1.00D+00 NBFU=    26     7
 Initial guess from the checkpoint file:  "geometry_chks/1ClBzAnionRadical.chk"
 B after Tr=    -0.000000    0.000000    0.000000
         Rot=    1.000000   -0.000000   -0.000000   -0.000001 Ang=  -0.00 deg.
 Initial guess orbital symmetries:
 Alpha Orbitals:
       Occupied  (A') (A') (A') (A') (A') (A') (A') (A') (A") (A')
                 (A') (A") (A') (A') (A') (A') (A") (A") (A')
       Virtual   (A') (A') (A') (A") (A") (A') (A') (A") (A') (A')
                 (A') (A') (A') (A')
 Beta  Orbitals:
       Occupied  (A') (A') (A') (A') (A') (A') (A') (A') (A") (A')
                 (A') (A") (A') (A') (A") (A') (A") (A')
       Virtual   (A') (A") (A") (A') (A') (A') (A') (A") (A') (A')
                 (A') (A') (A') (A') (A')
 Initial guess <Sx>= 0.0000 <Sy>= 0.0000 <Sz>= 0.5000 <S**2>= 1.6653 S= 0.8839
 Keep J ints in memory in canonical form, NReq=862182.
 Overlap will be assumed to be unity.
 Requested convergence on RMS density matrix=1.00D-08 within**** cycles.
 Requested convergence on MAX density matrix=1.00D-06.
 Requested convergence on             energy=1.00D-06.
 No special actions if energy rises.
 Fock symm off for IB=2 I1=    1 I=   27 J=   23 Cut=1.00D-07 Err=1.11D-03
 Fock matrix is not symmetric: symmetry in diagonalization turned off.
 Rare condition: small coef for last iteration:  0.000D+00
 Rare condition: small coef for last iteration:  0.000D+00
 Rare condition: small coef for last iteration:  0.000D+00
 Rare condition: small coef for last iteration:  0.000D+00
 Rare condition: small coef for last iteration:  0.000D+00
 Rare condition: small coef for last iteration:  0.000D+00
 Rare condition: small coef for last iteration:  0.000D+00
 Rare condition: small coef for last iteration:  0.000D+00
 Rare condition: small coef for last iteration:  0.000D+00
 Rare condition: small coef for last iteration:  0.000D+00
 Rare condition: small coef for last iteration:  0.000D+00
 Rare condition: small coef for last iteration:  0.000D+00
 Rare condition: small coef for last iteration:  0.000D+00
 Rare condition: small coef for last iteration:  0.000D+00
 Rare condition: small coef for last iteration:  0.000D+00
 Rare condition: small coef for last iteration:  0.000D+00
 Rare condition: small coef for last iteration:  0.000D+00
 Rare condition: small coef for last iteration:  0.000D+00
 Rare condition: small coef for last iteration:  0.000D+00
 Rare condition: small coef for last iteration:  0.000D+00
 Rare condition: small coef for last iteration:  0.000D+00
 Rare condition: small coef for last iteration:  0.000D+00
 Rare condition: small coef for last iteration:  0.000D+00
 Rare condition: small coef for last iteration:  0.000D+00
 Rare condition: small coef for last iteration:  0.000D+00
 Rare condition: small coef for last iteration:  0.000D+00
 Rare condition: small coef for last iteration:  0.000D+00
 Rare condition: small coef for last iteration:  0.000D+00
 SCF Done:  E(UAM1) =  0.537342160478     A.U. after  102 cycles
            NFock=101  Conv=0.82D-08     -V/T= 1.0077
 <Sx>= 0.0000 <Sy>= 0.0000 <Sz>= 0.5000 <S**2>= 0.9331 S= 0.5877
 <L.S>=  0.00000000000    
 Annihilation of the first spin contaminant:
 S**2 before annihilation     0.9331,   after     0.7812
 Calling FoFJK, ICntrl=      2127 FMM=F ISym2X=1 I1Cent= 0 IOpClX= 1 NMat=1 NMatS=1 NMatT=0.
 ***** Axes restored to original set *****
 -------------------------------------------------------------------
 Center     Atomic                   Forces (Hartrees/Bohr)
 Number     Number              X              Y              Z
 -------------------------------------------------------------------
      1        6          -0.072235633    0.059847652   -0.000000000
      2        6          -0.010674398    0.079635158   -0.000000000
      3        6           0.025904121    0.015918667   -0.000000000
      4        6           0.066222904   -0.045496090    0.000000000
      5        6           0.020774302   -0.091485227   -0.000000000
      6        6          -0.016345057   -0.010040608    0.000000000
      7       17           0.017329763    0.010650564   -0.000000000
      8        1           0.097430426   -0.055084320    0.000000000
      9        1          -0.103844749    0.055884404    0.000000000
     10        1          -0.005135975    0.111811580    0.000000000
     11        1           0.002951173   -0.117889574    0.000000000
     12        1          -0.022376877   -0.013752206    0.000000000
 -------------------------------------------------------------------
 Cartesian Forces:  Max     0.117889574 RMS     0.048812725

 GradGradGradGradGradGradGradGradGradGradGradGradGradGradGradGradGradGrad
 Berny optimization.
 Using GEDIIS/GDIIS optimizer.
 FormGI is forming the generalized inverse of G from B-inverse, IUseBI=4.
 Internal  Forces:  Max     0.117926852 RMS     0.032469855
 Search for a local minimum.
 Step number   2 out of a maximum of   64
 All quantities printed in internal units (Hartrees-Bohrs-Radians)
 Mixed Optimization -- RFO/linear search
 Update second derivatives using D2CorX and points    1    2
 DE= -6.69D-02 DEPred=-5.97D-02 R= 1.12D+00
 TightC=F SS=  1.41D+00  RLast= 3.00D-01 DXNew= 5.0454D-01 9.0000D-01
 Trust test= 1.12D+00 RLast= 3.00D-01 DXMaxT set to 5.05D-01
 ITU=  1  0
 Use linear search instead of GDIIS.
     Eigenvalues ---   -1.11590   0.01352   0.02011   0.02011   0.02011
     Eigenvalues ---    0.02011   0.02011   0.02011   0.02011   0.02011
     Eigenvalues ---    0.02011   0.06524   0.06524   0.06524   0.10506
     Eigenvalues ---    0.15993   0.16000   0.16000   0.16000   0.16001
     Eigenvalues ---    0.21822   0.22000   0.23473   0.25000   0.29198
     Eigenvalues ---    0.40581   0.41182   0.44579   0.44656   0.44657
 RFO step:  Lambda=-1.12394972D+00 EMin=-1.11590147D+00
 I=     1 Eig=   -1.12D+00 Dot1=  5.60D-02
 I=     1 Stepn=  6.00D-01 RXN=   6.00D-01 EDone=F
 Mixed    1 eigenvectors in step.  Raw Step.Grad=  5.60D-02.
 RFO eigenvector is Hessian eigenvector with negative curvature.
 Taking step of  6.00D-01 in eigenvector direction(s).  Step.Grad=  7.40D-03.
 Skip linear search -- no minimum in search direction.
 Maximum step size (   0.505) exceeded in Quadratic search.
    -- Step size not scaled.
 Iteration  1 RMS(Cart)=  0.07770225 RMS(Int)=  0.01160097
 Iteration  2 RMS(Cart)=  0.01183671 RMS(Int)=  0.00056484
 Iteration  3 RMS(Cart)=  0.00006680 RMS(Int)=  0.00056264
 Iteration  4 RMS(Cart)=  0.00000002 RMS(Int)=  0.00056264
 ClnCor:  largest displacement from symmetrization is 1.80D-09 for atom    12.
 Variable       Old X    -DE/DX   Delta X   Delta X   Delta X     New X
                                 (Linear)    (Quad)   (Total)
    R1        2.62500  -0.02451   0.00000   0.16509   0.16507   2.79008
    R2        2.63736  -0.01318   0.00000   0.11406   0.11323   2.75059
    R3        3.18711  -0.11191   0.00000  -0.10917  -0.10917   3.07794
    R4        2.61872  -0.01864   0.00000   0.25260   0.25341   2.87213
    R5        3.20433  -0.11793   0.00000  -0.23257  -0.23257   2.97176
    R6        2.61872  -0.01864   0.00000   0.25259   0.25340   2.87212
    R7        3.27280  -0.02626   0.00000   0.10706   0.10706   3.37985
    R8        2.62502  -0.02452   0.00000   0.16508   0.16507   2.79008
    R9        3.20432  -0.11793   0.00000  -0.23254  -0.23254   2.97178
   R10        2.63735  -0.01317   0.00000   0.11405   0.11322   2.75057
   R11        3.18707  -0.11192   0.00000  -0.10914  -0.10914   3.07792
   R12        3.31520  -0.02034   0.00000   0.04131   0.04131   3.35650
    A1        2.09543   0.00153   0.00000   0.00583   0.00493   2.10036
    A2        2.09620   0.00201   0.00000   0.00137   0.00182   2.09802
    A3        2.09156  -0.00353   0.00000  -0.00721  -0.00676   2.08481
    A4        2.10197   0.00976   0.00000   0.00463   0.00550   2.10747
    A5        2.09013  -0.00526   0.00000  -0.00189  -0.00233   2.08780
    A6        2.09109  -0.00450   0.00000  -0.00274  -0.00317   2.08791
    A7        2.08864  -0.01358   0.00000  -0.05569  -0.05386   2.03477
    A8        2.09727   0.00679   0.00000   0.02785   0.02693   2.12421
    A9        2.09727   0.00679   0.00000   0.02785   0.02693   2.12420
   A10        2.10197   0.00976   0.00000   0.00463   0.00550   2.10747
   A11        2.09109  -0.00450   0.00000  -0.00274  -0.00318   2.08792
   A12        2.09012  -0.00526   0.00000  -0.00189  -0.00233   2.08779
   A13        2.09543   0.00153   0.00000   0.00584   0.00493   2.10036
   A14        2.09619   0.00201   0.00000   0.00137   0.00182   2.09801
   A15        2.09157  -0.00353   0.00000  -0.00721  -0.00676   2.08481
   A16        2.08294  -0.00900   0.00000   0.03475   0.03299   2.11593
   A17        2.10012   0.00450   0.00000  -0.01738  -0.01650   2.08363
   A18        2.10012   0.00450   0.00000  -0.01738  -0.01650   2.08363
    D1        0.00000   0.00000   0.00000   0.00000   0.00000   0.00000
    D2        3.14159   0.00000   0.00000   0.00000   0.00000   3.14159
    D3        3.14159  -0.00000   0.00000  -0.00000   0.00000   3.14159
    D4        0.00000  -0.00000   0.00000  -0.00000  -0.00000   0.00000
    D5       -0.00000  -0.00000   0.00000  -0.00000   0.00000   0.00000
    D6        3.14159  -0.00000   0.00000   0.00000   0.00000   3.14159
    D7        3.14159   0.00000   0.00000  -0.00000   0.00000   3.14159
    D8        0.00000   0.00000   0.00000   0.00000   0.00000   0.00000
    D9        0.00000   0.00000   0.00000   0.00000  -0.00000   0.00000
   D10        3.14159   0.00000   0.00000   0.00000   0.00000   3.14159
   D11        3.14159  -0.00000   0.00000   0.00000   0.00000   3.14159
   D12       -0.00000  -0.00000   0.00000  -0.00000   0.00000   0.00000
   D13       -0.00000   0.00000   0.00000  -0.00000   0.00000   0.00000
   D14        3.14159   0.00000   0.00000  -0.00000   0.00000   3.14159
   D15        3.14159  -0.00000   0.00000   0.00000   0.00000   3.14159
   D16        0.00000   0.00000   0.00000   0.00000  -0.00000   0.00000
   D17        0.00000  -0.00000   0.00000  -0.00000   0.00000   0.00000
   D18        3.14159   0.00000   0.00000  -0.00000   0.00000   3.14159
   D19        3.14159  -0.00000   0.00000  -0.00000   0.00000   3.14159
   D20       -0.00000  -0.00000   0.00000  -0.00000   0.00000   0.00000
   D21       -0.00000   0.00000   0.00000   0.00000   0.00000   0.00000
   D22        3.14159   0.00000   0.00000   0.00000   0.00000   3.14159
   D23        3.14159  -0.00000   0.00000   0.00000   0.00000   3.14159
   D24       -0.00000  -0.00000   0.00000  -0.00000   0.00000   0.00000
         Item               Value     Threshold  Converged?
 Maximum Force            0.117927     0.000450     NO 
 RMS     Force            0.032470     0.000300     NO 
 Maximum Displacement     0.323052     0.001800     NO 
 RMS     Displacement     0.086936     0.001200     NO 
 Predicted change in Energy=-2.567756D-01
 GradGradGradGradGradGradGradGradGradGradGradGradGradGradGradGradGradGrad

                          Input orientation:                          
 ---------------------------------------------------------------------
 Center     Atomic      Atomic             Coordinates (Angstroms)
 Number     Number       Type             X           Y           Z
 ---------------------------------------------------------------------
      1          6           0       -3.266139    0.224068    0.000000
      2          6           0       -2.021365    1.018062    0.000000
      3          6           0       -0.663779    0.334720    0.000000
      4          6           0       -0.667345   -1.185138    0.000000
      5          6           0       -1.937991   -1.937040    0.000000
      6          6           0       -3.210500   -1.230417   -0.000000
      7         17           0       -4.723751   -2.160417   -0.000000
      8          1           0       -4.714018    0.970094   -0.000000
      9          1           0        0.697801   -1.965805    0.000000
     10          1           0       -1.926408   -3.565766   -0.000000
     11          1           0       -2.101207    2.588621    0.000000
     12          1           0        0.860003    1.271186    0.000000
 ---------------------------------------------------------------------
                    Distance matrix (angstroms):
                    1          2          3          4          5
     1  C    0.000000
     2  C    1.476444   0.000000
     3  C    2.604711   1.519867   0.000000
     4  C    2.956280   2.586012   1.519862   0.000000
     5  C    2.536605   2.956278   2.604709   1.476448   0.000000
     6  C    1.455549   2.543560   2.989221   2.543558   1.455539
     7  Cl   2.794710   4.172004   4.765405   4.172002   2.794701
     8  H    1.628775   2.693080   4.099773   4.584821   4.019671
     9  H    4.528616   4.036994   2.673259   1.572598   2.635949
    10  H    4.019667   4.584812   4.099759   2.693071   1.628767
    11  H    2.635939   1.572587   2.673251   4.036981   4.528604
    12  H    4.256936   2.892465   1.788542   2.892459   4.256934
                    6          7          8          9         10
     6  C    0.000000
     7  Cl   1.776184   0.000000
     8  H    2.665111   3.130526   0.000000
     9  H    3.976884   5.425044   6.156889   0.000000
    10  H    2.665098   3.130517   5.323983   3.073491   0.000000
    11  H    3.976881   5.425044   3.073501   5.345768   6.156869
    12  H    4.777762   6.553946   5.582147   3.241052   5.582132
                   11         12
    11  H    0.000000
    12  H    3.241049   0.000000
 Stoichiometry    C6H5Cl(1-,2)
 Framework group  CS[SG(C6H5Cl)]
 Deg. of freedom    21
 Full point group                 CS      NOp   2
 Largest Abelian subgroup         CS      NOp   2
 Largest concise Abelian subgroup C1      NOp   1
                         Standard orientation:                         
 ---------------------------------------------------------------------
 Center     Atomic      Atomic             Coordinates (Angstroms)
 Number     Number       Type             X           Y           Z
 ---------------------------------------------------------------------
      1          6           0       -1.268306   -0.145117   -0.000000
      2          6           0       -1.293005   -1.621355   -0.000000
      3          6           0        0.000006   -2.420179    0.000000
      4          6           0        1.293007   -1.621351    0.000000
      5          6           0        1.268299   -0.145109    0.000000
      6          6           0       -0.000000    0.569042    0.000000
      7         17           0       -0.000002    2.345226   -0.000000
      8          1           0       -2.661998    0.697813   -0.000000
      9          1           0        2.672894   -2.375657    0.000000
     10          1           0        2.661985    0.697815    0.000000
     11          1           0       -2.672875   -2.375670   -0.000000
     12          1           0        0.000012   -4.208721    0.000000
 ---------------------------------------------------------------------
 Rotational constants (GHZ):           4.7049349           1.4059529           1.0824805
 Standard basis: VSTO-6G (5D, 7F)
 There are    26 symmetry adapted cartesian basis functions of A'  symmetry.
 There are     7 symmetry adapted cartesian basis functions of A"  symmetry.
 There are    26 symmetry adapted basis functions of A'  symmetry.
 There are     7 symmetry adapted basis functions of A"  symmetry.
    33 basis functions,   198 primitive gaussians,    33 cartesian basis functions
    19 alpha electrons       18 beta electrons
       nuclear repulsion energy       150.8371584274 Hartrees.
 Integral buffers will be    131072 words long.
 Regular integral format.
 Two-electron integral symmetry is turned off.
 Do NDO integrals.
 One-electron integrals computed using PRISM.
 NBasis=    33 RedAO= T EigKep=  1.00D+00  NBF=    26     7
 NBsUse=    33 1.00D-06 EigRej= -1.00D+00 NBFU=    26     7
 Initial guess from the checkpoint file:  "geometry_chks/1ClBzAnionRadical.chk"
 B after Tr=     0.000000   -0.000000   -0.000000
         Rot=    1.000000    0.000000    0.000000    0.000001 Ang=   0.00 deg.
 Initial guess orbital symmetries:
 Alpha Orbitals:
       Occupied  (A') (A') (A') (A') (A') (A') (A') (A') (A") (A')
                 (A') (A") (A') (A') (A') (A') (A") (A") (A')
       Virtual   (A') (A') (A') (A") (A") (A') (A') (A") (A') (A')
                 (A') (A') (A') (A')
 Beta  Orbitals:
       Occupied  (A') (A') (A') (A') (A') (A') (A') (A') (A") (A')
                 (A') (A") (A') (A') (A') (A") (A") (A')
       Virtual   (A') (A') (A') (A") (A") (A') (A') (A") (A') (A')
                 (A') (A') (A') (A') (A')
 Initial guess <Sx>= 0.0000 <Sy>= 0.0000 <Sz>= 0.5000 <S**2>= 0.9331 S= 0.5877
 Keep J ints in memory in canonical form, NReq=862182.
 Overlap will be assumed to be unity.
 Requested convergence on RMS density matrix=1.00D-08 within**** cycles.
 Requested convergence on MAX density matrix=1.00D-06.
 Requested convergence on             energy=1.00D-06.
 No special actions if energy rises.
 Fock symm off for IB=2 I1=    1 I=   27 J=   18 Cut=1.00D-07 Err=5.05D-03
 Fock matrix is not symmetric: symmetry in diagonalization turned off.
 Rare condition: small coef for last iteration:  0.000D+00
 Rare condition: small coef for last iteration:  0.000D+00
 SCF Done:  E(UAM1) =  0.532243148728     A.U. after   35 cycles
            NFock= 34  Conv=0.79D-08     -V/T= 1.0077
 <Sx>= 0.0000 <Sy>= 0.0000 <Sz>= 0.5000 <S**2>= 1.4685 S= 0.8109
 <L.S>=  0.00000000000    
 Annihilation of the first spin contaminant:
 S**2 before annihilation     1.4685,   after     1.3523
 Calling FoFJK, ICntrl=      2127 FMM=F ISym2X=1 I1Cent= 0 IOpClX= 1 NMat=1 NMatS=1 NMatT=0.
 ***** Axes restored to original set *****
 -------------------------------------------------------------------
 Center     Atomic                   Forces (Hartrees/Bohr)
 Number     Number              X              Y              Z
 -------------------------------------------------------------------
      1        6          -0.004125747    0.034046009   -0.000000000
      2        6           0.002269453   -0.006807017    0.000000000
      3        6          -0.061769764   -0.037961823   -0.000000000
      4        6          -0.005048849    0.005099193    0.000000000
      5        6           0.028516421   -0.019062845   -0.000000000
      6        6           0.033266535    0.020448898    0.000000000
      7       17           0.029286884    0.017999177   -0.000000000
      8        1           0.103042916   -0.054937229    0.000000000
      9        1          -0.108224678    0.061447208    0.000000000
     10        1          -0.002469543    0.116747752    0.000000000
     11        1           0.005935523   -0.124310595    0.000000000
     12        1          -0.020679153   -0.012708729    0.000000000
 -------------------------------------------------------------------
 Cartesian Forces:  Max     0.124310595 RMS     0.043861125

 GradGradGradGradGradGradGradGradGradGradGradGradGradGradGradGradGradGrad
 Berny optimization.
 Using GEDIIS/GDIIS optimizer.
 FormGI is forming the generalized inverse of G from B-inverse, IUseBI=4.
 Internal  Forces:  Max     0.124451626 RMS     0.048564709
 Search for a local minimum.
 Step number   3 out of a maximum of   64
 All quantities printed in internal units (Hartrees-Bohrs-Radians)
 Mixed Optimization -- RFO/linear search
 Update second derivatives using D2CorX and points    2    3
 ITU=  0  1  0
 Use linear search instead of GDIIS.
     Eigenvalues ---    0.00979   0.02011   0.02011   0.02011   0.02011
     Eigenvalues ---    0.02011   0.02011   0.02011   0.02011   0.02011
     Eigenvalues ---    0.06523   0.06524   0.06524   0.07238   0.15993
     Eigenvalues ---    0.16000   0.16000   0.16000   0.16000   0.21640
     Eigenvalues ---    0.22000   0.23407   0.25000   0.28790   0.36558
     Eigenvalues ---    0.40972   0.44558   0.44656   0.44657   0.58925
 RFO step:  Lambda=-2.37226024D-01 EMin= 9.79305848D-03
 Quartic linear search produced a step of -0.47431.
 Maximum step size (   0.505) exceeded in Quadratic search.
    -- Step size scaled by   0.552
 Iteration  1 RMS(Cart)=  0.10003868 RMS(Int)=  0.00025369
 Iteration  2 RMS(Cart)=  0.00040233 RMS(Int)=  0.00010151
 Iteration  3 RMS(Cart)=  0.00000011 RMS(Int)=  0.00010151
 ClnCor:  largest displacement from symmetrization is 1.10D-10 for atom    11.
 Variable       Old X    -DE/DX   Delta X   Delta X   Delta X     New X
                                 (Linear)    (Quad)   (Total)
    R1        2.79008  -0.11022  -0.07829  -0.04621  -0.12450   2.66557
    R2        2.75059  -0.08816  -0.05370  -0.02534  -0.07889   2.67169
    R3        3.07794  -0.11676   0.05178  -0.24861  -0.19683   2.88111
    R4        2.87213  -0.11483  -0.12020  -0.04283  -0.16318   2.70895
    R5        2.97176  -0.12445   0.11031  -0.23381  -0.12350   2.84826
    R6        2.87212  -0.11483  -0.12019  -0.04283  -0.16317   2.70895
    R7        3.37985  -0.02427  -0.05078  -0.09013  -0.14091   3.23894
    R8        2.79008  -0.11022  -0.07829  -0.04622  -0.12451   2.66557
    R9        2.97178  -0.12445   0.11029  -0.23382  -0.12352   2.84825
   R10        2.75057  -0.08816  -0.05370  -0.02534  -0.07888   2.67169
   R11        3.07792  -0.11676   0.05177  -0.24863  -0.19686   2.88106
   R12        3.35650  -0.03438  -0.01959  -0.04231  -0.06190   3.29460
    A1        2.10036  -0.00084  -0.00234   0.00352   0.00134   2.10170
    A2        2.09802   0.00294  -0.00087   0.00363   0.00268   2.10070
    A3        2.08481  -0.00210   0.00320  -0.00715  -0.00402   2.08078
    A4        2.10747   0.01398  -0.00261   0.01772   0.01495   2.12242
    A5        2.08780  -0.00756   0.00110  -0.00978  -0.00860   2.07920
    A6        2.08791  -0.00642   0.00151  -0.00794  -0.00636   2.08156
    A7        2.03477  -0.01334   0.02555  -0.02284   0.00238   2.03716
    A8        2.12421   0.00667  -0.01277   0.01142  -0.00119   2.12302
    A9        2.12420   0.00667  -0.01277   0.01142  -0.00119   2.12301
   A10        2.10747   0.01398  -0.00261   0.01772   0.01495   2.12242
   A11        2.08792  -0.00642   0.00151  -0.00794  -0.00636   2.08156
   A12        2.08779  -0.00756   0.00110  -0.00978  -0.00860   2.07920
   A13        2.10036  -0.00084  -0.00234   0.00352   0.00134   2.10170
   A14        2.09801   0.00294  -0.00086   0.00363   0.00268   2.10070
   A15        2.08481  -0.00210   0.00320  -0.00715  -0.00402   2.08079
   A16        2.11593  -0.01293  -0.01565  -0.01964  -0.03497   2.08096
   A17        2.08363   0.00646   0.00782   0.00982   0.01748   2.10111
   A18        2.08363   0.00646   0.00782   0.00982   0.01748   2.10111
    D1       -0.00000   0.00000   0.00000   0.00000   0.00000   0.00000
    D2        3.14159   0.00000   0.00000   0.00000   0.00000   3.14159
    D3        3.14159  -0.00000   0.00000  -0.00000   0.00000   3.14159
    D4       -0.00000  -0.00000   0.00000  -0.00000   0.00000   0.00000
    D5       -0.00000  -0.00000   0.00000  -0.00000   0.00000   0.00000
    D6        3.14159  -0.00000   0.00000  -0.00000   0.00000   3.14159
    D7        3.14159   0.00000   0.00000   0.00000   0.00000   3.14159
    D8        0.00000   0.00000   0.00000   0.00000   0.00000   0.00000
    D9        0.00000  -0.00000   0.00000  -0.00000  -0.00000   0.00000
   D10        3.14159   0.00000   0.00000   0.00000   0.00000   3.14159
   D11        3.14159  -0.00000   0.00000  -0.00000   0.00000   3.14159
   D12        0.00000  -0.00000   0.00000   0.00000   0.00000   0.00000
   D13       -0.00000   0.00000   0.00000   0.00000   0.00000   0.00000
   D14        3.14159   0.00000   0.00000   0.00000   0.00000   3.14159
   D15        3.14159  -0.00000   0.00000  -0.00000   0.00000   3.14159
   D16       -0.00000   0.00000   0.00000  -0.00000   0.00000   0.00000
   D17        0.00000   0.00000   0.00000  -0.00000  -0.00000   0.00000
   D18        3.14159   0.00000   0.00000   0.00000   0.00000   3.14159
   D19        3.14159  -0.00000   0.00000  -0.00000   0.00000   3.14159
   D20       -0.00000   0.00000   0.00000   0.00000   0.00000   0.00000
   D21        0.00000   0.00000   0.00000   0.00000   0.00000   0.00000
   D22        3.14159  -0.00000   0.00000   0.00000   0.00000   3.14159
   D23        3.14159  -0.00000   0.00000  -0.00000   0.00000   3.14159
   D24        0.00000  -0.00000   0.00000  -0.00000  -0.00000   0.00000
         Item               Value     Threshold  Converged?
 Maximum Force            0.124452     0.000450     NO 
 RMS     Force            0.048565     0.000300     NO 
 Maximum Displacement     0.311333     0.001800     NO 
 RMS     Displacement     0.100118     0.001200     NO 
 Predicted change in Energy=-1.338030D-01
 GradGradGradGradGradGradGradGradGradGradGradGradGradGradGradGradGradGrad

                          Input orientation:                          
 ---------------------------------------------------------------------
 Center     Atomic      Atomic             Coordinates (Angstroms)
 Number     Number       Type             X           Y           Z
 ---------------------------------------------------------------------
      1          6           0       -3.210032    0.201394    0.000000
      2          6           0       -2.008715    0.940661    0.000000
      3          6           0       -0.729028    0.294618    0.000000
      4          6           0       -0.730683   -1.138895    0.000000
      5          6           0       -1.932872   -1.876746    0.000000
      6          6           0       -3.180698   -1.212102   -0.000000
      7         17           0       -4.666041   -2.124948   -0.000000
      8          1           0       -4.555799    0.917891   -0.000000
      9          1           0        0.583329   -1.877217    0.000000
     10          1           0       -1.901511   -3.401016   -0.000000
     11          1           0       -2.073877    2.446487    0.000000
     12          1           0        0.731226    1.192041    0.000000
 ---------------------------------------------------------------------
                    Distance matrix (angstroms):
                    1          2          3          4          5
     1  C    0.000000
     2  C    1.410559   0.000000
     3  C    2.482755   1.433517   0.000000
     4  C    2.818429   2.440885   1.433514   0.000000
     5  C    2.439221   2.818427   2.482753   1.410561   0.000000
     6  C    1.413800   2.451108   2.877654   2.451108   1.413796
     7  Cl   2.744418   4.057012   4.621080   4.057012   2.744416
     8  H    1.524617   2.547185   3.877195   4.343026   3.832719
     9  H    4.325530   3.828724   2.537547   1.507231   2.516201
    10  H    3.832699   4.343000   3.877167   2.547161   1.524593
    11  H    2.516206   1.507235   2.537550   3.828725   4.325532
    12  H    4.063852   2.751448   1.713974   2.751443   4.063849
                    6          7          8          9         10
     6  C    0.000000
     7  Cl   1.743426   0.000000
     8  H    2.535305   3.044835   0.000000
     9  H    3.822339   5.255213   5.850065   0.000000
    10  H    2.535283   3.044828   5.069338   2.914857   0.000000
    11  H    3.822346   5.255220   2.914883   5.074954   5.850043
    12  H    4.591628   6.335054   5.294127   3.072819   5.294098
                   11         12
    11  H    0.000000
    12  H    3.072822   0.000000
 Stoichiometry    C6H5Cl(1-,2)
 Framework group  CS[SG(C6H5Cl)]
 Deg. of freedom    21
 Full point group                 CS      NOp   2
 Largest Abelian subgroup         CS      NOp   2
 Largest concise Abelian subgroup C1      NOp   1
                         Standard orientation:                         
 ---------------------------------------------------------------------
 Center     Atomic      Atomic             Coordinates (Angstroms)
 Number     Number       Type             X           Y           Z
 ---------------------------------------------------------------------
      1          6           0       -1.219611   -0.164880    0.000000
      2          6           0       -1.220440   -1.575439    0.000000
      3          6           0        0.000005   -2.327427    0.000000
      4          6           0        1.220444   -1.575437    0.000000
      5          6           0        1.219610   -0.164876    0.000000
      6          6           0        0.000000    0.550227    0.000000
      7         17           0       -0.000002    2.293653    0.000000
      8          1           0       -2.534680    0.606516    0.000000
      9          1           0        2.537480   -2.308351    0.000000
     10          1           0        2.534659    0.606505    0.000000
     11          1           0       -2.537474   -2.308366    0.000000
     12          1           0        0.000010   -4.041401    0.000000
 ---------------------------------------------------------------------
 Rotational constants (GHZ):           5.1900658           1.4866690           1.1556412
 Standard basis: VSTO-6G (5D, 7F)
 There are    26 symmetry adapted cartesian basis functions of A'  symmetry.
 There are     7 symmetry adapted cartesian basis functions of A"  symmetry.
 There are    26 symmetry adapted basis functions of A'  symmetry.
 There are     7 symmetry adapted basis functions of A"  symmetry.
    33 basis functions,   198 primitive gaussians,    33 cartesian basis functions
    19 alpha electrons       18 beta electrons
       nuclear repulsion energy       154.3691101881 Hartrees.
 Integral buffers will be    131072 words long.
 Regular integral format.
 Two-electron integral symmetry is turned off.
 Do NDO integrals.
 One-electron integrals computed using PRISM.
 NBasis=    33 RedAO= T EigKep=  1.00D+00  NBF=    26     7
 NBsUse=    33 1.00D-06 EigRej= -1.00D+00 NBFU=    26     7
 Initial guess from the checkpoint file:  "geometry_chks/1ClBzAnionRadical.chk"
 B after Tr=     0.000000   -0.000000    0.000000
         Rot=    1.000000    0.000000    0.000000    0.000000 Ang=   0.00 deg.
 Initial guess orbital symmetries:
 Alpha Orbitals:
       Occupied  (A') (A') (A') (A') (A') (A') (A') (A') (A") (A')
                 (A') (A') (A') (A") (A') (A') (A") (A") (A')
       Virtual   (A') (A') (A") (A') (A") (A') (A') (A") (A') (A')
                 (A') (A') (A') (A')
 Beta  Orbitals:
       Occupied  (A') (A') (A') (A') (A') (A') (A') (A') (A") (A')
                 (A') (A') (A') (A") (A') (A") (A') (A")
       Virtual   (A') (A") (A') (A") (A') (A') (A') (A") (A') (A')
                 (A') (A') (A') (A') (A')
 Initial guess <Sx>= 0.0000 <Sy>= 0.0000 <Sz>= 0.5000 <S**2>= 1.4685 S= 0.8109
 Keep J ints in memory in canonical form, NReq=862182.
 Overlap will be assumed to be unity.
 Requested convergence on RMS density matrix=1.00D-08 within**** cycles.
 Requested convergence on MAX density matrix=1.00D-06.
 Requested convergence on             energy=1.00D-06.
 No special actions if energy rises.
 Fock symm off for IB=2 I1=    1 I=   27 J=   14 Cut=1.00D-07 Err=5.53D-03
 Fock matrix is not symmetric: symmetry in diagonalization turned off.
 Rare condition: small coef for last iteration:  0.000D+00
 SCF Done:  E(UAM1) =  0.385977646401     A.U. after   34 cycles
            NFock= 33  Conv=0.82D-08     -V/T= 1.0055
 <Sx>= 0.0000 <Sy>= 0.0000 <Sz>= 0.5000 <S**2>= 0.9347 S= 0.5884
 <L.S>=  0.00000000000    
 Annihilation of the first spin contaminant:
 S**2 before annihilation     0.9347,   after     0.7762
 Calling FoFJK, ICntrl=      2127 FMM=F ISym2X=1 I1Cent= 0 IOpClX= 1 NMat=1 NMatS=1 NMatT=0.
 ***** Axes restored to original set *****
 -------------------------------------------------------------------
 Center     Atomic                   Forces (Hartrees/Bohr)
 Number     Number              X              Y              Z
 -------------------------------------------------------------------
      1        6          -0.059868030    0.051617676   -0.000000000
      2        6           0.000058348    0.056710196   -0.000000000
      3        6          -0.014163898   -0.008703278    0.000000000
      4        6           0.050620589   -0.025565333   -0.000000000
      5        6           0.019012162   -0.076729446   -0.000000000
      6        6           0.010877880    0.006687789    0.000000000
      7       17           0.014278654    0.008775309   -0.000000000
      8        1           0.104921307   -0.057233703    0.000000000
      9        1          -0.105338483    0.059210524    0.000000000
     10        1          -0.003670004    0.119459059    0.000000000
     11        1           0.005243688   -0.120725425    0.000000000
     12        1          -0.021972212   -0.013503368    0.000000000
 -------------------------------------------------------------------
 Cartesian Forces:  Max     0.120725425 RMS     0.046573496

 GradGradGradGradGradGradGradGradGradGradGradGradGradGradGradGradGradGrad
 Berny optimization.
 Using GEDIIS/GDIIS optimizer.
 FormGI is forming the generalized inverse of G from B-inverse, IUseBI=4.
 Internal  Forces:  Max     0.120839249 RMS     0.036751312
 Search for a local minimum.
 Step number   4 out of a maximum of   64
 All quantities printed in internal units (Hartrees-Bohrs-Radians)
 Mixed Optimization -- RFO/linear search
 Update second derivatives using D2CorX and points    3    4
 DE= -1.46D-01 DEPred=-1.34D-01 R= 1.09D+00
 TightC=F SS=  1.41D+00  RLast= 4.81D-01 DXNew= 8.4853D-01 1.4418D+00
 Trust test= 1.09D+00 RLast= 4.81D-01 DXMaxT set to 8.49D-01
 ITU=  1  0  1  0
 Use linear search instead of GDIIS.
     Eigenvalues ---    0.00837   0.02011   0.02011   0.02011   0.02011
     Eigenvalues ---    0.02011   0.02011   0.02011   0.02011   0.02011
     Eigenvalues ---    0.06517   0.06524   0.06524   0.07397   0.15991
     Eigenvalues ---    0.16000   0.16000   0.16000   0.16000   0.21287
     Eigenvalues ---    0.22000   0.23485   0.25000   0.29179   0.33685
     Eigenvalues ---    0.40632   0.44490   0.44656   0.44657   0.55883
 RFO step:  Lambda=-1.35803152D-01 EMin= 8.37020920D-03
 Quartic linear search produced a step of  0.88431.
 Maximum step size (   0.849) exceeded in Quadratic search.
    -- Step size scaled by   0.962
 Iteration  1 RMS(Cart)=  0.07039042 RMS(Int)=  0.09482137
 Iteration  2 RMS(Cart)=  0.05447622 RMS(Int)=  0.04054193
 Iteration  3 RMS(Cart)=  0.04052883 RMS(Int)=  0.00018851
 Iteration  4 RMS(Cart)=  0.00000181 RMS(Int)=  0.00018851
 Iteration  5 RMS(Cart)=  0.00000000 RMS(Int)=  0.00018851
 ClnCor:  largest displacement from symmetrization is 3.14D-09 for atom     4.
 Variable       Old X    -DE/DX   Delta X   Delta X   Delta X     New X
                                 (Linear)    (Quad)   (Total)
    R1        2.66557  -0.05021  -0.11010   0.06286  -0.04724   2.61834
    R2        2.67169  -0.03726  -0.06977   0.04137  -0.02868   2.64301
    R3        2.88111  -0.11951  -0.17406  -0.35683  -0.53089   2.35022
    R4        2.70895  -0.05467  -0.14430   0.12326  -0.02076   2.68819
    R5        2.84826  -0.12084  -0.10921  -0.45575  -0.56496   2.28330
    R6        2.70895  -0.05467  -0.14430   0.12325  -0.02076   2.68819
    R7        3.23894  -0.02579  -0.12461   0.05458  -0.07003   3.16892
    R8        2.66557  -0.05021  -0.11010   0.06286  -0.04724   2.61833
    R9        2.84825  -0.12084  -0.10923  -0.45572  -0.56495   2.28330
   R10        2.67169  -0.03726  -0.06976   0.04137  -0.02867   2.64302
   R11        2.88106  -0.11951  -0.17409  -0.35678  -0.53087   2.35019
   R12        3.29460  -0.01676  -0.05474   0.01096  -0.04378   3.25082
    A1        2.10170  -0.00103   0.00119   0.00062   0.00152   2.10322
    A2        2.10070   0.00226   0.00237   0.00473   0.00725   2.10795
    A3        2.08078  -0.00123  -0.00356  -0.00535  -0.00876   2.07202
    A4        2.12242   0.00873   0.01322   0.01683   0.03034   2.15277
    A5        2.07920  -0.00434  -0.00760  -0.00700  -0.01474   2.06446
    A6        2.08156  -0.00439  -0.00562  -0.00984  -0.01560   2.06596
    A7        2.03716  -0.00710   0.00211  -0.05063  -0.04792   1.98924
    A8        2.12302   0.00355  -0.00105   0.02532   0.02396   2.14697
    A9        2.12301   0.00355  -0.00105   0.02532   0.02396   2.14697
   A10        2.12242   0.00873   0.01322   0.01684   0.03034   2.15277
   A11        2.08156  -0.00439  -0.00562  -0.00984  -0.01560   2.06596
   A12        2.07920  -0.00434  -0.00760  -0.00700  -0.01474   2.06446
   A13        2.10170  -0.00103   0.00119   0.00062   0.00151   2.10322
   A14        2.10070   0.00226   0.00237   0.00473   0.00725   2.10795
   A15        2.08079  -0.00123  -0.00356  -0.00535  -0.00876   2.07202
   A16        2.08096  -0.00830  -0.03092   0.01572  -0.01580   2.06516
   A17        2.10111   0.00415   0.01546  -0.00786   0.00790   2.10901
   A18        2.10111   0.00415   0.01546  -0.00786   0.00790   2.10901
    D1        0.00000   0.00000   0.00000  -0.00000   0.00000   0.00000
    D2        3.14159   0.00000   0.00000   0.00000   0.00000   3.14159
    D3        3.14159  -0.00000   0.00000  -0.00000   0.00000   3.14159
    D4        0.00000  -0.00000   0.00000   0.00000   0.00000   0.00000
    D5        0.00000  -0.00000   0.00000   0.00000   0.00000   0.00000
    D6        3.14159   0.00000   0.00000  -0.00000   0.00000   3.14159
    D7        3.14159   0.00000   0.00000   0.00000   0.00000   3.14159
    D8        0.00000   0.00000   0.00000   0.00000   0.00000   0.00000
    D9        0.00000   0.00000   0.00000   0.00000   0.00000   0.00000
   D10        3.14159   0.00000   0.00000   0.00000   0.00000   3.14159
   D11        3.14159  -0.00000   0.00000  -0.00000   0.00000   3.14159
   D12        0.00000   0.00000   0.00000   0.00000   0.00000   0.00000
   D13        0.00000  -0.00000   0.00000  -0.00000   0.00000   0.00000
   D14        3.14159   0.00000   0.00000   0.00000   0.00000   3.14159
   D15        3.14159  -0.00000   0.00000  -0.00000   0.00000   3.14159
   D16        0.00000  -0.00000   0.00000  -0.00000   0.00000   0.00000
   D17        0.00000  -0.00000   0.00000   0.00000   0.00000   0.00000
   D18        3.14159   0.00000   0.00000   0.00000   0.00000   3.14159
   D19        3.14159  -0.00000   0.00000  -0.00000   0.00000   3.14159
   D20        0.00000  -0.00000   0.00000   0.00000   0.00000   0.00000
   D21        0.00000   0.00000   0.00000  -0.00000   0.00000   0.00000
   D22        3.14159  -0.00000   0.00000  -0.00000   0.00000   3.14159
   D23        3.14159  -0.00000   0.00000  -0.00000   0.00000   3.14159
   D24        0.00000  -0.00000   0.00000  -0.00000   0.00000   0.00000
         Item               Value     Threshold  Converged?
 Maximum Force            0.120839     0.000450     NO 
 RMS     Force            0.036751     0.000300     NO 
 Maximum Displacement     0.622321     0.001800     NO 
 RMS     Displacement     0.163831     0.001200     NO 
 Predicted change in Energy=-2.674832D-01
 GradGradGradGradGradGradGradGradGradGradGradGradGradGradGradGradGradGrad

                          Input orientation:                          
 ---------------------------------------------------------------------
 Center     Atomic      Atomic             Coordinates (Angstroms)
 Number     Number       Type             X           Y           Z
 ---------------------------------------------------------------------
      1          6           0       -3.189752    0.191889    0.000000
      2          6           0       -2.005112    0.910508    0.000000
      3          6           0       -0.720240    0.300020    0.000000
      4          6           0       -0.755960   -1.122058    0.000000
      5          6           0       -1.932190   -1.854357    0.000000
      6          6           0       -3.171780   -1.206618    0.000000
      7         17           0       -4.637386   -2.107334    0.000000
      8          1           0       -4.288043    0.775412    0.000000
      9          1           0        0.292436   -1.722715    0.000000
     10          1           0       -1.907681   -3.097784    0.000000
     11          1           0       -2.067434    2.117169    0.000000
     12          1           0        0.708443    1.178040    0.000000
 ---------------------------------------------------------------------
                    Distance matrix (angstroms):
                    1          2          3          4          5
     1  C    0.000000
     2  C    1.385563   0.000000
     3  C    2.471879   1.422531   0.000000
     4  C    2.765827   2.385730   1.422527   0.000000
     5  C    2.401788   2.765827   2.471875   1.385561   0.000000
     6  C    1.398623   2.417300   2.877501   2.417300   1.398624
     7  Cl   2.716997   4.004527   4.597759   4.004527   2.716999
     8  H    1.243681   2.286925   3.599336   4.009489   3.530684
     9  H    3.973832   3.494652   2.262071   1.208273   2.228518
    10  H    3.530673   4.009476   3.599318   2.286909   1.243668
    11  H    2.228520   1.208269   2.262071   3.494647   3.973828
    12  H    4.020998   2.726712   1.676919   2.726707   4.020992
                    6          7          8          9         10
     6  C    0.000000
     7  Cl   1.720259   0.000000
     8  H    2.274750   2.903836   0.000000
     9  H    3.502450   4.944804   5.217416   0.000000
    10  H    2.274743   2.903839   4.546182   2.594481   0.000000
    11  H    3.502448   4.944804   2.594498   4.507072   5.217399
    12  H    4.554419   6.274678   5.012683   2.930433   5.012662
                   11         12
    11  H    0.000000
    12  H    2.930437   0.000000
 Stoichiometry    C6H5Cl(1-,2)
 Framework group  CS[SG(C6H5Cl)]
 Deg. of freedom    21
 Full point group                 CS      NOp   2
 Largest Abelian subgroup         CS      NOp   2
 Largest concise Abelian subgroup C1      NOp   1
                         Standard orientation:                         
 ---------------------------------------------------------------------
 Center     Atomic      Atomic             Coordinates (Angstroms)
 Number     Number       Type             X           Y           Z
 ---------------------------------------------------------------------
      1          6           0       -1.200894   -0.166180    0.000000
      2          6           0       -1.192866   -1.551720    0.000000
      3          6           0        0.000001   -2.326744    0.000000
      4          6           0        1.192864   -1.551721    0.000000
      5          6           0        1.200894   -0.166183    0.000000
      6          6           0       -0.000000    0.550757    0.000000
      7         17           0        0.000000    2.271016    0.000000
      8          1           0       -2.273095    0.464001    0.000000
      9          1           0        2.253537   -2.130422    0.000000
     10          1           0        2.273087    0.463985    0.000000
     11          1           0       -2.253534   -2.130423    0.000000
     12          1           0        0.000004   -4.003662    0.000000
 ---------------------------------------------------------------------
 Rotational constants (GHZ):           5.6521984           1.5206556           1.1982744
 Standard basis: VSTO-6G (5D, 7F)
 There are    26 symmetry adapted cartesian basis functions of A'  symmetry.
[...]
   A13        2.07220   0.00006   0.00016  -0.00005   0.00011   2.07231
   A14        2.11539  -0.00001   0.00011  -0.00004   0.00006   2.11545
   A15        2.09559  -0.00005  -0.00027   0.00010  -0.00017   2.09542
   A16        2.11090   0.00004  -0.00005   0.00006   0.00001   2.11091
   A17        2.08614  -0.00001   0.00003  -0.00003  -0.00000   2.08614
   A18        2.08614  -0.00002   0.00002  -0.00003  -0.00001   2.08614
    D1        0.00000   0.00000   0.00000   0.00000  -0.00000   0.00000
    D2        3.14159   0.00000   0.00000   0.00000   0.00000   3.14159
    D3        3.14159  -0.00000   0.00000  -0.00000   0.00000   3.14159
    D4        0.00000   0.00000   0.00000   0.00000   0.00000   0.00000
    D5       -0.00000  -0.00000   0.00000  -0.00000   0.00000   0.00000
    D6        3.14159  -0.00000   0.00000  -0.00000   0.00000   3.14159
    D7        3.14159   0.00000   0.00000   0.00000   0.00000   3.14159
    D8        0.00000   0.00000   0.00000   0.00000  -0.00000   0.00000
    D9        0.00000  -0.00000   0.00000  -0.00000   0.00000   0.00000
   D10        3.14159   0.00000   0.00000   0.00000   0.00000   3.14159
   D11        3.14159  -0.00000   0.00000  -0.00000   0.00000   3.14159
   D12       -0.00000  -0.00000   0.00000   0.00000   0.00000   0.00000
   D13       -0.00000  -0.00000   0.00000  -0.00000   0.00000   0.00000
   D14        3.14159   0.00000   0.00000   0.00000   0.00000   3.14159
   D15        3.14159  -0.00000   0.00000  -0.00000   0.00000   3.14159
   D16        0.00000  -0.00000   0.00000  -0.00000   0.00000   0.00000
   D17        0.00000   0.00000   0.00000   0.00000   0.00000   0.00000
   D18        3.14159   0.00000   0.00000   0.00000   0.00000   3.14159
   D19        3.14159  -0.00000   0.00000  -0.00000   0.00000   3.14159
   D20       -0.00000  -0.00000   0.00000  -0.00000   0.00000   0.00000
   D21       -0.00000  -0.00000   0.00000  -0.00000   0.00000   0.00000
   D22        3.14159  -0.00000   0.00000   0.00000   0.00000   3.14159
   D23        3.14159  -0.00000   0.00000  -0.00000   0.00000   3.14159
   D24        0.00000  -0.00000   0.00000  -0.00000  -0.00000   0.00000
         Item               Value     Threshold  Converged?
 Maximum Force            0.000436     0.000450     YES
 RMS     Force            0.000112     0.000300     YES
 Maximum Displacement     0.001259     0.001800     YES
 RMS     Displacement     0.000342     0.001200     YES
 Predicted change in Energy=-9.401696D-07
 Optimization completed.
    -- Stationary point found.
                           ----------------------------
                           !   Optimized Parameters   !
                           ! (Angstroms and Degrees)  !
 --------------------------                            --------------------------
 ! Name  Definition              Value          Derivative Info.                !
 --------------------------------------------------------------------------------
 ! R1    R(1,2)                  1.396          -DE/DX =    0.0003              !
 ! R2    R(1,6)                  1.398          -DE/DX =    0.0001              !
 ! R3    R(1,8)                  1.0981         -DE/DX =    0.0002              !
 ! R4    R(2,3)                  1.3987         -DE/DX =    0.0003              !
 ! R5    R(2,11)                 1.0983         -DE/DX =    0.0003              !
 ! R6    R(3,4)                  1.3988         -DE/DX =    0.0002              !
 ! R7    R(3,12)                 1.3913         -DE/DX =   -0.0002              !
 ! R8    R(4,5)                  1.396          -DE/DX =    0.0002              !
 ! R9    R(4,9)                  1.099          -DE/DX =   -0.0002              !
 ! R10   R(5,6)                  1.398          -DE/DX =    0.0                 !
 ! R11   R(5,10)                 1.099          -DE/DX =   -0.0004              !
 ! R12   R(6,7)                  1.7255         -DE/DX =   -0.0001              !
 ! A1    A(2,1,6)              118.7293         -DE/DX =    0.0                 !
 ! A2    A(2,1,8)              121.2027         -DE/DX =    0.0                 !
 ! A3    A(6,1,8)              120.068          -DE/DX =    0.0                 !
 ! A4    A(1,2,3)              121.9531         -DE/DX =   -0.0001              !
 ! A5    A(1,2,11)             118.9902         -DE/DX =    0.0                 !
 ! A6    A(3,2,11)             119.0567         -DE/DX =    0.0                 !
 ! A7    A(2,3,4)              117.6912         -DE/DX =    0.0                 !
 ! A8    A(2,3,12)             121.1544         -DE/DX =    0.0                 !
 ! A9    A(4,3,12)             121.1543         -DE/DX =    0.0                 !
 ! A10   A(3,4,5)              121.9524         -DE/DX =    0.0                 !
 ! A11   A(3,4,9)              119.0568         -DE/DX =    0.0                 !
 ! A12   A(5,4,9)              118.9907         -DE/DX =    0.0                 !
 ! A13   A(4,5,6)              118.7283         -DE/DX =    0.0001              !
 ! A14   A(4,5,10)             121.2031         -DE/DX =    0.0                 !
 ! A15   A(6,5,10)             120.0686         -DE/DX =    0.0                 !
 ! A16   A(1,6,5)              120.9457         -DE/DX =    0.0                 !
 ! A17   A(1,6,7)              119.5271         -DE/DX =    0.0                 !
 ! A18   A(5,6,7)              119.5273         -DE/DX =    0.0                 !
 ! D1    D(6,1,2,3)              0.0            -DE/DX =    0.0                 !
 ! D2    D(6,1,2,11)           180.0            -DE/DX =    0.0                 !
 ! D3    D(8,1,2,3)            180.0            -DE/DX =    0.0                 !
 ! D4    D(8,1,2,11)             0.0            -DE/DX =    0.0                 !
 ! D5    D(2,1,6,5)              0.0            -DE/DX =    0.0                 !
 ! D6    D(2,1,6,7)            180.0            -DE/DX =    0.0                 !
 ! D7    D(8,1,6,5)            180.0            -DE/DX =    0.0                 !
 ! D8    D(8,1,6,7)              0.0            -DE/DX =    0.0                 !
 ! D9    D(1,2,3,4)              0.0            -DE/DX =    0.0                 !
 ! D10   D(1,2,3,12)           180.0            -DE/DX =    0.0                 !
 ! D11   D(11,2,3,4)           180.0            -DE/DX =    0.0                 !
 ! D12   D(11,2,3,12)            0.0            -DE/DX =    0.0                 !
 ! D13   D(2,3,4,5)              0.0            -DE/DX =    0.0                 !
 ! D14   D(2,3,4,9)            180.0            -DE/DX =    0.0                 !
 ! D15   D(12,3,4,5)           180.0            -DE/DX =    0.0                 !
 ! D16   D(12,3,4,9)             0.0            -DE/DX =    0.0                 !
 ! D17   D(3,4,5,6)              0.0            -DE/DX =    0.0                 !
 ! D18   D(3,4,5,10)           180.0            -DE/DX =    0.0                 !
 ! D19   D(9,4,5,6)            180.0            -DE/DX =    0.0                 !
 ! D20   D(9,4,5,10)             0.0            -DE/DX =    0.0                 !
 ! D21   D(4,5,6,1)              0.0            -DE/DX =    0.0                 !
 ! D22   D(4,5,6,7)            180.0            -DE/DX =    0.0                 !
 ! D23   D(10,5,6,1)           180.0            -DE/DX =    0.0                 !
 ! D24   D(10,5,6,7)             0.0            -DE/DX =    0.0                 !
 --------------------------------------------------------------------------------
 GradGradGradGradGradGradGradGradGradGradGradGradGradGradGradGradGradGrad

                          Input orientation:                          
 ---------------------------------------------------------------------
 Center     Atomic      Atomic             Coordinates (Angstroms)
 Number     Number       Type             X           Y           Z
 ---------------------------------------------------------------------
      1          6           0       -3.184241    0.213676    0.000000
      2          6           0       -1.984837    0.927965    0.000000
      3          6           0       -0.741573    0.287050   -0.000000
      4          6           0       -0.731328   -1.111665   -0.000000
      5          6           0       -1.910383   -1.859111   -0.000000
      6          6           0       -3.134328   -1.183467   -0.000000
      7         17           0       -4.604405   -2.086913   -0.000000
      8          1           0       -4.153644    0.729593    0.000000
      9          1           0        0.233275   -1.638396   -0.000000
     10          1           0       -1.887961   -2.957882   -0.000000
     11          1           0       -2.019052    2.025780    0.000000
     12          1           0        0.443777    1.015541   -0.000000
 ---------------------------------------------------------------------
                    Distance matrix (angstroms):
                    1          2          3          4          5
     1  C    0.000000
     2  C    1.395986   0.000000
     3  C    2.443770   1.398742   0.000000
     4  C    2.788066   2.394029   1.398752   0.000000
     5  C    2.432932   2.788070   2.443793   1.396011   0.000000
     6  C    1.398034   2.404054   2.808504   2.404072   1.398047
     7  Cl   2.703623   3.993949   4.534002   3.993975   2.703636
     8  H    1.098140   2.177860   3.440650   3.886190   3.425435
     9  H    3.887105   3.392083   2.158163   1.099047   2.154990
    10  H    3.426240   3.887054   3.441480   2.178604   1.099000
    11  H    2.154387   1.098348   2.157577   3.391430   3.886410
    12  H    3.715576   2.430193   1.391314   2.430201   3.715601
                    6          7          8          9         10
     6  C    0.000000
     7  Cl   1.725497   0.000000
     8  H    2.167673   2.852348   0.000000
     9  H    3.398192   4.858427   4.985221   0.000000
    10  H    2.168404   2.852657   4.327908   2.498136   0.000000
    11  H    3.397515   4.857807   2.497315   4.301065   4.985386
    12  H    4.199818   5.925315   4.606305   2.662272   4.607070
                   11         12
    11  H    0.000000
    12  H    2.661975   0.000000
 Stoichiometry    C6H5Cl(1-,2)
 Framework group  CS[SG(C6H5Cl)]
 Deg. of freedom    21
 Full point group                 CS      NOp   2
 Largest Abelian subgroup         CS      NOp   2
 Largest concise Abelian subgroup C1      NOp   1
                         Standard orientation:                         
 ---------------------------------------------------------------------
 Center     Atomic      Atomic             Coordinates (Angstroms)
 Number     Number       Type             X           Y           Z
 ---------------------------------------------------------------------
      1          6           0       -1.216485   -0.162557    0.000000
      2          6           0       -1.197096   -1.558409    0.000000
      3          6           0       -0.000122   -2.282102    0.000000
      4          6           0        1.196934   -1.558523    0.000000
      5          6           0        1.216447   -0.162649    0.000000
      6          6           0        0.000000    0.526402    0.000000
      7         17           0        0.000057    2.251899    0.000000
      8          1           0       -2.163579    0.393253    0.000000
      9          1           0        2.150728   -2.104582    0.000000
     10          1           0        2.164329    0.393518    0.000000
     11          1           0       -2.150337   -2.104027    0.000000
     12          1           0       -0.000190   -3.673416    0.000000
 ---------------------------------------------------------------------
 Rotational constants (GHZ):           5.6999445           1.5590714           1.2242183

 **********************************************************************

            Population analysis using the SCF Density.

 **********************************************************************

 Orbital symmetries:
 Alpha Orbitals:
       Occupied  (A') (A') (A') (A') (A') (A') (A') (A') (A') (A")
                 (A') (A') (A') (A") (A') (A') (A") (A") (A')
       Virtual   (A") (A") (A') (A") (A') (A') (A') (A') (A') (A')
                 (A') (A') (A') (A')
 Beta  Orbitals:
       Occupied  (A') (A') (A') (A') (A') (A') (A') (A') (A') (A")
                 (A') (A') (A') (A") (A') (A") (A') (A")
       Virtual   (A") (A') (A") (A') (A") (A') (A') (A') (A') (A')
                 (A') (A') (A') (A') (A')
 The electronic state is 2-A'.
 Alpha  occ. eigenvalues --   -1.26551  -1.20997  -0.98186  -0.94069  -0.67625
 Alpha  occ. eigenvalues --   -0.65676  -0.49063  -0.41632  -0.40128  -0.36207
 Alpha  occ. eigenvalues --   -0.35506  -0.34353  -0.29978  -0.28699  -0.25601
 Alpha  occ. eigenvalues --   -0.20938  -0.19045  -0.15713   0.01531
 Alpha virt. eigenvalues --    0.19290   0.19536   0.20721   0.29443   0.30015
 Alpha virt. eigenvalues --    0.30649   0.33180   0.33645   0.35257   0.35918
 Alpha virt. eigenvalues --    0.36588   0.37086   0.40634   0.41778
  Beta  occ. eigenvalues --   -1.26497  -1.20862  -0.98016  -0.93678  -0.67618
  Beta  occ. eigenvalues --   -0.64975  -0.49067  -0.41030  -0.39959  -0.36456
  Beta  occ. eigenvalues --   -0.35438  -0.33976  -0.29881  -0.28540  -0.25432
  Beta  occ. eigenvalues --   -0.18795  -0.16550  -0.16172
  Beta virt. eigenvalues --    0.19183   0.20261   0.20577   0.30291   0.30706
  Beta virt. eigenvalues --    0.31000   0.33240   0.33361   0.34704   0.36262
  Beta virt. eigenvalues --    0.36539   0.37029   0.40202   0.42867   0.44604
          Condensed to atoms (all electrons):
               1          2          3          4          5          6
     1  C    4.154368   0.000000   0.000000   0.000000   0.000000   0.000000
     2  C    0.000000   4.172339   0.000000   0.000000   0.000000   0.000000
     3  C    0.000000   0.000000   4.115117   0.000000   0.000000   0.000000
     4  C    0.000000   0.000000   0.000000   4.172322   0.000000   0.000000
     5  C    0.000000   0.000000   0.000000   0.000000   4.154365   0.000000
     6  C    0.000000   0.000000   0.000000   0.000000   0.000000   4.126111
     7  Cl   0.000000   0.000000   0.000000   0.000000   0.000000   0.000000
     8  H    0.000000   0.000000   0.000000   0.000000   0.000000   0.000000
     9  H    0.000000   0.000000   0.000000   0.000000   0.000000   0.000000
    10  H    0.000000   0.000000   0.000000   0.000000   0.000000   0.000000
    11  H    0.000000   0.000000   0.000000   0.000000   0.000000   0.000000
    12  H    0.000000   0.000000   0.000000   0.000000   0.000000   0.000000
               7          8          9         10         11         12
     1  C    0.000000   0.000000   0.000000   0.000000   0.000000   0.000000
     2  C    0.000000   0.000000   0.000000   0.000000   0.000000   0.000000
     3  C    0.000000   0.000000   0.000000   0.000000   0.000000   0.000000
     4  C    0.000000   0.000000   0.000000   0.000000   0.000000   0.000000
     5  C    0.000000   0.000000   0.000000   0.000000   0.000000   0.000000
     6  C    0.000000   0.000000   0.000000   0.000000   0.000000   0.000000
     7  Cl   7.139401   0.000000   0.000000   0.000000   0.000000   0.000000
     8  H    0.000000   0.906845   0.000000   0.000000   0.000000   0.000000
     9  H    0.000000   0.000000   0.905714   0.000000   0.000000   0.000000
    10  H    0.000000   0.000000   0.000000   0.906854   0.000000   0.000000
    11  H    0.000000   0.000000   0.000000   0.000000   0.905698   0.000000
    12  H    0.000000   0.000000   0.000000   0.000000   0.000000   1.340866
          Atomic-Atomic Spin Densities.
               1          2          3          4          5          6
     1  C    0.216200   0.000000   0.000000   0.000000   0.000000   0.000000
     2  C    0.000000  -0.192115   0.000000   0.000000   0.000000   0.000000
     3  C    0.000000   0.000000   0.515399   0.000000   0.000000   0.000000
     4  C    0.000000   0.000000   0.000000  -0.192149   0.000000   0.000000
     5  C    0.000000   0.000000   0.000000   0.000000   0.216216   0.000000
     6  C    0.000000   0.000000   0.000000   0.000000   0.000000  -0.216877
     7  Cl   0.000000   0.000000   0.000000   0.000000   0.000000   0.000000
     8  H    0.000000   0.000000   0.000000   0.000000   0.000000   0.000000
     9  H    0.000000   0.000000   0.000000   0.000000   0.000000   0.000000
    10  H    0.000000   0.000000   0.000000   0.000000   0.000000   0.000000
    11  H    0.000000   0.000000   0.000000   0.000000   0.000000   0.000000
    12  H    0.000000   0.000000   0.000000   0.000000   0.000000   0.000000
               7          8          9         10         11         12
     1  C    0.000000   0.000000   0.000000   0.000000   0.000000   0.000000
     2  C    0.000000   0.000000   0.000000   0.000000   0.000000   0.000000
     3  C    0.000000   0.000000   0.000000   0.000000   0.000000   0.000000
     4  C    0.000000   0.000000   0.000000   0.000000   0.000000   0.000000
     5  C    0.000000   0.000000   0.000000   0.000000   0.000000   0.000000
     6  C    0.000000   0.000000   0.000000   0.000000   0.000000   0.000000
     7  Cl   0.006527   0.000000   0.000000   0.000000   0.000000   0.000000
     8  H    0.000000  -0.009371   0.000000   0.000000   0.000000   0.000000
     9  H    0.000000   0.000000   0.011628   0.000000   0.000000   0.000000
    10  H    0.000000   0.000000   0.000000  -0.009378   0.000000   0.000000
    11  H    0.000000   0.000000   0.000000   0.000000   0.011613   0.000000
    12  H    0.000000   0.000000   0.000000   0.000000   0.000000   0.642307
 Mulliken charges and spin densities:
               1          2
     1  C   -0.154368   0.216200
     2  C   -0.172339  -0.192115
     3  C   -0.115117   0.515399
     4  C   -0.172322  -0.192149
     5  C   -0.154365   0.216216
     6  C   -0.126111  -0.216877
     7  Cl  -0.139401   0.006527
     8  H    0.093155  -0.009371
     9  H    0.094286   0.011628
    10  H    0.093146  -0.009378
    11  H    0.094302   0.011613
    12  H   -0.340866   0.642307
 Sum of Mulliken charges =  -1.00000   1.00000
 Mulliken charges and spin densities with hydrogens summed into heavy atoms:
               1          2
     1  C   -0.061213   0.206830
     2  C   -0.078037  -0.180503
     3  C   -0.455983   1.157706
     4  C   -0.078035  -0.180521
     5  C   -0.061219   0.206838
     6  C   -0.126111  -0.216877
     7  Cl  -0.139401   0.006527
 Charge=             -1.0000 electrons
 Dipole moment (field-independent basis, Debye):
    X=              0.0007    Y=              8.2494    Z=              0.0000  Tot=              8.2494
 N-N= 1.591537628891D+02 E-N=-2.287962472432D+02  KE=-7.037524828110D+01
 Symmetry A'   KE=-5.553903811646D+01
 Symmetry A"   KE=-1.483621016464D+01
 Symmetry A'   SP= 1.000000000000D+00
 Symmetry A"   SP=-2.053912595557D-15
 1\1\GINC-SH02-01N46\FOpt\UAM1\ZDO\C6H5Cl1(1-,2)\JLAPIER\08-Dec-2025\0\
 \# opt am1 SCF(maxcyc=100000)\\1-Chloro-Benzene Anion Radical (1)\\-1,
 2\C,-3.1842408546,0.2136759258,0.\C,-1.984837143,0.927965027,0.\C,-0.7
 41572841,0.2870497807,0.\C,-0.7313280275,-1.111664991,0.\C,-1.91038290
 48,-1.8591108554,0.\C,-3.134327785,-1.1834672438,0.\Cl,-4.6044048327,-
 2.0869131286,0.\H,-4.1536438023,0.7295928556,0.\H,0.2332748264,-1.6383
 960628,0.\H,-1.8879613741,-2.9578818357,0.\H,-2.0190524008,2.025779927
 3,0.\H,0.4437771394,1.0155406009,0.\\Version=ES64L-G16RevB.01\State=2-
 A'\HF=0.1111296\S2=0.852907\S2-1=0.\S2A=0.757419\RMSD=4.801e-09\RMSF=1
 .777e-04\Dipole=-2.7650442,-1.6994715,0.\PG=CS [SG(C6H5Cl1)]\\@


 PERICLES, SOPHOCLES,
 PELOPONESIAN WAR,
 FRENCH VERBS, LATIN VERBS
 H2SO4.
 Job cpu time:       0 days  0 hours  0 minutes 10.4 seconds.
 Elapsed time:       0 days  0 hours  0 minutes 19.4 seconds.
 File lengths (MBytes):  RWF=     10 Int=      0 D2E=      0 Chk=      2 Scr=      1
 Normal termination of Gaussian 16 at Mon Dec  8 18:17:42 2025.
