 Entering Gaussian System, Link 0=g16
 Initial command:
 /share/software/user/restricted/gaussian/g16.B01/l1.exe "/home/users/jlapier/Chloroaromatics/Gau-1237.inp" -scrdir="/home/users/jlapier/Chloroaromatics/"
 Entering Link 1 = /share/software/user/restricted/gaussian/g16.B01/l1.exe PID=      1241.
  
 Copyright (c) 1988-2017, Gaussian, Inc.  All Rights Reserved.
  
 This is part of the Gaussian(R) 16 program.  It is based on
 the Gaussian(R) 09 system (copyright 2009, Gaussian, Inc.),
 the Gaussian(R) 03 system (copyright 2003, Gaussian, Inc.),
 the Gaussian(R) 98 system (copyright 1998, Gaussian, Inc.),
 the Gaussian(R) 94 system (copyright 1995, Gaussian, Inc.),
 the Gaussian 92(TM) system (copyright 1992, Gaussian, Inc.),
 the Gaussian 90(TM) system (copyright 1990, Gaussian, Inc.),
 the Gaussian 88(TM) system (copyright 1988, Gaussian, Inc.),
 the Gaussian 86(TM) system (copyright 1986, Carnegie Mellon
 University), and the Gaussian 82(TM) system (copyright 1983,
 Carnegie Mellon University). Gaussian is a federally registered
 trademark of Gaussian, Inc.
  
 This software contains proprietary and confidential information,
 including trade secrets, belonging to Gaussian, Inc.
  
 This software is provided under written license and may be
 used, copied, transmitted, or stored only in accord with that
 written license.
  
 The following legend is applicable only to US Government
 contracts under FAR:
  
                    RESTRICTED RIGHTS LEGEND
  
 Use, reproduction and disclosure by the US Government is
 subject to restrictions as set forth in subparagraphs (a)
 and (c) of the Commercial Computer Software - Restricted
 Rights clause in FAR 52.227-19.
  
 Gaussian, Inc.
 340 Quinnipiac St., Bldg. 40, Wallingford CT 06492
  
  
 ---------------------------------------------------------------
 Warning -- This program may not be used in any manner that
 competes with the business of Gaussian, Inc. or will provide
 assistance to any competitor of Gaussian, Inc.  The licensee
 of this program is prohibited from giving any competitor of
 Gaussian, Inc. access to this program.  By using this program,
 the user acknowledges that Gaussian, Inc. is engaged in the
 business of creating and licensing software in the field of
 computational chemistry and represents and warrants to the
 licensee that it is not a competitor of Gaussian, Inc. and that
 it will not use this program in any manner prohibited above.
 ---------------------------------------------------------------
  

 Cite this work as:
 Gaussian 16, Revision B.01,
 M. J. Frisch, G. W. Trucks, H. B. Schlegel, G. E. Scuseria, 
 M. A. Robb, J. R. Cheeseman, G. Scalmani, V. Barone, 
 G. A. Petersson, H. Nakatsuji, X. Li, M. Caricato, A. V. Marenich, 
 J. Bloino, B. G. Janesko, R. Gomperts, B. Mennucci, H. P. Hratchian, 
 J. V. Ortiz, A. F. Izmaylov, J. L. Sonnenberg, D. Williams-Young, 
 F. Ding, F. Lipparini, F. Egidi, J. Goings, B. Peng, A. Petrone, 
 T. Henderson, D. Ranasinghe, V. G. Zakrzewski, J. Gao, N. Rega, 
 G. Zheng, W. Liang, M. Hada, M. Ehara, K. Toyota, R. Fukuda, 
 J. Hasegawa, M. Ishida, T. Nakajima, Y. Honda, O. Kitao, H. Nakai, 
 T. Vreven, K. Throssell, J. A. Montgomery, Jr., J. E. Peralta, 
 F. Ogliaro, M. J. Bearpark, J. J. Heyd, E. N. Brothers, K. N. Kudin, 
 V. N. Staroverov, T. A. Keith, R. Kobayashi, J. Normand, 
 K. Raghavachari, A. P. Rendell, J. C. Burant, S. S. Iyengar, 
 J. Tomasi, M. Cossi, J. M. Millam, M. Klene, C. Adamo, R. Cammi, 
 J. W. Ochterski, R. L. Martin, K. Morokuma, O. Farkas, 
 J. B. Foresman, and D. J. Fox, Gaussian, Inc., Wallingford CT, 2016.
 
 ******************************************
 Gaussian 16:  ES64L-G16RevB.01 20-Dec-2017
                 9-Dec-2025 
 ******************************************
 %mem=2GB
 %nprocshare=1
 Will use up to    1 processors via shared memory.
 %chk=geometry_chks/1ClBz.chk
 -----------------
 # opt am1 SCF=XQC
 -----------------
 1/18=20,19=15,26=1,38=1/1,3;
 2/9=110,12=2,17=6,18=5,40=1/2;
 3/5=2,25=1,41=700000,71=1/1,2,3;
 4/35=1/1;
 5/5=2,8=3,13=1,35=1,38=5/2,8;
 6/7=2,8=2,9=2,10=2,28=1/1;
 7//1,2,3,16;
 1/18=20,19=15,26=1/3(2);
 2/9=110/2;
 99//99;
 2/9=110/2;
 3/5=2,25=1,41=700000,71=1,135=20/1,2,3;
 4/5=5,16=3,35=1/1;
 5/5=2,8=3,13=1,35=1,38=5/2,8;
 7//1,2,3,16;
 1/18=20,19=15,26=1/3(-5);
 2/9=110/2;
 6/7=2,8=2,9=2,10=2,19=2,28=1/1;
 99/9=1/99;
 --------------------
 1-Chloro-Benzene (1)
 --------------------
 Symbolic Z-matrix:
 Charge =  0 Multiplicity = 1
 C                    -3.20928   0.19943   0. 
 C                    -2.0115    0.93555   0. 
 C                    -0.77511   0.2663    0. 
 C                    -0.7365   -1.13907   0. 
 C                    -1.93429  -1.87519   0. 
 C                    -3.17067  -1.20594   0. 
 Cl                   -4.67483  -2.13035   0. 
 H                    -4.76193   1.03987   0. 
 H                    -2.05998   2.7004    0. 
 H                     0.72905   1.19071   0. 
 H                     0.81614  -1.97951   0. 
 H                    -1.8858   -3.64003   0. 
 
 Add virtual bond connecting atoms H12        and C5         Dist= 3.34D+00.
 Add virtual bond connecting atoms H11        and C4         Dist= 3.34D+00.
 Add virtual bond connecting atoms H10        and C3         Dist= 3.34D+00.
 Add virtual bond connecting atoms H9         and C2         Dist= 3.34D+00.
 Add virtual bond connecting atoms H8         and C1         Dist= 3.34D+00.

 GradGradGradGradGradGradGradGradGradGradGradGradGradGradGradGradGradGrad
 Berny optimization.
 Initialization pass.
                           ----------------------------
                           !    Initial Parameters    !
                           ! (Angstroms and Degrees)  !
 --------------------------                            --------------------------
 ! Name  Definition              Value          Derivative Info.                !
 --------------------------------------------------------------------------------
 ! R1    R(1,2)                  1.4059         estimate D2E/DX2                !
 ! R2    R(1,6)                  1.4059         estimate D2E/DX2                !
 ! R3    R(1,8)                  1.7655         estimate D2E/DX2                !
 ! R4    R(2,3)                  1.4059         estimate D2E/DX2                !
 ! R5    R(2,9)                  1.7655         estimate D2E/DX2                !
 ! R6    R(3,4)                  1.4059         estimate D2E/DX2                !
 ! R7    R(3,10)                 1.7655         estimate D2E/DX2                !
 ! R8    R(4,5)                  1.4059         estimate D2E/DX2                !
 ! R9    R(4,11)                 1.7655         estimate D2E/DX2                !
 ! R10   R(5,6)                  1.4059         estimate D2E/DX2                !
 ! R11   R(5,12)                 1.7655         estimate D2E/DX2                !
 ! R12   R(6,7)                  1.7655         estimate D2E/DX2                !
 ! A1    A(2,1,6)              119.9999         estimate D2E/DX2                !
 ! A2    A(2,1,8)              119.9999         estimate D2E/DX2                !
 ! A3    A(6,1,8)              120.0001         estimate D2E/DX2                !
 ! A4    A(1,2,3)              120.0            estimate D2E/DX2                !
 ! A5    A(1,2,9)              120.0001         estimate D2E/DX2                !
 ! A6    A(3,2,9)              119.9999         estimate D2E/DX2                !
 ! A7    A(2,3,4)              120.0001         estimate D2E/DX2                !
 ! A8    A(2,3,10)             120.0            estimate D2E/DX2                !
 ! A9    A(4,3,10)             119.9999         estimate D2E/DX2                !
 ! A10   A(3,4,5)              119.9997         estimate D2E/DX2                !
 ! A11   A(3,4,11)             120.0003         estimate D2E/DX2                !
 ! A12   A(5,4,11)             120.0            estimate D2E/DX2                !
 ! A13   A(4,5,6)              120.0            estimate D2E/DX2                !
 ! A14   A(4,5,12)             119.9996         estimate D2E/DX2                !
 ! A15   A(6,5,12)             120.0004         estimate D2E/DX2                !
 ! A16   A(1,6,5)              120.0003         estimate D2E/DX2                !
 ! A17   A(1,6,7)              119.9999         estimate D2E/DX2                !
 ! A18   A(5,6,7)              119.9998         estimate D2E/DX2                !
 ! D1    D(6,1,2,3)              0.0            estimate D2E/DX2                !
 ! D2    D(6,1,2,9)            180.0            estimate D2E/DX2                !
 ! D3    D(8,1,2,3)            180.0            estimate D2E/DX2                !
 ! D4    D(8,1,2,9)              0.0            estimate D2E/DX2                !
 ! D5    D(2,1,6,5)              0.0            estimate D2E/DX2                !
 ! D6    D(2,1,6,7)            180.0            estimate D2E/DX2                !
 ! D7    D(8,1,6,5)            180.0            estimate D2E/DX2                !
 ! D8    D(8,1,6,7)              0.0            estimate D2E/DX2                !
 ! D9    D(1,2,3,4)              0.0            estimate D2E/DX2                !
 ! D10   D(1,2,3,10)           180.0            estimate D2E/DX2                !
 ! D11   D(9,2,3,4)            180.0            estimate D2E/DX2                !
 ! D12   D(9,2,3,10)             0.0            estimate D2E/DX2                !
 ! D13   D(2,3,4,5)              0.0            estimate D2E/DX2                !
 ! D14   D(2,3,4,11)           180.0            estimate D2E/DX2                !
 ! D15   D(10,3,4,5)           180.0            estimate D2E/DX2                !
 ! D16   D(10,3,4,11)            0.0            estimate D2E/DX2                !
 ! D17   D(3,4,5,6)              0.0            estimate D2E/DX2                !
 ! D18   D(3,4,5,12)           180.0            estimate D2E/DX2                !
 ! D19   D(11,4,5,6)           180.0            estimate D2E/DX2                !
 ! D20   D(11,4,5,12)            0.0            estimate D2E/DX2                !
 ! D21   D(4,5,6,1)              0.0            estimate D2E/DX2                !
 ! D22   D(4,5,6,7)            180.0            estimate D2E/DX2                !
 ! D23   D(12,5,6,1)           180.0            estimate D2E/DX2                !
 ! D24   D(12,5,6,7)             0.0            estimate D2E/DX2                !
 --------------------------------------------------------------------------------
 Trust Radius=3.00D-01 FncErr=1.00D-07 GrdErr=1.00D-07 EigMax=2.50D+02 EigMin=1.00D-04
 Number of steps in this run=     64 maximum allowed number of steps=    100.
 GradGradGradGradGradGradGradGradGradGradGradGradGradGradGradGradGradGrad

                          Input orientation:                          
 ---------------------------------------------------------------------
 Center     Atomic      Atomic             Coordinates (Angstroms)
 Number     Number       Type             X           Y           Z
 ---------------------------------------------------------------------
      1          6           0       -3.209280    0.199430    0.000000
      2          6           0       -2.011500    0.935550    0.000000
      3          6           0       -0.775110    0.266300    0.000000
      4          6           0       -0.736500   -1.139070    0.000000
      5          6           0       -1.934290   -1.875190    0.000000
      6          6           0       -3.170670   -1.205940    0.000000
      7         17           0       -4.674830   -2.130350    0.000000
      8          1           0       -4.761930    1.039870    0.000000
      9          1           0       -2.059980    2.700400    0.000000
     10          1           0        0.729050    1.190710    0.000000
     11          1           0        0.816140   -1.979510    0.000000
     12          1           0       -1.885800   -3.640030    0.000000
 ---------------------------------------------------------------------
                    Distance matrix (angstroms):
                    1          2          3          4          5
     1  C    0.000000
     2  C    1.405898   0.000000
     3  C    2.435088   1.405900   0.000000
     4  C    2.811801   2.435092   1.405900   0.000000
     5  C    2.435087   2.811800   2.435093   1.405907   0.000000
     6  C    1.405900   2.435088   2.811796   2.435088   1.405892
     7  Cl   2.752401   4.061166   4.577308   4.061167   2.752393
     8  H    1.765520   2.752408   4.061175   4.577321   4.061173
     9  H    2.752406   1.765516   2.752405   4.061173   4.577316
    10  H    4.061167   2.752403   1.765512   2.752401   4.061173
    11  H    4.577312   4.061173   2.752406   1.765511   2.752408
    12  H    4.061164   4.577306   4.061163   2.752397   1.765506
                    6          7          8          9         10
     6  C    0.000000
     7  Cl   1.765512   0.000000
     8  H    2.752412   3.171416   0.000000
     9  H    4.061173   5.493049   3.171418   0.000000
    10  H    4.577308   6.342819   5.493051   3.171412   0.000000
    11  H    4.061165   5.493041   6.342832   5.493052   3.171416
    12  H    2.752396   3.171407   5.493049   6.342822   5.493040
                   11         12
    11  H    0.000000
    12  H    3.171404   0.000000
 Stoichiometry    C6H5Cl
 Framework group  CS[SG(C6H5Cl)]
 Deg. of freedom    21
 Full point group                 CS      NOp   2
 Largest Abelian subgroup         CS      NOp   2
 Largest concise Abelian subgroup C1      NOp   1
                         Standard orientation:                         
 ---------------------------------------------------------------------
 Center     Atomic      Atomic             Coordinates (Angstroms)
 Number     Number       Type             X           Y           Z
 ---------------------------------------------------------------------
      1          6           0       -1.217545   -0.171923   -0.000000
      2          6           0       -1.217545   -1.577822   -0.000000
      3          6           0        0.000001   -2.280771   -0.000000
      4          6           0        1.217547   -1.577822   -0.000000
      5          6           0        1.217542   -0.171915    0.000000
      6          6           0        0.000001    0.531026    0.000000
      7         17           0       -0.000000    2.296537    0.000000
      8          1           0       -2.746531    0.710835    0.000000
      9          1           0       -2.746524   -2.460583   -0.000000
     10          1           0        0.000003   -4.046282   -0.000000
     11          1           0        2.746528   -2.460572   -0.000000
     12          1           0        2.746518    0.710833    0.000000
 ---------------------------------------------------------------------
 Rotational constants (GHZ):           4.9758856           1.4882741           1.1456217
 Standard basis: VSTO-6G (5D, 7F)
 There are    26 symmetry adapted cartesian basis functions of A'  symmetry.
 There are     7 symmetry adapted cartesian basis functions of A"  symmetry.
 There are    26 symmetry adapted basis functions of A'  symmetry.
 There are     7 symmetry adapted basis functions of A"  symmetry.
    33 basis functions,   198 primitive gaussians,    33 cartesian basis functions
    18 alpha electrons       18 beta electrons
       nuclear repulsion energy       153.2264601429 Hartrees.
 Integral buffers will be    131072 words long.
 Regular integral format.
 Two-electron integral symmetry is turned off.
 Do NDO integrals.
 One-electron integrals computed using PRISM.
 NBasis=    33 RedAO= T EigKep=  1.00D+00  NBF=    26     7
 NBsUse=    33 1.00D-06 EigRej= -1.00D+00 NBFU=    26     7
 Simple Huckel Guess.
 Initial guess orbital symmetries:
       Occupied  (A') (A') (A') (A') (A') (A') (A') (A') (A") (A')
                 (A') (A') (A") (A') (A') (A") (A') (A")
       Virtual   (A') (A') (A") (A") (A') (A') (A') (A") (A') (A')
                 (A') (A') (A') (A') (A')
 The electronic state of the initial guess is 1-A'.
 Keep J ints in memory in canonical form, NReq=862182.
 Overlap will be assumed to be unity.
 Requested convergence on RMS density matrix=1.00D-08 within  32 cycles.
 Requested convergence on MAX density matrix=1.00D-06.
 Requested convergence on             energy=1.00D-06.
 No special actions if energy rises.
 Fock symm off for IB=2 I1=    1 I=   27 J=   12 Cut=1.00D-07 Err=2.52D-03
 Fock matrix is not symmetric: symmetry in diagonalization turned off.
 SCF Done:  E(RAM1) =  0.636504766116     A.U. after   15 cycles
            NFock= 14  Conv=0.40D-08     -V/T= 1.0092
 QCSCF skips out because SCF is already converged.

 **********************************************************************

            Population analysis using the SCF Density.

 **********************************************************************

 Orbital symmetries:
       Occupied  (A') (A') (A') (A') (A') (A') (A') (A') (A") (A')
                 (A") (A') (A') (A') (A') (A') (A") (A")
       Virtual   (A') (A') (A') (A") (A') (A") (A') (A') (A") (A')
                 (A') (A') (A') (A') (A')
 The electronic state is 1-A'.
 Alpha  occ. eigenvalues --   -1.38801  -1.34141  -1.08298  -1.06999  -0.78878
 Alpha  occ. eigenvalues --   -0.77324  -0.57718  -0.56301  -0.50187  -0.47869
 Alpha  occ. eigenvalues --   -0.43696  -0.43241  -0.42954  -0.41315  -0.36962
 Alpha  occ. eigenvalues --   -0.35370  -0.34161  -0.33528
 Alpha virt. eigenvalues --   -0.00032   0.01354   0.01914   0.02350   0.02891
 Alpha virt. eigenvalues --    0.03058   0.04650   0.06437   0.11560   0.17509
 Alpha virt. eigenvalues --    0.17737   0.19719   0.20378   0.20854   0.22280
          Condensed to atoms (all electrons):
               1          2          3          4          5          6
     1  C    4.139400   0.000000   0.000000   0.000000   0.000000   0.000000
     2  C    0.000000   4.144500   0.000000   0.000000   0.000000   0.000000
     3  C    0.000000   0.000000   4.129463   0.000000   0.000000   0.000000
     4  C    0.000000   0.000000   0.000000   4.144501   0.000000   0.000000
     5  C    0.000000   0.000000   0.000000   0.000000   4.139400   0.000000
     6  C    0.000000   0.000000   0.000000   0.000000   0.000000   4.053837
     7  Cl   0.000000   0.000000   0.000000   0.000000   0.000000   0.000000
     8  H    0.000000   0.000000   0.000000   0.000000   0.000000   0.000000
     9  H    0.000000   0.000000   0.000000   0.000000   0.000000   0.000000
    10  H    0.000000   0.000000   0.000000   0.000000   0.000000   0.000000
    11  H    0.000000   0.000000   0.000000   0.000000   0.000000   0.000000
    12  H    0.000000   0.000000   0.000000   0.000000   0.000000   0.000000
               7          8          9         10         11         12
     1  C    0.000000   0.000000   0.000000   0.000000   0.000000   0.000000
     2  C    0.000000   0.000000   0.000000   0.000000   0.000000   0.000000
     3  C    0.000000   0.000000   0.000000   0.000000   0.000000   0.000000
     4  C    0.000000   0.000000   0.000000   0.000000   0.000000   0.000000
     5  C    0.000000   0.000000   0.000000   0.000000   0.000000   0.000000
     6  C    0.000000   0.000000   0.000000   0.000000   0.000000   0.000000
     7  Cl   7.057970   0.000000   0.000000   0.000000   0.000000   0.000000
     8  H    0.000000   0.822460   0.000000   0.000000   0.000000   0.000000
     9  H    0.000000   0.000000   0.847264   0.000000   0.000000   0.000000
    10  H    0.000000   0.000000   0.000000   0.851482   0.000000   0.000000
    11  H    0.000000   0.000000   0.000000   0.000000   0.847263   0.000000
    12  H    0.000000   0.000000   0.000000   0.000000   0.000000   0.822460
 Mulliken charges:
               1
     1  C   -0.139400
     2  C   -0.144500
     3  C   -0.129463
     4  C   -0.144501
     5  C   -0.139400
     6  C   -0.053837
     7  Cl  -0.057970
     8  H    0.177540
     9  H    0.152736
    10  H    0.148518
    11  H    0.152737
    12  H    0.177540
 Sum of Mulliken charges =  -0.00000
 Mulliken charges with hydrogens summed into heavy atoms:
               1
     1  C    0.038140
     2  C    0.008236
     3  C    0.019055
     4  C    0.008236
     5  C    0.038140
     6  C   -0.053837
     7  Cl  -0.057970
 Charge=              0.0000 electrons
 Dipole moment (field-independent basis, Debye):
    X=              0.0000    Y=             -1.9835    Z=              0.0000  Tot=              1.9835
 N-N= 1.532264601429D+02 E-N=-2.129851705820D+02  KE=-6.883988833113D+01
 Symmetry A'   KE=-5.400031384240D+01
 Symmetry A"   KE=-1.483957448872D+01
 Calling FoFJK, ICntrl=      2127 FMM=F ISym2X=1 I1Cent= 0 IOpClX= 0 NMat=1 NMatS=1 NMatT=0.
 ***** Axes restored to original set *****
 -------------------------------------------------------------------
 Center     Atomic                   Forces (Hartrees/Bohr)
 Number     Number              X              Y              Z
 -------------------------------------------------------------------
      1        6          -0.053883741    0.051202458   -0.000000000
      2        6          -0.002437567    0.067676001    0.000000000
      3        6           0.059140796    0.036342968   -0.000000000
      4        6           0.059273174   -0.032744266   -0.000000000
      5        6           0.021351758   -0.071202159   -0.000000000
      6        6          -0.011206503   -0.006882224    0.000000000
      7       17           0.029758876    0.018289258   -0.000000000
      8        1           0.102915316   -0.056713651    0.000000000
      9        1           0.003071597   -0.117830032    0.000000000
     10        1          -0.100134735   -0.061539656    0.000000000
     11        1          -0.103737072    0.055964962    0.000000000
     12        1          -0.004111900    0.117436341    0.000000000
 -------------------------------------------------------------------
 Cartesian Forces:  Max     0.117830032 RMS     0.051545789

 GradGradGradGradGradGradGradGradGradGradGradGradGradGradGradGradGradGrad
 Berny optimization.
 FormGI is forming the generalized inverse of G from B-inverse, IUseBI=4.
 Internal  Forces:  Max     0.117870394 RMS     0.039053147
 Search for a local minimum.
 Step number   1 out of a maximum of   64
 All quantities printed in internal units (Hartrees-Bohrs-Radians)
 Mixed Optimization -- RFO/linear search
 Second derivative matrix not updated -- first step.
 ITU=  0
     Eigenvalues ---    0.02011   0.02011   0.02011   0.02011   0.02011
     Eigenvalues ---    0.02011   0.02011   0.02011   0.02011   0.06524
     Eigenvalues ---    0.06524   0.06524   0.06524   0.06524   0.16000
     Eigenvalues ---    0.16000   0.16000   0.16000   0.16000   0.22000
     Eigenvalues ---    0.22000   0.23485   0.25000   0.29033   0.40686
     Eigenvalues ---    0.40876   0.44656   0.44657   0.44657   0.44657
 RFO step:  Lambda=-2.43688009D-01 EMin= 2.01065826D-02
 Linear search not attempted -- first point.
 Maximum step size (   0.300) exceeded in Quadratic search.
    -- Step size scaled by   0.345
 Iteration  1 RMS(Cart)=  0.04771861 RMS(Int)=  0.00000860
 Iteration  2 RMS(Cart)=  0.00001697 RMS(Int)=  0.00000318
 Iteration  3 RMS(Cart)=  0.00000000 RMS(Int)=  0.00000318
 ClnCor:  largest displacement from symmetrization is 9.65D-10 for atom     7.
 Variable       Old X    -DE/DX   Delta X   Delta X   Delta X     New X
                                 (Linear)    (Quad)   (Total)
    R1        2.65676  -0.04978   0.00000  -0.02490  -0.02490   2.63186
    R2        2.65677  -0.03255   0.00000  -0.01607  -0.01608   2.64069
    R3        3.33635  -0.11750   0.00000  -0.13134  -0.13134   3.20501
    R4        2.65677  -0.04851   0.00000  -0.02448  -0.02447   2.63229
    R5        3.33634  -0.11787   0.00000  -0.13175  -0.13175   3.20459
    R6        2.65677  -0.04852   0.00000  -0.02448  -0.02448   2.63229
    R7        3.33633  -0.11753   0.00000  -0.13137  -0.13137   3.20496
    R8        2.65678  -0.04978   0.00000  -0.02490  -0.02490   2.63187
    R9        3.33633  -0.11787   0.00000  -0.13175  -0.13175   3.20458
   R10        2.65675  -0.03255   0.00000  -0.01607  -0.01608   2.64067
   R11        3.33632  -0.11750   0.00000  -0.13134  -0.13134   3.20498
   R12        3.33633  -0.03493   0.00000  -0.02259  -0.02259   3.31375
    A1        2.09439   0.00153   0.00000   0.00140   0.00139   2.09579
    A2        2.09439   0.00071   0.00000   0.00056   0.00057   2.09496
    A3        2.09440  -0.00224   0.00000  -0.00196  -0.00196   2.09244
    A4        2.09439   0.00201   0.00000   0.00112   0.00112   2.09552
    A5        2.09440  -0.00128   0.00000  -0.00080  -0.00080   2.09360
    A6        2.09439  -0.00073   0.00000  -0.00032  -0.00033   2.09407
    A7        2.09440   0.00142   0.00000   0.00036   0.00037   2.09477
    A8        2.09440  -0.00071   0.00000  -0.00018  -0.00019   2.09421
    A9        2.09439  -0.00071   0.00000  -0.00018  -0.00019   2.09421
   A10        2.09439   0.00201   0.00000   0.00112   0.00113   2.09552
   A11        2.09440  -0.00073   0.00000  -0.00032  -0.00033   2.09407
   A12        2.09440  -0.00128   0.00000  -0.00080  -0.00080   2.09360
   A13        2.09439   0.00153   0.00000   0.00140   0.00139   2.09579
   A14        2.09439   0.00071   0.00000   0.00056   0.00057   2.09495
   A15        2.09440  -0.00224   0.00000  -0.00196  -0.00196   2.09244
   A16        2.09440  -0.00850   0.00000  -0.00540  -0.00541   2.08899
   A17        2.09439   0.00425   0.00000   0.00270   0.00270   2.09710
   A18        2.09439   0.00425   0.00000   0.00270   0.00271   2.09710
    D1       -0.00000   0.00000   0.00000   0.00000   0.00000   0.00000
    D2        3.14159   0.00000   0.00000   0.00000   0.00000   3.14159
    D3        3.14159  -0.00000   0.00000  -0.00000   0.00000   3.14159
    D4       -0.00000  -0.00000   0.00000  -0.00000   0.00000   0.00000
    D5       -0.00000  -0.00000   0.00000  -0.00000   0.00000   0.00000
    D6        3.14159  -0.00000   0.00000  -0.00000   0.00000   3.14159
    D7        3.14159   0.00000   0.00000   0.00000   0.00000   3.14159
    D8        0.00000   0.00000   0.00000   0.00000   0.00000   0.00000
    D9        0.00000  -0.00000   0.00000  -0.00000  -0.00000   0.00000
   D10        3.14159   0.00000   0.00000   0.00000   0.00000   3.14159
   D11        3.14159  -0.00000   0.00000  -0.00000   0.00000   3.14159
   D12       -0.00000   0.00000   0.00000   0.00000   0.00000   0.00000
   D13       -0.00000   0.00000   0.00000   0.00000   0.00000   0.00000
   D14        3.14159   0.00000   0.00000   0.00000   0.00000   3.14159
   D15        3.14159  -0.00000   0.00000  -0.00000   0.00000   3.14159
   D16        0.00000   0.00000   0.00000  -0.00000  -0.00000   0.00000
   D17        0.00000  -0.00000   0.00000   0.00000   0.00000   0.00000
   D18        3.14159   0.00000   0.00000   0.00000   0.00000   3.14159
   D19        3.14159  -0.00000   0.00000  -0.00000   0.00000   3.14159
   D20        0.00000  -0.00000   0.00000   0.00000  -0.00000   0.00000
   D21        0.00000   0.00000   0.00000  -0.00000  -0.00000   0.00000
   D22        3.14159   0.00000   0.00000   0.00000   0.00000   3.14159
   D23        3.14159  -0.00000   0.00000  -0.00000   0.00000   3.14159
   D24       -0.00000  -0.00000   0.00000  -0.00000   0.00000   0.00000
         Item               Value     Threshold  Converged?
 Maximum Force            0.117870     0.000450     NO 
 RMS     Force            0.039053     0.000300     NO 
 Maximum Displacement     0.158193     0.001800     NO 
 RMS     Displacement     0.047718     0.001200     NO 
 Predicted change in Energy=-8.058379D-02
 GradGradGradGradGradGradGradGradGradGradGradGradGradGradGradGradGradGrad

                          Input orientation:                          
 ---------------------------------------------------------------------
 Center     Atomic      Atomic             Coordinates (Angstroms)
 Number     Number       Type             X           Y           Z
 ---------------------------------------------------------------------
      1          6           0       -3.194165    0.197848    0.000000
      2          6           0       -2.006657    0.925512    0.000000
      3          6           0       -0.781780    0.262200    0.000000
      4          6           0       -0.743268   -1.130215    0.000000
      5          6           0       -1.928873   -1.860989    0.000000
      6          6           0       -3.159567   -1.199116   -0.000000
      7         17           0       -4.653544   -2.117268   -0.000000
      8          1           0       -4.685091    1.006313   -0.000000
      9          1           0       -2.052354    2.620694    0.000000
     10          1           0        0.663152    1.150211    0.000000
     11          1           0        0.748474   -1.936703    0.000000
     12          1           0       -1.881029   -3.556318   -0.000000
 ---------------------------------------------------------------------
                    Distance matrix (angstroms):
                    1          2          3          4          5
     1  C    0.000000
     2  C    1.392721   0.000000
     3  C    2.413243   1.392949   0.000000
     4  C    2.787588   2.412917   1.392948   0.000000
     5  C    2.416562   2.787587   2.413246   1.392728   0.000000
     6  C    1.397392   2.417281   2.790934   2.417281   1.397385
     7  Cl   2.736704   4.032930   4.544494   4.032931   2.736697
     8  H    1.696018   2.679652   3.973605   4.483606   3.977205
     9  H    2.678417   1.695798   2.678965   3.972786   4.483384
    10  H    3.973146   2.679248   1.695993   2.679246   3.973150
    11  H    4.483381   3.972785   2.678965   1.695793   2.678417
    12  H    3.977196   4.483591   3.973592   2.679641   1.696004
                    6          7          8          9         10
     6  C    0.000000
     7  Cl   1.753560   0.000000
     8  H    2.681630   3.123740   0.000000
     9  H    3.977043   5.405041   3.088289   0.000000
    10  H    4.486927   6.240487   5.350178   3.088089   0.000000
    11  H    3.977036   5.405035   6.179398   5.349253   3.088092
    12  H    2.681616   3.123733   5.355406   6.179388   5.350165
                   11         12
    11  H    0.000000
    12  H    3.088274   0.000000
 Stoichiometry    C6H5Cl
 Framework group  CS[SG(C6H5Cl)]
 Deg. of freedom    21
 Full point group                 CS      NOp   2
 Largest Abelian subgroup         CS      NOp   2
 Largest concise Abelian subgroup C1      NOp   1
                         Standard orientation:                         
 ---------------------------------------------------------------------
 Center     Atomic      Atomic             Coordinates (Angstroms)
 Number     Number       Type             X           Y           Z
 ---------------------------------------------------------------------
      1          6           0       -1.208282   -0.174751   -0.000000
      2          6           0       -1.206454   -1.567471   -0.000000
      3          6           0        0.000006   -2.263718    0.000000
      4          6           0        1.206463   -1.567466    0.000000
      5          6           0        1.208280   -0.174740    0.000000
      6          6           0       -0.000000    0.527216    0.000000
      7         17           0       -0.000005    2.280776   -0.000000
      8          1           0       -2.677710    0.672159   -0.000000
      9          1           0       -2.674620   -2.416128   -0.000000
     10          1           0        0.000011   -3.959711    0.000000
     11          1           0        2.674633   -2.416107    0.000000
     12          1           0        2.677695    0.672165    0.000000
 ---------------------------------------------------------------------
 Rotational constants (GHZ):           5.1129344           1.5126992           1.1673347
 Standard basis: VSTO-6G (5D, 7F)
 There are    26 symmetry adapted cartesian basis functions of A'  symmetry.
 There are     7 symmetry adapted cartesian basis functions of A"  symmetry.
 There are    26 symmetry adapted basis functions of A'  symmetry.
 There are     7 symmetry adapted basis functions of A"  symmetry.
    33 basis functions,   198 primitive gaussians,    33 cartesian basis functions
    18 alpha electrons       18 beta electrons
       nuclear repulsion energy       154.3198419344 Hartrees.
 Integral buffers will be    131072 words long.
 Regular integral format.
 Two-electron integral symmetry is turned off.
 Do NDO integrals.
 One-electron integrals computed using PRISM.
 NBasis=    33 RedAO= T EigKep=  1.00D+00  NBF=    26     7
 NBsUse=    33 1.00D-06 EigRej= -1.00D+00 NBFU=    26     7
 Initial guess from the checkpoint file:  "geometry_chks/1ClBz.chk"
 B after Tr=     0.000000   -0.000000   -0.000000
         Rot=    1.000000   -0.000000   -0.000000   -0.000001 Ang=  -0.00 deg.
 Initial guess orbital symmetries:
       Occupied  (A') (A') (A') (A') (A') (A') (A') (A') (A") (A')
                 (A") (A') (A') (A') (A') (A') (A") (A")
       Virtual   (A') (A') (A') (A") (A') (A") (A') (A') (A") (A')
                 (A') (A') (A') (A') (A')
 Keep J ints in memory in canonical form, NReq=862182.
 Overlap will be assumed to be unity.
 Requested convergence on RMS density matrix=1.00D-08 within  32 cycles.
 Requested convergence on MAX density matrix=1.00D-06.
 Requested convergence on             energy=1.00D-06.
 No special actions if energy rises.
 Fock symm off for IB=2 I1=    1 I=   27 J=   12 Cut=1.00D-07 Err=1.52D-04
 Fock matrix is not symmetric: symmetry in diagonalization turned off.
 SCF Done:  E(RAM1) =  0.552381140644     A.U. after   11 cycles
            NFock= 10  Conv=0.74D-08     -V/T= 1.0080
 QCSCF skips out because SCF is already converged.
 Calling FoFJK, ICntrl=      2127 FMM=F ISym2X=1 I1Cent= 0 IOpClX= 0 NMat=1 NMatS=1 NMatT=0.
 ***** Axes restored to original set *****
 -------------------------------------------------------------------
 Center     Atomic                   Forces (Hartrees/Bohr)
 Number     Number              X              Y              Z
 -------------------------------------------------------------------
      1        6          -0.073778637    0.057225475   -0.000000000
      2        6          -0.003199016    0.089907513   -0.000000000
      3        6           0.078317894    0.048129689   -0.000000000
      4        6           0.078763787   -0.043466255   -0.000000000
      5        6           0.017737529   -0.091672203   -0.000000000
      6        6          -0.017390335   -0.010683364    0.000000000
      7       17           0.024629105    0.015136569   -0.000000000
      8        1           0.105839207   -0.058330142    0.000000000
      9        1           0.003080481   -0.121184748    0.000000000
     10        1          -0.103040663   -0.063325515    0.000000000
     11        1          -0.106725931    0.057488184    0.000000000
     12        1          -0.004233421    0.120774796    0.000000000
 -------------------------------------------------------------------
 Cartesian Forces:  Max     0.121184748 RMS     0.056899617

 GradGradGradGradGradGradGradGradGradGradGradGradGradGradGradGradGradGrad
 Berny optimization.
 Using GEDIIS/GDIIS optimizer.
 FormGI is forming the generalized inverse of G from B-inverse, IUseBI=4.
 Internal  Forces:  Max     0.121224094 RMS     0.038128045
 Search for a local minimum.
 Step number   2 out of a maximum of   64
 All quantities printed in internal units (Hartrees-Bohrs-Radians)
 Mixed Optimization -- RFO/linear search
 Update second derivatives using D2CorX and points    1    2
 DE= -8.41D-02 DEPred=-8.06D-02 R= 1.04D+00
 TightC=F SS=  1.41D+00  RLast= 3.00D-01 DXNew= 5.0454D-01 9.0000D-01
 Trust test= 1.04D+00 RLast= 3.00D-01 DXMaxT set to 5.05D-01
 ITU=  1  0
 Use linear search instead of GDIIS.
     Eigenvalues ---    0.00014   0.02011   0.02011   0.02011   0.02011
     Eigenvalues ---    0.02011   0.02011   0.02011   0.02011   0.02011
     Eigenvalues ---    0.06524   0.06524   0.06524   0.06524   0.16000
     Eigenvalues ---    0.16000   0.16000   0.16000   0.16001   0.22000
     Eigenvalues ---    0.22000   0.23477   0.25000   0.29251   0.40625
     Eigenvalues ---    0.40856   0.44645   0.44656   0.44657   7.75740
 RFO could not converge Lambda in  999 iterations.
 Skip linear search -- no minimum in search direction.
 Steepest descent instead of Quadratic search.
 Iteration  1 RMS(Cart)=  0.02326439 RMS(Int)=  0.00000356
 Iteration  2 RMS(Cart)=  0.00000727 RMS(Int)=  0.00000138
 Iteration  3 RMS(Cart)=  0.00000000 RMS(Int)=  0.00000138
 ClnCor:  largest displacement from symmetrization is 6.99D-10 for atom     7.
 Variable       Old X    -DE/DX   Delta X   Delta X   Delta X     New X
                                 (Linear)    (Quad)   (Total)
    R1        2.63186  -0.03099   0.00000  -0.01549  -0.01549   2.61637
    R2        2.64069  -0.01795   0.00000  -0.00898  -0.00898   2.63171
    R3        3.20501  -0.12085   0.00000  -0.06042  -0.06042   3.14459
    R4        2.63229  -0.02979   0.00000  -0.01490  -0.01489   2.61740
    R5        3.20459  -0.12122   0.00000  -0.06061  -0.06061   3.14398
    R6        2.63229  -0.02979   0.00000  -0.01490  -0.01489   2.61740
    R7        3.20496  -0.12094   0.00000  -0.06047  -0.06047   3.14449
    R8        2.63187  -0.03099   0.00000  -0.01550  -0.01550   2.61638
    R9        3.20458  -0.12122   0.00000  -0.06061  -0.06061   3.14397
   R10        2.64067  -0.01795   0.00000  -0.00897  -0.00898   2.63170
   R11        3.20498  -0.12085   0.00000  -0.06042  -0.06042   3.14456
   R12        3.31375  -0.02891   0.00000  -0.01445  -0.01445   3.29929
    A1        2.09579   0.00164   0.00000   0.00082   0.00082   2.09661
    A2        2.09496   0.00050   0.00000   0.00025   0.00025   2.09521
    A3        2.09244  -0.00214   0.00000  -0.00107  -0.00107   2.09137
    A4        2.09552   0.00162   0.00000   0.00081   0.00081   2.09633
    A5        2.09360  -0.00111   0.00000  -0.00055  -0.00056   2.09304
    A6        2.09407  -0.00051   0.00000  -0.00026  -0.00026   2.09381
    A7        2.09477   0.00065   0.00000   0.00033   0.00033   2.09510
    A8        2.09421  -0.00033   0.00000  -0.00016  -0.00017   2.09404
    A9        2.09421  -0.00033   0.00000  -0.00016  -0.00017   2.09404
   A10        2.09552   0.00162   0.00000   0.00081   0.00081   2.09633
   A11        2.09407  -0.00051   0.00000  -0.00026  -0.00026   2.09381
   A12        2.09360  -0.00111   0.00000  -0.00055  -0.00056   2.09304
   A13        2.09579   0.00164   0.00000   0.00082   0.00082   2.09661
   A14        2.09495   0.00050   0.00000   0.00025   0.00025   2.09520
   A15        2.09244  -0.00214   0.00000  -0.00107  -0.00107   2.09137
   A16        2.08899  -0.00718   0.00000  -0.00359  -0.00360   2.08539
   A17        2.09710   0.00359   0.00000   0.00180   0.00180   2.09890
   A18        2.09710   0.00359   0.00000   0.00180   0.00180   2.09890
    D1       -0.00000   0.00000   0.00000   0.00000   0.00000   0.00000
    D2        3.14159   0.00000   0.00000   0.00000   0.00000   3.14159
    D3        3.14159  -0.00000   0.00000  -0.00000   0.00000   3.14159
    D4       -0.00000  -0.00000   0.00000  -0.00000   0.00000   0.00000
    D5       -0.00000  -0.00000   0.00000  -0.00000   0.00000   0.00000
    D6        3.14159  -0.00000   0.00000  -0.00000   0.00000   3.14159
    D7        3.14159   0.00000   0.00000   0.00000   0.00000   3.14159
    D8       -0.00000   0.00000   0.00000   0.00000   0.00000   0.00000
    D9        0.00000  -0.00000   0.00000  -0.00000  -0.00000   0.00000
   D10        3.14159   0.00000   0.00000   0.00000   0.00000   3.14159
   D11        3.14159  -0.00000   0.00000  -0.00000   0.00000   3.14159
   D12       -0.00000  -0.00000   0.00000  -0.00000   0.00000   0.00000
   D13        0.00000   0.00000   0.00000   0.00000   0.00000   0.00000
   D14        3.14159   0.00000   0.00000   0.00000   0.00000   3.14159
   D15        3.14159  -0.00000   0.00000  -0.00000   0.00000   3.14159
   D16        0.00000   0.00000   0.00000   0.00000  -0.00000   0.00000
   D17        0.00000   0.00000   0.00000   0.00000  -0.00000   0.00000
   D18        3.14159   0.00000   0.00000   0.00000   0.00000   3.14159
   D19        3.14159  -0.00000   0.00000  -0.00000   0.00000   3.14159
   D20       -0.00000  -0.00000   0.00000  -0.00000   0.00000   0.00000
   D21        0.00000  -0.00000   0.00000  -0.00000  -0.00000   0.00000
   D22        3.14159   0.00000   0.00000   0.00000   0.00000   3.14159
   D23        3.14159  -0.00000   0.00000  -0.00000   0.00000   3.14159
   D24        0.00000  -0.00000   0.00000  -0.00000   0.00000   0.00000
         Item               Value     Threshold  Converged?
 Maximum Force            0.121224     0.000450     NO 
 RMS     Force            0.038128     0.000300     NO 
 Maximum Displacement     0.075557     0.001800     NO 
 RMS     Displacement     0.023264     0.001200     NO 
 Predicted change in Energy=-3.879455D-02
 GradGradGradGradGradGradGradGradGradGradGradGradGradGradGradGradGradGrad

                          Input orientation:                          
 ---------------------------------------------------------------------
 Center     Atomic      Atomic             Coordinates (Angstroms)
 Number     Number       Type             X           Y           Z
 ---------------------------------------------------------------------
      1          6           0       -3.185800    0.196689    0.000000
      2          6           0       -2.004575    0.918914    0.000000
      3          6           0       -0.786737    0.259153    0.000000
      4          6           0       -0.748214   -1.125377    0.000000
      5          6           0       -1.926128   -1.853002    0.000000
      6          6           0       -3.153822   -1.195585   -0.000000
      7         17           0       -4.641283   -2.109732   -0.000000
      8          1           0       -4.648040    0.990977   -0.000000
      9          1           0       -2.048704    2.582052    0.000000
     10          1           0        0.630932    1.130408    0.000000
     11          1           0        0.715646   -1.915992    0.000000
     12          1           0       -1.877975   -3.516335   -0.000000
 ---------------------------------------------------------------------
                    Distance matrix (angstroms):
                    1          2          3          4          5
     1  C    0.000000
     2  C    1.384522   0.000000
     3  C    2.399876   1.385068   0.000000
     4  C    2.773028   2.399494   1.385067   0.000000
     5  C    2.405828   2.773026   2.399878   1.384528   0.000000
     6  C    1.392641   2.406631   2.778373   2.406632   1.392635
     7  Cl   2.727271   4.015585   4.524284   4.015587   2.727266
     8  H    1.664044   2.644447   3.930042   4.437071   3.936626
     9  H    2.642526   1.663723   2.643562   3.928907   4.436748
    10  H    3.929284   2.643979   1.663992   2.643977   3.929286
    11  H    4.436744   3.928905   2.643561   1.663718   2.642525
    12  H    3.936616   4.437055   3.930027   2.644435   1.664029
                    6          7          8          9         10
     6  C    0.000000
     7  Cl   1.745911   0.000000
     8  H    2.648347   3.100716   0.000000
     9  H    3.935965   5.360438   3.047633   0.000000
    10  H    4.442365   6.188276   5.280813   3.047576   0.000000
    11  H    3.935959   5.360432   6.100787   5.279587   3.047578
    12  H    2.648333   3.100710   5.290475   6.100776   5.280799
                   11         12
    11  H    0.000000
    12  H    3.047617   0.000000
 Stoichiometry    C6H5Cl
 Framework group  CS[SG(C6H5Cl)]
 Deg. of freedom    21
 Full point group                 CS      NOp   2
 Largest Abelian subgroup         CS      NOp   2
 Largest concise Abelian subgroup C1      NOp   1
                         Standard orientation:                         
 ---------------------------------------------------------------------
 Center     Atomic      Atomic             Coordinates (Angstroms)
 Number     Number       Type             X           Y           Z
 ---------------------------------------------------------------------
      1          6           0       -1.202914   -0.176386   -0.000000
      2          6           0       -1.199743   -1.560905   -0.000000
      3          6           0        0.000005   -2.253015   -0.000000
      4          6           0        1.199751   -1.560901   -0.000000
      5          6           0        1.202913   -0.176377    0.000000
      6          6           0        0.000000    0.525358    0.000000
      7         17           0       -0.000005    2.271269    0.000000
      8          1           0       -2.645244    0.653509   -0.000000
      9          1           0       -2.639788   -2.394119   -0.000000
     10          1           0        0.000010   -3.917007   -0.000000
     11          1           0        2.639799   -2.394100   -0.000000
     12          1           0        2.645230    0.653512    0.000000
 ---------------------------------------------------------------------
 Rotational constants (GHZ):           5.1874391           1.5272748           1.1798932
 Standard basis: VSTO-6G (5D, 7F)
 There are    26 symmetry adapted cartesian basis functions of A'  symmetry.
 There are     7 symmetry adapted cartesian basis functions of A"  symmetry.
 There are    26 symmetry adapted basis functions of A'  symmetry.
 There are     7 symmetry adapted basis functions of A"  symmetry.
    33 basis functions,   198 primitive gaussians,    33 cartesian basis functions
    18 alpha electrons       18 beta electrons
       nuclear repulsion energy       154.9243029486 Hartrees.
 Integral buffers will be    131072 words long.
 Regular integral format.
 Two-electron integral symmetry is turned off.
 Do NDO integrals.
 One-electron integrals computed using PRISM.
 NBasis=    33 RedAO= T EigKep=  1.00D+00  NBF=    26     7
 NBsUse=    33 1.00D-06 EigRej= -1.00D+00 NBFU=    26     7
 Initial guess from the checkpoint file:  "geometry_chks/1ClBz.chk"
 B after Tr=    -0.000000    0.000000    0.000000
         Rot=    1.000000    0.000000    0.000000    0.000000 Ang=   0.00 deg.
 Initial guess orbital symmetries:
       Occupied  (A') (A') (A') (A') (A') (A') (A') (A') (A") (A')
                 (A") (A') (A') (A') (A') (A') (A") (A")
       Virtual   (A') (A") (A') (A") (A') (A') (A') (A') (A") (A')
                 (A') (A') (A') (A') (A')
 Keep J ints in memory in canonical form, NReq=862182.
 Overlap will be assumed to be unity.
 Requested convergence on RMS density matrix=1.00D-08 within  32 cycles.
 Requested convergence on MAX density matrix=1.00D-06.
 Requested convergence on             energy=1.00D-06.
 No special actions if energy rises.
 Fock symm off for IB=2 I1=    1 I=   27 J=   12 Cut=1.00D-07 Err=1.07D-04
 Fock matrix is not symmetric: symmetry in diagonalization turned off.
 SCF Done:  E(RAM1) =  0.513458565502     A.U. after   11 cycles
            NFock= 10  Conv=0.68D-08     -V/T= 1.0074
 QCSCF skips out because SCF is already converged.
 Calling FoFJK, ICntrl=      2127 FMM=F ISym2X=1 I1Cent= 0 IOpClX= 0 NMat=1 NMatS=1 NMatT=0.
 ***** Axes restored to original set *****
 -------------------------------------------------------------------
 Center     Atomic                   Forces (Hartrees/Bohr)
 Number     Number              X              Y              Z
 -------------------------------------------------------------------
      1        6          -0.085312838    0.059900987   -0.000000000
      2        6          -0.003509996    0.102846398   -0.000000000
      3        6           0.089478553    0.054989518    0.000000000
      4        6           0.090167293   -0.049588692   -0.000000000
      5        6           0.014913444   -0.103171091   -0.000000000
      6        6          -0.020970321   -0.012884184   -0.000000000
      7       17           0.021238610    0.013052811   -0.000000000
      8        1           0.106576843   -0.058803663    0.000000000
      9        1           0.003046381   -0.122040969    0.000000000
     10        1          -0.103800075   -0.063792203    0.000000000
     11        1          -0.107505160    0.057844491    0.000000000
     12        1          -0.004322732    0.121646599    0.000000000
 -------------------------------------------------------------------
 Cartesian Forces:  Max     0.122040969 RMS     0.059965973

 GradGradGradGradGradGradGradGradGradGradGradGradGradGradGradGradGradGrad
 Berny optimization.
 Using GEDIIS/GDIIS optimizer.
 FormGI is forming the generalized inverse of G from B-inverse, IUseBI=4.
 Internal  Forces:  Max     0.122079105 RMS     0.037640030
 Search for a local minimum.
 Step number   3 out of a maximum of   64
 All quantities printed in internal units (Hartrees-Bohrs-Radians)
 Mixed Optimization -- RFO/linear search
 Update second derivatives using D2CorX and points    1    2    3
 DE= -3.89D-02 DEPred=-3.88D-02 R= 1.00D+00
 TightC=F SS=  1.41D+00  RLast= 1.40D-01 DXNew= 8.4853D-01 4.2027D-01
 Trust test= 1.00D+00 RLast= 1.40D-01 DXMaxT set to 5.05D-01
 ITU=  1  1  0
 Use linear search instead of GDIIS.
     Eigenvalues ---    0.00128   0.02011   0.02011   0.02011   0.02011
     Eigenvalues ---    0.02011   0.02011   0.02011   0.02011   0.02011
     Eigenvalues ---    0.06524   0.06524   0.06524   0.06524   0.15999
     Eigenvalues ---    0.16000   0.16000   0.16000   0.16000   0.21998
     Eigenvalues ---    0.22000   0.23388   0.25000   0.28601   0.40589
     Eigenvalues ---    0.40693   0.44577   0.44656   0.44657   1.17880
 RFO step:  Lambda=-1.64656007D-02 EMin= 1.27804750D-03
 Quartic linear search produced a step of  2.00000.
 Maximum step size (   0.505) exceeded in Quadratic search.
    -- Step size scaled by   0.639
 Iteration  1 RMS(Cart)=  0.06921976 RMS(Int)=  0.04461422
 Iteration  2 RMS(Cart)=  0.04423481 RMS(Int)=  0.00000528
 Iteration  3 RMS(Cart)=  0.00000109 RMS(Int)=  0.00000525
 Iteration  4 RMS(Cart)=  0.00000000 RMS(Int)=  0.00000525
 ClnCor:  largest displacement from symmetrization is 2.25D-08 for atom    12.
 Variable       Old X    -DE/DX   Delta X   Delta X   Delta X     New X
                                 (Linear)    (Quad)   (Total)
    R1        2.61637  -0.01885  -0.03099   0.00474  -0.02625   2.59012
    R2        2.63171  -0.00912  -0.01796  -0.00206  -0.02002   2.61168
    R3        3.14459  -0.12172  -0.12085  -0.22533  -0.34617   2.79841
    R4        2.61740  -0.01793  -0.02979   0.00266  -0.02712   2.59028
    R5        3.14398  -0.12208  -0.12122  -0.22594  -0.34716   2.79682
    R6        2.61740  -0.01793  -0.02979   0.00266  -0.02712   2.59028
    R7        3.14449  -0.12184  -0.12094  -0.22546  -0.34641   2.79808
    R8        2.61638  -0.01885  -0.03099   0.00474  -0.02625   2.59013
    R9        3.14397  -0.12208  -0.12122  -0.22594  -0.34716   2.79681
   R10        2.63170  -0.00911  -0.01795  -0.00206  -0.02002   2.61168
   R11        3.14456  -0.12172  -0.12085  -0.22533  -0.34617   2.79839
   R12        3.29929  -0.02493  -0.02891  -0.00112  -0.03003   3.26926
    A1        2.09661   0.00183   0.00164   0.00119   0.00282   2.09942
    A2        2.09521   0.00034   0.00050   0.00063   0.00114   2.09635
    A3        2.09137  -0.00218  -0.00214  -0.00182  -0.00396   2.08741
    A4        2.09633   0.00133   0.00163  -0.00052   0.00112   2.09745
    A5        2.09304  -0.00097  -0.00111   0.00010  -0.00102   2.09202
    A6        2.09381  -0.00036  -0.00052   0.00042  -0.00010   2.09371
    A7        2.09510   0.00001   0.00066  -0.00138  -0.00070   2.09439
    A8        2.09404  -0.00001  -0.00033   0.00069   0.00035   2.09440
    A9        2.09404  -0.00001  -0.00033   0.00069   0.00035   2.09440
   A10        2.09633   0.00133   0.00163  -0.00052   0.00112   2.09745
   A11        2.09381  -0.00036  -0.00052   0.00042  -0.00010   2.09372
   A12        2.09304  -0.00097  -0.00111   0.00010  -0.00102   2.09202
   A13        2.09661   0.00183   0.00164   0.00119   0.00282   2.09943
   A14        2.09520   0.00034   0.00050   0.00063   0.00114   2.09635
   A15        2.09137  -0.00218  -0.00214  -0.00182  -0.00396   2.08741
   A16        2.08539  -0.00633  -0.00719   0.00004  -0.00716   2.07823
   A17        2.09890   0.00317   0.00360  -0.00002   0.00358   2.10248
   A18        2.09890   0.00317   0.00360  -0.00002   0.00358   2.10248
    D1       -0.00000   0.00000   0.00000   0.00000   0.00000   0.00000
    D2        3.14159   0.00000   0.00000   0.00000   0.00000   3.14159
    D3        3.14159  -0.00000   0.00000  -0.00000   0.00000   3.14159
    D4        0.00000  -0.00000   0.00000  -0.00000   0.00000   0.00000
    D5       -0.00000  -0.00000   0.00000   0.00000   0.00000   0.00000
    D6        3.14159  -0.00000   0.00000  -0.00000   0.00000   3.14159
    D7        3.14159   0.00000   0.00000   0.00000   0.00000   3.14159
    D8       -0.00000   0.00000   0.00000   0.00000   0.00000   0.00000
    D9        0.00000  -0.00000   0.00000  -0.00000   0.00000   0.00000
   D10        3.14159   0.00000   0.00000   0.00000   0.00000   3.14159
   D11        3.14159  -0.00000   0.00000  -0.00000   0.00000   3.14159
   D12        0.00000  -0.00000   0.00000  -0.00000  -0.00000   0.00000
   D13       -0.00000  -0.00000   0.00000   0.00000   0.00000   0.00000
   D14        3.14159   0.00000   0.00000   0.00000   0.00000   3.14159
   D15        3.14159  -0.00000   0.00000  -0.00000   0.00000   3.14159
   D16       -0.00000   0.00000   0.00000   0.00000   0.00000   0.00000
   D17       -0.00000   0.00000   0.00000   0.00000   0.00000   0.00000
   D18        3.14159   0.00000   0.00000   0.00000   0.00000   3.14159
   D19        3.14159  -0.00000   0.00000  -0.00000   0.00000   3.14159
   D20       -0.00000   0.00000   0.00000   0.00000   0.00000   0.00000
   D21        0.00000  -0.00000   0.00000  -0.00000   0.00000   0.00000
   D22        3.14159   0.00000   0.00000   0.00000   0.00000   3.14159
   D23        3.14159  -0.00000   0.00000  -0.00000   0.00000   3.14159
   D24       -0.00000  -0.00000   0.00000  -0.00000   0.00000   0.00000
         Item               Value     Threshold  Converged?
 Maximum Force            0.122079     0.000450     NO 
 RMS     Force            0.037640     0.000300     NO 
 Maximum Displacement     0.386615     0.001800     NO 
 RMS     Displacement     0.113158     0.001200     NO 
 Predicted change in Energy=-2.140192D-01
 GradGradGradGradGradGradGradGradGradGradGradGradGradGradGradGradGradGrad

                          Input orientation:                          
 ---------------------------------------------------------------------
 Center     Atomic      Atomic             Coordinates (Angstroms)
 Number     Number       Type             X           Y           Z
 ---------------------------------------------------------------------
      1          6           0       -3.160880    0.198324    0.000000
      2          6           0       -1.990958    0.912409    0.000000
      3          6           0       -0.785508    0.259909    0.000000
      4          6           0       -0.747867   -1.110291    0.000000
      5          6           0       -1.913412   -1.831508    0.000000
      6          6           0       -3.134095   -1.183461   -0.000000
      7         17           0       -4.608016   -2.089286   -0.000000
      8          1           0       -4.462415    0.904683   -0.000000
      9          1           0       -2.030592    2.391890    0.000000
     10          1           0        0.475987    1.035183    0.000000
     11          1           0        0.554172   -1.813936    0.000000
     12          1           0       -1.871116   -3.311747   -0.000000
 ---------------------------------------------------------------------
                    Distance matrix (angstroms):
                    1          2          3          4          5
     1  C    0.000000
     2  C    1.370634   0.000000
     3  C    2.376171   1.370718   0.000000
     4  C    2.745015   2.374151   1.370716   0.000000
     5  C    2.382519   2.745013   2.376171   1.370638   0.000000
     6  C    1.382044   2.387349   2.756660   2.387350   1.382039
     7  Cl   2.706910   3.982357   4.486679   3.982359   2.706907
     8  H    1.480856   2.471469   3.733012   4.225871   3.739540
     9  H    2.467648   1.480012   2.468923   3.729699   4.225024
    10  H    3.731908   2.469998   1.480682   2.469995   3.731909
    11  H    4.225021   3.729698   2.468921   1.480007   2.467646
    12  H    3.739530   4.225856   3.732997   2.471457   1.480843
                    6          7          8          9         10
     6  C    0.000000
     7  Cl   1.730018   0.000000
     8  H    2.474829   2.997507   0.000000
     9  H    3.741772   5.169532   2.850535   0.000000
    10  H    4.237343   5.967361   4.940126   2.850191   0.000000
    11  H    3.741766   5.169527   5.705877   4.936596   2.850192
    12  H    2.474817   2.997504   4.949051   5.705866   4.940111
                   11         12
    11  H    0.000000
    12  H    2.850519   0.000000
 Stoichiometry    C6H5Cl
 Framework group  CS[SG(C6H5Cl)]
 Deg. of freedom    21
 Full point group                 CS      NOp   2
 Largest Abelian subgroup         CS      NOp   2
 Largest concise Abelian subgroup C1      NOp   1
                         Standard orientation:                         
 ---------------------------------------------------------------------
 Center     Atomic      Atomic             Coordinates (Angstroms)
 Number     Number       Type             X           Y           Z
 ---------------------------------------------------------------------
      1          6           0       -1.191260   -0.180359   -0.000000
      2          6           0       -1.187072   -1.550987    0.000000
      3          6           0        0.000006   -2.236344    0.000000
      4          6           0        1.187079   -1.550984    0.000000
      5          6           0        1.191259   -0.180352    0.000000
      6          6           0       -0.000000    0.520316   -0.000000
      7         17           0       -0.000005    2.250334   -0.000000
      8          1           0       -2.474532    0.558659   -0.000000
      9          1           0       -2.468293   -2.291869    0.000000
     10          1           0        0.000009   -3.717027    0.000000
     11          1           0        2.468303   -2.291853    0.000000
     12          1           0        2.474520    0.558660    0.000000
 ---------------------------------------------------------------------
 Rotational constants (GHZ):           5.4635191           1.5635394           1.2156477
 Standard basis: VSTO-6G (5D, 7F)
 There are    26 symmetry adapted cartesian basis functions of A'  symmetry.
 There are     7 symmetry adapted cartesian basis functions of A"  symmetry.
 There are    26 symmetry adapted basis functions of A'  symmetry.
 There are     7 symmetry adapted basis functions of A"  symmetry.
    33 basis functions,   198 primitive gaussians,    33 cartesian basis functions
    18 alpha electrons       18 beta electrons
       nuclear repulsion energy       157.0739798840 Hartrees.
 Integral buffers will be    131072 words long.
 Regular integral format.
 Two-electron integral symmetry is turned off.
 Do NDO integrals.
 One-electron integrals computed using PRISM.
 NBasis=    33 RedAO= T EigKep=  1.00D+00  NBF=    26     7
 NBsUse=    33 1.00D-06 EigRej= -1.00D+00 NBFU=    26     7
 Initial guess from the checkpoint file:  "geometry_chks/1ClBz.chk"
 B after Tr=     0.000000   -0.000000   -0.000000
         Rot=    1.000000    0.000000    0.000000    0.000000 Ang=   0.00 deg.
 Initial guess orbital symmetries:
       Occupied  (A') (A') (A') (A') (A') (A') (A') (A') (A") (A')
                 (A') (A") (A') (A') (A') (A') (A") (A")
       Virtual   (A') (A") (A") (A') (A') (A') (A') (A') (A") (A')
                 (A') (A') (A') (A') (A')
 Keep J ints in memory in canonical form, NReq=862182.
 Overlap will be assumed to be unity.
 Requested convergence on RMS density matrix=1.00D-08 within  32 cycles.
 Requested convergence on MAX density matrix=1.00D-06.
 Requested convergence on             energy=1.00D-06.
 No special actions if energy rises.
 Fock symm off for IB=2 I1=    1 I=   27 J=   18 Cut=1.00D-07 Err=4.52D-04
 Fock matrix is not symmetric: symmetry in diagonalization turned off.
 SCF Done:  E(RAM1) =  0.302107716688     A.U. after   11 cycles
            NFock= 10  Conv=0.73D-08     -V/T= 1.0044
 QCSCF skips out because SCF is already converged.
 Calling FoFJK, ICntrl=      2127 FMM=F ISym2X=1 I1Cent= 0 IOpClX= 0 NMat=1 NMatS=1 NMatT=0.
 ***** Axes restored to original set *****
 -------------------------------------------------------------------
 Center     Atomic                   Forces (Hartrees/Bohr)
 Number     Number              X              Y              Z
 -------------------------------------------------------------------
      1        6          -0.108979803    0.064638250   -0.000000000
      2        6          -0.005006223    0.126604494   -0.000000000
      3        6           0.110330530    0.067805830    0.000000000
      4        6           0.110687912   -0.061655624   -0.000000000
      5        6           0.008448162   -0.126424976   -0.000000000
      6        6          -0.027453866   -0.016869171    0.000000000
      7       17           0.013768850    0.008462018   -0.000000000
      8        1           0.102776385   -0.056225167    0.000000000
      9        1           0.002872808   -0.117545949    0.000000000
     10        1          -0.100132985   -0.061538466    0.000000000
     11        1          -0.103572817    0.055658988    0.000000000
     12        1          -0.003738954    0.117089772    0.000000000
 -------------------------------------------------------------------
 Cartesian Forces:  Max     0.126604494 RMS     0.064807121

 GradGradGradGradGradGradGradGradGradGradGradGradGradGradGradGradGradGrad
 Berny optimization.
 Using GEDIIS/GDIIS optimizer.
 FormGI is forming the generalized inverse of G from B-inverse, IUseBI=4.
 Internal  Forces:  Max     0.117580725 RMS     0.035980520
 Search for a local minimum.
 Step number   4 out of a maximum of   64
 All quantities printed in internal units (Hartrees-Bohrs-Radians)
 Mixed Optimization -- RFO/linear search
 Update second derivatives using D2CorX and points    3    4
 DE= -2.11D-01 DEPred=-2.14D-01 R= 9.88D-01
 TightC=F SS=  1.41D+00  RLast= 7.78D-01 DXNew= 8.4853D-01 2.3342D+00
 Trust test= 9.88D-01 RLast= 7.78D-01 DXMaxT set to 8.49D-01
 ITU=  1  1  1  0
 Use linear search instead of GDIIS.
 Linear search step of   1.283 exceeds DXMaxT=   0.849 but not scaled.
 Quartic linear search produced a step of  1.64894.
 Iteration  1 RMS(Cart)=  0.07563533 RMS(Int)=  0.11306001
 Iteration  2 RMS(Cart)=  0.06034665 RMS(Int)=  0.05220222
 Iteration  3 RMS(Cart)=  0.05175736 RMS(Int)=  0.00001109
 Iteration  4 RMS(Cart)=  0.00000019 RMS(Int)=  0.00001109
 ClnCor:  largest displacement from symmetrization is 1.50D-08 for atom     8.
 Variable       Old X    -DE/DX   Delta X   Delta X   Delta X     New X
                                 (Linear)    (Quad)   (Total)
    R1        2.59012   0.00891  -0.04328   0.00000  -0.04328   2.54685
    R2        2.61168   0.01278  -0.03302   0.00000  -0.03304   2.57865
    R3        2.79841  -0.11715  -0.57082   0.00000  -0.57082   2.22759
    R4        2.59028   0.01091  -0.04472   0.00000  -0.04470   2.54558
    R5        2.79682  -0.11758  -0.57245   0.00000  -0.57245   2.22436
    R6        2.59028   0.01091  -0.04472   0.00000  -0.04470   2.54558
    R7        2.79808  -0.11753  -0.57120   0.00000  -0.57120   2.22688
    R8        2.59013   0.00891  -0.04328   0.00000  -0.04328   2.54685
    R9        2.79681  -0.11758  -0.57245   0.00000  -0.57245   2.22435
   R10        2.61168   0.01279  -0.03302   0.00000  -0.03303   2.57864
   R11        2.79839  -0.11715  -0.57082   0.00000  -0.57082   2.22757
   R12        3.26926  -0.01616  -0.04952   0.00000  -0.04952   3.21974
    A1        2.09942   0.00075   0.00464   0.00000   0.00463   2.10405
    A2        2.09635   0.00018   0.00188   0.00000   0.00189   2.09824
    A3        2.08741  -0.00092  -0.00653   0.00000  -0.00652   2.08089
    A4        2.09745   0.00061   0.00184   0.00000   0.00186   2.09931
    A5        2.09202  -0.00069  -0.00168   0.00000  -0.00169   2.09033
    A6        2.09371   0.00008  -0.00016   0.00000  -0.00017   2.09354
    A7        2.09439  -0.00070  -0.00116   0.00000  -0.00113   2.09327
    A8        2.09440   0.00035   0.00058   0.00000   0.00056   2.09496
    A9        2.09440   0.00035   0.00058   0.00000   0.00056   2.09496
   A10        2.09745   0.00061   0.00184   0.00000   0.00186   2.09931
   A11        2.09372   0.00008  -0.00016   0.00000  -0.00017   2.09355
   A12        2.09202  -0.00069  -0.00168   0.00000  -0.00169   2.09033
   A13        2.09943   0.00075   0.00464   0.00000   0.00463   2.10405
   A14        2.09635   0.00018   0.00188   0.00000   0.00189   2.09824
   A15        2.08741  -0.00092  -0.00653   0.00000  -0.00652   2.08090
   A16        2.07823  -0.00201  -0.01181   0.00000  -0.01185   2.06638
   A17        2.10248   0.00101   0.00591   0.00000   0.00592   2.10840
   A18        2.10248   0.00101   0.00591   0.00000   0.00592   2.10840
    D1        0.00000   0.00000   0.00000   0.00000   0.00000   0.00000
    D2        3.14159   0.00000   0.00000   0.00000   0.00000   3.14159
    D3        3.14159  -0.00000   0.00000   0.00000   0.00000   3.14159
    D4       -0.00000  -0.00000   0.00000   0.00000   0.00000   0.00000
    D5       -0.00000  -0.00000   0.00000   0.00000   0.00000   0.00000
    D6        3.14159  -0.00000   0.00000   0.00000   0.00000   3.14159
    D7        3.14159   0.00000   0.00000   0.00000   0.00000   3.14159
    D8       -0.00000   0.00000   0.00000   0.00000   0.00000   0.00000
    D9       -0.00000   0.00000   0.00000   0.00000   0.00000   0.00000
   D10        3.14159   0.00000   0.00000   0.00000   0.00000   3.14159
   D11        3.14159  -0.00000   0.00000   0.00000   0.00000   3.14159
   D12        0.00000  -0.00000   0.00000   0.00000   0.00000   0.00000
   D13        0.00000  -0.00000   0.00000   0.00000   0.00000   0.00000
   D14        3.14159   0.00000   0.00000   0.00000   0.00000   3.14159
   D15        3.14159  -0.00000   0.00000   0.00000   0.00000   3.14159
   D16       -0.00000   0.00000   0.00000   0.00000   0.00000   0.00000
   D17       -0.00000   0.00000   0.00000   0.00000   0.00000   0.00000
   D18        3.14159   0.00000   0.00000   0.00000   0.00000   3.14159
   D19        3.14159  -0.00000   0.00000   0.00000   0.00000   3.14159
   D20        0.00000  -0.00000   0.00000   0.00000   0.00000   0.00000
   D21        0.00000   0.00000   0.00000   0.00000   0.00000   0.00000
   D22        3.14159   0.00000   0.00000   0.00000   0.00000   3.14159
   D23        3.14159  -0.00000   0.00000   0.00000   0.00000   3.14159
   D24        0.00000  -0.00000   0.00000   0.00000  -0.00000   0.00000
         Item               Value     Threshold  Converged?
 Maximum Force            0.117581     0.000450     NO 
 RMS     Force            0.035981     0.000300     NO 
 Maximum Displacement     0.637377     0.001800     NO 
 RMS     Displacement     0.186596     0.001200     NO 
 Predicted change in Energy=-3.174448D-01
 GradGradGradGradGradGradGradGradGradGradGradGradGradGradGradGradGradGrad

                          Input orientation:                          
 ---------------------------------------------------------------------
 Center     Atomic      Atomic             Coordinates (Angstroms)
 Number     Number       Type             X           Y           Z
 ---------------------------------------------------------------------
      1          6           0       -3.119891    0.200994    0.000000
      2          6           0       -1.968607    0.901656    0.000000
      3          6           0       -0.783596    0.261082    0.000000
      4          6           0       -0.747364   -1.085492    0.000000
      5          6           0       -1.892513   -1.796144    0.000000
      6          6           0       -3.101526   -1.163444   -0.000000
      7         17           0       -4.553121   -2.055548   -0.000000
      8          1           0       -4.156272    0.762654   -0.000000
      9          1           0       -2.000592    2.078304    0.000000
     10          1           0        0.220376    0.878092    0.000000
     11          1           0        0.287951   -1.645523    0.000000
     12          1           0       -1.859544   -2.974461   -0.000000
 ---------------------------------------------------------------------
                    Distance matrix (angstroms):
                    1          2          3          4          5
     1  C    0.000000
     2  C    1.347733   0.000000
     3  C    2.337067   1.347065   0.000000
     4  C    2.698876   2.332422   1.347062   0.000000
     5  C    2.344145   2.698873   2.337065   1.347735   0.000000
     6  C    1.364562   2.355450   2.720675   2.355451   1.364559
     7  Cl   2.673224   3.927438   4.424488   3.927441   2.673224
     8  H    1.178790   2.192076   3.409767   3.877666   3.416438
     9  H    2.185663   1.177082   2.187092   3.402967   3.875955
    10  H    3.408203   2.189110   1.178415   2.189106   3.408201
    11  H    3.875953   3.402965   2.187089   1.177078   2.185660
    12  H    3.416429   3.877651   3.409751   2.192065   1.178779
                    6          7          8          9         10
     6  C    0.000000
     7  Cl   1.703813   0.000000
     8  H    2.195983   2.846006   0.000000
     9  H    3.423592   4.858408   2.525448   0.000000
    10  H    3.899090   5.602902   4.378170   2.524521   0.000000
    11  H    3.423587   4.858405   5.054743   4.370848   2.524519
    12  H    2.195974   2.846008   4.386455   5.054733   4.378154
                   11         12
    11  H    0.000000
    12  H    2.525433   0.000000
 Stoichiometry    C6H5Cl
 Framework group  CS[SG(C6H5Cl)]
 Deg. of freedom    21
 Full point group                 CS      NOp   2
 Largest Abelian subgroup         CS      NOp   2
 Largest concise Abelian subgroup C1      NOp   1
                         Standard orientation:                         
 ---------------------------------------------------------------------
 Center     Atomic      Atomic             Coordinates (Angstroms)
 Number     Number       Type             X           Y           Z
 ---------------------------------------------------------------------
      1          6           0       -1.172073   -0.186840   -0.000000
      2          6           0       -1.166207   -1.534560   -0.000000
      3          6           0        0.000006   -2.208749    0.000000
      4          6           0        1.166214   -1.534558    0.000000
      5          6           0        1.172073   -0.186835    0.000000
      6          6           0        0.000000    0.511926    0.000000
      7         17           0       -0.000005    2.215739   -0.000000
      8          1           0       -2.193232    0.402040   -0.000000
      9          1           0       -2.185420   -2.123396   -0.000000
     10          1           0        0.000009   -3.387164    0.000000
     11          1           0        2.185428   -2.123383    0.000000
     12          1           0        2.193223    0.402038    0.000000
 ---------------------------------------------------------------------
 Rotational constants (GHZ):           5.9502607           1.6250776           1.2764625
 Standard basis: VSTO-6G (5D, 7F)
 There are    26 symmetry adapted cartesian basis functions of A'  symmetry.
 There are     7 symmetry adapted cartesian basis functions of A"  symmetry.
 There are    26 symmetry adapted basis functions of A'  symmetry.
 There are     7 symmetry adapted basis functions of A"  symmetry.
    33 basis functions,   198 primitive gaussians,    33 cartesian basis functions
    18 alpha electrons       18 beta electrons
       nuclear repulsion energy       161.1156169962 Hartrees.
 Integral buffers will be    131072 words long.
 Regular integral format.
 Two-electron integral symmetry is turned off.
 Do NDO integrals.
 One-electron integrals computed using PRISM.
 NBasis=    33 RedAO= T EigKep=  1.00D+00  NBF=    26     7
 NBsUse=    33 1.00D-06 EigRej= -1.00D+00 NBFU=    26     7
 Initial guess from the checkpoint file:  "geometry_chks/1ClBz.chk"
 B after Tr=     0.000000   -0.000000    0.000000
         Rot=    1.000000    0.000000    0.000000    0.000000 Ang=   0.00 deg.
 Initial guess orbital symmetries:
       Occupied  (A') (A') (A') (A') (A') (A') (A') (A') (A') (A")
                 (A') (A') (A") (A') (A') (A') (A") (A")
       Virtual   (A") (A") (A') (A') (A') (A') (A') (A') (A") (A')
                 (A') (A') (A') (A') (A')
 Keep J ints in memory in canonical form, NReq=862182.
 Overlap will be assumed to be unity.
 Requested convergence on RMS density matrix=1.00D-08 within  32 cycles.
 Requested convergence on MAX density matrix=1.00D-06.
 Requested convergence on             energy=1.00D-06.
 No special actions if energy rises.
 Fock symm off for IB=2 I1=    1 I=   27 J=    6 Cut=1.00D-07 Err=9.80D-03
 Fock matrix is not symmetric: symmetry in diagonalization turned off.
 SCF Done:  E(RAM1) =  0.553994432119E-01 A.U. after   12 cycles
            NFock= 11  Conv=0.42D-08     -V/T= 1.0008
 QCSCF skips out because SCF is already converged.
 Calling FoFJK, ICntrl=      2127 FMM=F ISym2X=1 I1Cent= 0 IOpClX= 0 NMat=1 NMatS=1 NMatT=0.
 ***** Axes restored to original set *****
 -------------------------------------------------------------------
 Center     Atomic                   Forces (Hartrees/Bohr)
 Number     Number              X              Y              Z
 -------------------------------------------------------------------
      1        6          -0.102069454    0.040999483   -0.000000000
      2        6          -0.006222087    0.109961974   -0.000000000
      3        6           0.098027647    0.060247603   -0.000000000
      4        6           0.095290851   -0.055223217   -0.000000000
      5        6          -0.009523613   -0.109578651    0.000000000
      6        6          -0.040661434   -0.024987138   -0.000000000
      7       17          -0.000190120   -0.000116935   -0.000000000
      8        1           0.036526077   -0.018961279    0.000000000
      9        1           0.000667705   -0.040781267    0.000000000
     10        1          -0.035347107   -0.021722958    0.000000000
     11        1          -0.036080199    0.019015884    0.000000000
     12        1          -0.000418266    0.041146500    0.000000000
 -------------------------------------------------------------------
 Cartesian Forces:  Max     0.109961974 RMS     0.044848419

 GradGradGradGradGradGradGradGradGradGradGradGradGradGradGradGradGradGrad
 Berny optimization.
 Using GEDIIS/GDIIS optimizer.
 FormGI is forming the generalized inverse of G from B-inverse, IUseBI=4.
 Internal  Forces:  Max     0.072406525 RMS     0.025450624
 Search for a local minimum.
 Step number   5 out of a maximum of   64
 All quantities printed in internal units (Hartrees-Bohrs-Radians)
 Mixed Optimization -- RFO/linear search
 Update second derivatives using D2CorX and points    4    5
 ITU=  0  1  1  1  0
 Use linear search instead of GDIIS.
     Eigenvalues ---    0.02011   0.02011   0.02011   0.02011   0.02011
     Eigenvalues ---    0.02011   0.02011   0.02011   0.02011   0.06524
     Eigenvalues ---    0.06524   0.06524   0.06524   0.13210   0.15999
     Eigenvalues ---    0.16000   0.16000   0.16000   0.16004   0.21997
     Eigenvalues ---    0.22000   0.23468   0.25000   0.28480   0.40384
     Eigenvalues ---    0.40594   0.44564   0.44656   0.44657   1.22639
 RFO step:  Lambda=-3.26015706D-02 EMin= 2.01065825D-02
 Quartic linear search produced a step of  0.20807.
 Iteration  1 RMS(Cart)=  0.03680665 RMS(Int)=  0.00017494
 Iteration  2 RMS(Cart)=  0.00016277 RMS(Int)=  0.00000525
 Iteration  3 RMS(Cart)=  0.00000004 RMS(Int)=  0.00000525
 ClnCor:  largest displacement from symmetrization is 2.57D-10 for atom    11.
 Variable       Old X    -DE/DX   Delta X   Delta X   Delta X     New X
                                 (Linear)    (Quad)   (Total)
    R1        2.54685   0.06828  -0.00900   0.06642   0.05742   2.60426
    R2        2.57865   0.05744  -0.00687   0.04800   0.04112   2.61977
    R3        2.22759  -0.04115  -0.11877  -0.04856  -0.16733   2.06026
    R4        2.54558   0.07240  -0.00930   0.07441   0.06511   2.61070
    R5        2.22436  -0.04078  -0.11911  -0.04407  -0.16318   2.06118
    R6        2.54558   0.07241  -0.00930   0.07441   0.06511   2.61069
    R7        2.22688  -0.04149  -0.11885  -0.05059  -0.16944   2.05744
    R8        2.54685   0.06828  -0.00901   0.06642   0.05742   2.60427
    R9        2.22435  -0.04078  -0.11911  -0.04405  -0.16316   2.06120
   R10        2.57864   0.05744  -0.00687   0.04800   0.04112   2.61976
   R11        2.22757  -0.04114  -0.11877  -0.04850  -0.16727   2.06030
   R12        3.21974   0.00022  -0.01030  -0.00978  -0.02008   3.19966
    A1        2.10405  -0.00179   0.00096  -0.01606  -0.01511   2.08894
    A2        2.09824   0.00008   0.00039   0.00279   0.00319   2.10143
    A3        2.08089   0.00171  -0.00136   0.01327   0.01191   2.09281
    A4        2.09931  -0.00119   0.00039  -0.00227  -0.00188   2.09743
    A5        2.09033   0.00011  -0.00035  -0.00085  -0.00120   2.08913
    A6        2.09354   0.00109  -0.00004   0.00312   0.00308   2.09662
    A7        2.09327  -0.00260  -0.00023   0.00254   0.00232   2.09558
    A8        2.09496   0.00130   0.00012  -0.00127  -0.00116   2.09380
    A9        2.09496   0.00130   0.00012  -0.00127  -0.00116   2.09380
   A10        2.09931  -0.00119   0.00039  -0.00227  -0.00188   2.09743
   A11        2.09355   0.00109  -0.00004   0.00312   0.00308   2.09663
   A12        2.09033   0.00011  -0.00035  -0.00085  -0.00120   2.08913
   A13        2.10405  -0.00179   0.00096  -0.01606  -0.01511   2.08895
   A14        2.09824   0.00008   0.00039   0.00280   0.00319   2.10143
   A15        2.08090   0.00171  -0.00136   0.01327   0.01191   2.09281
   A16        2.06638   0.00855  -0.00246   0.03413   0.03165   2.09803
   A17        2.10840  -0.00428   0.00123  -0.01707  -0.01582   2.09257
   A18        2.10840  -0.00428   0.00123  -0.01706  -0.01582   2.09258
    D1       -0.00000  -0.00000   0.00000   0.00000   0.00000   0.00000
    D2        3.14159   0.00000   0.00000   0.00000   0.00000   3.14159
    D3        3.14159  -0.00000   0.00000  -0.00000   0.00000   3.14159
    D4        0.00000  -0.00000   0.00000   0.00000   0.00000   0.00000
    D5        0.00000   0.00000   0.00000   0.00000   0.00000   0.00000
    D6        3.14159  -0.00000   0.00000   0.00000   0.00000   3.14159
    D7        3.14159   0.00000   0.00000   0.00000   0.00000   3.14159
    D8       -0.00000   0.00000   0.00000   0.00000   0.00000   0.00000
    D9        0.00000  -0.00000   0.00000  -0.00000  -0.00000   0.00000
   D10        3.14159   0.00000   0.00000   0.00000   0.00000   3.14159
   D11        3.14159  -0.00000   0.00000  -0.00000   0.00000   3.14159
   D12       -0.00000  -0.00000   0.00000   0.00000   0.00000   0.00000
   D13        0.00000   0.00000   0.00000   0.00000   0.00000   0.00000
   D14        3.14159   0.00000   0.00000   0.00000   0.00000   3.14159
   D15        3.14159  -0.00000   0.00000  -0.00000   0.00000   3.14159
[...]
 Search for a local minimum.
 Step number  13 out of a maximum of   64
 All quantities printed in internal units (Hartrees-Bohrs-Radians)
 Mixed Optimization -- En-DIIS/RFO-DIIS
 Swapping is turned off.
 Update second derivatives using D2CorX and points    5    6    8    7    9
                                                     10   11   12   13
 DE= -8.29D-07 DEPred=-8.31D-07 R= 9.97D-01
 Trust test= 9.97D-01 RLast= 2.08D-03 DXMaxT set to 2.99D-01
 ITU=  0  1 -1  1  0 -1  1  1  0  1  1  1  0
     Eigenvalues ---    0.02011   0.02011   0.02011   0.02011   0.02011
     Eigenvalues ---    0.02011   0.02011   0.02011   0.02011   0.06524
     Eigenvalues ---    0.06524   0.14945   0.16000   0.16000   0.16000
     Eigenvalues ---    0.16020   0.21463   0.22000   0.22465   0.25000
     Eigenvalues ---    0.30006   0.34322   0.35913   0.36633   0.40665
     Eigenvalues ---    0.43276   0.44656   0.44657   0.46276   0.77058
 En-DIIS/RFO-DIIS/Sim-DIIS IScMMF=       -3 using points:    13   12   11   10    9
 RFO step:  Lambda=-3.35993477D-09.
 DidBck=F Rises=F RFO-DIIS coefs:    0.86830    0.03273    0.01882    0.07434    0.00581
 Iteration  1 RMS(Cart)=  0.00001722 RMS(Int)=  0.00000000
 Iteration  2 RMS(Cart)=  0.00000000 RMS(Int)=  0.00000000
 ClnCor:  largest displacement from symmetrization is 2.68D-13 for atom     7.
 Variable       Old X    -DE/DX   Delta X   Delta X   Delta X     New X
                                 (Linear)    (Quad)   (Total)
    R1        2.63482  -0.00001  -0.00001   0.00000  -0.00001   2.63481
    R2        2.64291  -0.00002  -0.00001  -0.00003  -0.00004   2.64287
    R3        2.07915  -0.00000  -0.00001   0.00000  -0.00000   2.07914
    R4        2.63594   0.00001   0.00001   0.00002   0.00003   2.63597
    R5        2.07897  -0.00000   0.00001  -0.00001  -0.00001   2.07896
    R6        2.63594   0.00001   0.00001   0.00002   0.00003   2.63597
    R7        2.07846  -0.00001  -0.00004   0.00002  -0.00002   2.07844
    R8        2.63482  -0.00001  -0.00001   0.00000  -0.00001   2.63482
    R9        2.07897  -0.00000   0.00001  -0.00001   0.00000   2.07897
   R10        2.64291  -0.00002  -0.00001  -0.00002  -0.00004   2.64287
   R11        2.07914  -0.00000  -0.00001   0.00001   0.00000   2.07915
   R12        3.21452  -0.00001  -0.00001   0.00000  -0.00001   3.21452
    A1        2.08353   0.00000   0.00001  -0.00001  -0.00000   2.08353
    A2        2.09873  -0.00000   0.00001  -0.00002  -0.00001   2.09871
    A3        2.10093   0.00000  -0.00001   0.00003   0.00002   2.10095
    A4        2.09960  -0.00000  -0.00000  -0.00001  -0.00001   2.09959
    A5        2.08814  -0.00000  -0.00000  -0.00001  -0.00001   2.08813
    A6        2.09544   0.00000   0.00000   0.00002   0.00002   2.09546
    A7        2.09430  -0.00000  -0.00001   0.00000  -0.00001   2.09430
    A8        2.09444   0.00000   0.00000  -0.00000   0.00000   2.09444
    A9        2.09444   0.00000   0.00000  -0.00000   0.00000   2.09444
   A10        2.09960  -0.00000  -0.00000  -0.00001  -0.00001   2.09959
   A11        2.09544   0.00000   0.00000   0.00001   0.00002   2.09546
   A12        2.08814  -0.00000  -0.00000  -0.00001  -0.00001   2.08813
   A13        2.08353   0.00000   0.00001  -0.00001  -0.00000   2.08353
   A14        2.09873  -0.00000   0.00001  -0.00002  -0.00001   2.09871
   A15        2.10093   0.00000  -0.00001   0.00003   0.00002   2.10095
   A16        2.10580   0.00001   0.00000   0.00003   0.00003   2.10583
   A17        2.08869  -0.00001  -0.00000  -0.00002  -0.00002   2.08868
   A18        2.08869  -0.00001  -0.00000  -0.00002  -0.00002   2.08868
    D1       -0.00000  -0.00000   0.00000  -0.00000   0.00000   0.00000
    D2        3.14159   0.00000   0.00000   0.00000   0.00000   3.14159
    D3        3.14159  -0.00000   0.00000  -0.00000   0.00000   3.14159
    D4       -0.00000  -0.00000   0.00000  -0.00000   0.00000   0.00000
    D5        0.00000   0.00000   0.00000   0.00000  -0.00000   0.00000
    D6        3.14159  -0.00000   0.00000  -0.00000   0.00000   3.14159
    D7        3.14159   0.00000   0.00000   0.00000   0.00000   3.14159
    D8       -0.00000   0.00000   0.00000   0.00000   0.00000   0.00000
    D9       -0.00000  -0.00000   0.00000  -0.00000   0.00000   0.00000
   D10        3.14159   0.00000   0.00000   0.00000   0.00000   3.14159
   D11        3.14159  -0.00000   0.00000  -0.00000   0.00000   3.14159
   D12        0.00000  -0.00000   0.00000  -0.00000   0.00000   0.00000
   D13        0.00000   0.00000   0.00000   0.00000   0.00000   0.00000
   D14        3.14159   0.00000   0.00000   0.00000   0.00000   3.14159
   D15        3.14159  -0.00000   0.00000  -0.00000   0.00000   3.14159
   D16        0.00000   0.00000   0.00000   0.00000  -0.00000   0.00000
   D17        0.00000   0.00000   0.00000   0.00000   0.00000   0.00000
   D18        3.14159   0.00000   0.00000   0.00000   0.00000   3.14159
   D19        3.14159  -0.00000   0.00000  -0.00000   0.00000   3.14159
   D20       -0.00000   0.00000   0.00000   0.00000   0.00000   0.00000
   D21       -0.00000  -0.00000   0.00000  -0.00000   0.00000   0.00000
   D22        3.14159   0.00000   0.00000   0.00000   0.00000   3.14159
   D23        3.14159  -0.00000   0.00000  -0.00000   0.00000   3.14159
   D24        0.00000  -0.00000   0.00000  -0.00000  -0.00000   0.00000
         Item               Value     Threshold  Converged?
 Maximum Force            0.000018     0.000450     YES
 RMS     Force            0.000005     0.000300     YES
 Maximum Displacement     0.000064     0.001800     YES
 RMS     Displacement     0.000017     0.001200     YES
 Predicted change in Energy=-1.800633D-09
 Optimization completed.
    -- Stationary point found.
                           ----------------------------
                           !   Optimized Parameters   !
                           ! (Angstroms and Degrees)  !
 --------------------------                            --------------------------
 ! Name  Definition              Value          Derivative Info.                !
 --------------------------------------------------------------------------------
 ! R1    R(1,2)                  1.3943         -DE/DX =    0.0                 !
 ! R2    R(1,6)                  1.3986         -DE/DX =    0.0                 !
 ! R3    R(1,8)                  1.1002         -DE/DX =    0.0                 !
 ! R4    R(2,3)                  1.3949         -DE/DX =    0.0                 !
 ! R5    R(2,9)                  1.1001         -DE/DX =    0.0                 !
 ! R6    R(3,4)                  1.3949         -DE/DX =    0.0                 !
 ! R7    R(3,10)                 1.0999         -DE/DX =    0.0                 !
 ! R8    R(4,5)                  1.3943         -DE/DX =    0.0                 !
 ! R9    R(4,11)                 1.1001         -DE/DX =    0.0                 !
 ! R10   R(5,6)                  1.3986         -DE/DX =    0.0                 !
 ! R11   R(5,12)                 1.1002         -DE/DX =    0.0                 !
 ! R12   R(6,7)                  1.7011         -DE/DX =    0.0                 !
 ! A1    A(2,1,6)              119.3776         -DE/DX =    0.0                 !
 ! A2    A(2,1,8)              120.2481         -DE/DX =    0.0                 !
 ! A3    A(6,1,8)              120.3743         -DE/DX =    0.0                 !
 ! A4    A(1,2,3)              120.2983         -DE/DX =    0.0                 !
 ! A5    A(1,2,9)              119.6418         -DE/DX =    0.0                 !
 ! A6    A(3,2,9)              120.0599         -DE/DX =    0.0                 !
 ! A7    A(2,3,4)              119.9947         -DE/DX =    0.0                 !
 ! A8    A(2,3,10)             120.0026         -DE/DX =    0.0                 !
 ! A9    A(4,3,10)             120.0026         -DE/DX =    0.0                 !
 ! A10   A(3,4,5)              120.2983         -DE/DX =    0.0                 !
 ! A11   A(3,4,11)             120.0599         -DE/DX =    0.0                 !
 ! A12   A(5,4,11)             119.6418         -DE/DX =    0.0                 !
 ! A13   A(4,5,6)              119.3776         -DE/DX =    0.0                 !
 ! A14   A(4,5,12)             120.2481         -DE/DX =    0.0                 !
 ! A15   A(6,5,12)             120.3743         -DE/DX =    0.0                 !
 ! A16   A(1,6,5)              120.6536         -DE/DX =    0.0                 !
 ! A17   A(1,6,7)              119.6732         -DE/DX =    0.0                 !
 ! A18   A(5,6,7)              119.6732         -DE/DX =    0.0                 !
 ! D1    D(6,1,2,3)              0.0            -DE/DX =    0.0                 !
 ! D2    D(6,1,2,9)            180.0            -DE/DX =    0.0                 !
 ! D3    D(8,1,2,3)            180.0            -DE/DX =    0.0                 !
 ! D4    D(8,1,2,9)              0.0            -DE/DX =    0.0                 !
 ! D5    D(2,1,6,5)              0.0            -DE/DX =    0.0                 !
 ! D6    D(2,1,6,7)            180.0            -DE/DX =    0.0                 !
 ! D7    D(8,1,6,5)            180.0            -DE/DX =    0.0                 !
 ! D8    D(8,1,6,7)              0.0            -DE/DX =    0.0                 !
 ! D9    D(1,2,3,4)              0.0            -DE/DX =    0.0                 !
 ! D10   D(1,2,3,10)           180.0            -DE/DX =    0.0                 !
 ! D11   D(9,2,3,4)            180.0            -DE/DX =    0.0                 !
 ! D12   D(9,2,3,10)             0.0            -DE/DX =    0.0                 !
 ! D13   D(2,3,4,5)              0.0            -DE/DX =    0.0                 !
 ! D14   D(2,3,4,11)           180.0            -DE/DX =    0.0                 !
 ! D15   D(10,3,4,5)           180.0            -DE/DX =    0.0                 !
 ! D16   D(10,3,4,11)            0.0            -DE/DX =    0.0                 !
 ! D17   D(3,4,5,6)              0.0            -DE/DX =    0.0                 !
 ! D18   D(3,4,5,12)           180.0            -DE/DX =    0.0                 !
 ! D19   D(11,4,5,6)           180.0            -DE/DX =    0.0                 !
 ! D20   D(11,4,5,12)            0.0            -DE/DX =    0.0                 !
 ! D21   D(4,5,6,1)              0.0            -DE/DX =    0.0                 !
 ! D22   D(4,5,6,7)            180.0            -DE/DX =    0.0                 !
 ! D23   D(12,5,6,1)           180.0            -DE/DX =    0.0                 !
 ! D24   D(12,5,6,7)             0.0            -DE/DX =    0.0                 !
 --------------------------------------------------------------------------------
 GradGradGradGradGradGradGradGradGradGradGradGradGradGradGradGradGradGrad

                          Input orientation:                          
 ---------------------------------------------------------------------
 Center     Atomic      Atomic             Coordinates (Angstroms)
 Number     Number       Type             X           Y           Z
 ---------------------------------------------------------------------
      1          6           0       -3.161083    0.226255    0.000000
      2          6           0       -1.969443    0.950155    0.000000
      3          6           0       -0.742716    0.286208    0.000000
      4          6           0       -0.704476   -1.108145    0.000000
      5          6           0       -1.888582   -1.844304    0.000000
      6          6           0       -3.114704   -1.171542   -0.000000
      7         17           0       -4.563947   -2.062201   -0.000000
      8          1           0       -4.128228    0.750802   -0.000000
      9          1           0       -2.000854    2.049849    0.000000
     10          1           0        0.194342    0.862095    0.000000
     11          1           0        0.262448   -1.632902    0.000000
     12          1           0       -1.857456   -2.944099   -0.000000
 ---------------------------------------------------------------------
                    Distance matrix (angstroms):
                    1          2          3          4          5
     1  C    0.000000
     2  C    1.394287   0.000000
     3  C    2.419110   1.394878   0.000000
     4  C    2.795629   2.415935   1.394878   0.000000
     5  C    2.430324   2.795629   2.419110   1.394287   0.000000
     6  C    1.398566   2.411062   2.784127   2.411062   1.398566
     7  Cl   2.684224   3.975644   4.485179   3.975644   2.684224
     8  H    1.100236   2.167970   3.417242   3.895865   3.427914
     9  H    2.161394   1.100142   2.166412   3.413726   3.895771
    10  H    3.415138   2.165576   1.099874   2.165576   3.415138
    11  H    3.895771   3.413726   2.166411   1.100142   2.161394
    12  H    3.427913   3.895864   3.417240   2.167969   1.100235
                    6          7          8          9         10
     6  C    0.000000
     7  Cl   1.701052   0.000000
     8  H    2.173163   2.846549   0.000000
     9  H    3.408522   4.845451   2.492637   0.000000
    10  H    3.884001   5.585053   4.324002   2.495926   0.000000
    11  H    3.408521   4.845451   4.996007   4.322637   2.495926
    12  H    2.173162   2.846549   4.336900   4.996007   4.324002
                   11         12
    11  H    0.000000
    12  H    2.492636   0.000000
 Stoichiometry    C6H5Cl
 Framework group  CS[SG(C6H5Cl)]
 Deg. of freedom    21
 Full point group                 CS      NOp   2
 Largest Abelian subgroup         CS      NOp   2
 Largest concise Abelian subgroup C1      NOp   1
                         Standard orientation:                         
 ---------------------------------------------------------------------
 Center     Atomic      Atomic             Coordinates (Angstroms)
 Number     Number       Type             X           Y           Z
 ---------------------------------------------------------------------
      1          6           0       -1.215162   -0.165187    0.000000
      2          6           0       -1.207968   -1.559456    0.000000
      3          6           0        0.000000   -2.256951    0.000000
      4          6           0        1.207968   -1.559456    0.000000
      5          6           0        1.215162   -0.165187    0.000000
      6          6           0        0.000000    0.527176   -0.000000
      7         17           0        0.000000    2.228229   -0.000000
      8          1           0       -2.168450    0.384140   -0.000000
      9          1           0       -2.161319   -2.108487    0.000000
     10          1           0       -0.000000   -3.356825    0.000000
     11          1           0        2.161318   -2.108486    0.000000
     12          1           0        2.168450    0.384139   -0.000000
 ---------------------------------------------------------------------
 Rotational constants (GHZ):           5.6559859           1.5942160           1.2436706

 **********************************************************************

            Population analysis using the SCF Density.

 **********************************************************************

 Orbital symmetries:
       Occupied  (A') (A') (A') (A') (A') (A') (A') (A') (A') (A')
                 (A') (A") (A') (A') (A") (A') (A") (A")
       Virtual   (A") (A") (A') (A") (A') (A') (A') (A') (A') (A')
                 (A') (A') (A') (A') (A')
 The electronic state is 1-A'.
 Alpha  occ. eigenvalues --   -1.45547  -1.37558  -1.16675  -1.15044  -0.86499
 Alpha  occ. eigenvalues --   -0.85927  -0.67267  -0.61026  -0.59206  -0.54449
 Alpha  occ. eigenvalues --   -0.53189  -0.52833  -0.46095  -0.45746  -0.45641
 Alpha  occ. eigenvalues --   -0.42938  -0.36605  -0.35135
 Alpha virt. eigenvalues --    0.00569   0.00974   0.05151   0.09644   0.13702
 Alpha virt. eigenvalues --    0.13755   0.14341   0.15340   0.15804   0.17039
 Alpha virt. eigenvalues --    0.17754   0.19002   0.19192   0.19892   0.21122
          Condensed to atoms (all electrons):
               1          2          3          4          5          6
     1  C    4.124487   0.000000   0.000000   0.000000   0.000000   0.000000
     2  C    0.000000   4.121633   0.000000   0.000000   0.000000   0.000000
     3  C    0.000000   0.000000   4.129435   0.000000   0.000000   0.000000
     4  C    0.000000   0.000000   0.000000   4.121633   0.000000   0.000000
     5  C    0.000000   0.000000   0.000000   0.000000   4.124487   0.000000
     6  C    0.000000   0.000000   0.000000   0.000000   0.000000   4.061284
     7  Cl   0.000000   0.000000   0.000000   0.000000   0.000000   0.000000
     8  H    0.000000   0.000000   0.000000   0.000000   0.000000   0.000000
     9  H    0.000000   0.000000   0.000000   0.000000   0.000000   0.000000
    10  H    0.000000   0.000000   0.000000   0.000000   0.000000   0.000000
    11  H    0.000000   0.000000   0.000000   0.000000   0.000000   0.000000
    12  H    0.000000   0.000000   0.000000   0.000000   0.000000   0.000000
               7          8          9         10         11         12
     1  C    0.000000   0.000000   0.000000   0.000000   0.000000   0.000000
     2  C    0.000000   0.000000   0.000000   0.000000   0.000000   0.000000
     3  C    0.000000   0.000000   0.000000   0.000000   0.000000   0.000000
     4  C    0.000000   0.000000   0.000000   0.000000   0.000000   0.000000
     5  C    0.000000   0.000000   0.000000   0.000000   0.000000   0.000000
     6  C    0.000000   0.000000   0.000000   0.000000   0.000000   0.000000
     7  Cl   7.018827   0.000000   0.000000   0.000000   0.000000   0.000000
     8  H    0.000000   0.853460   0.000000   0.000000   0.000000   0.000000
     9  H    0.000000   0.000000   0.863310   0.000000   0.000000   0.000000
    10  H    0.000000   0.000000   0.000000   0.864676   0.000000   0.000000
    11  H    0.000000   0.000000   0.000000   0.000000   0.863310   0.000000
    12  H    0.000000   0.000000   0.000000   0.000000   0.000000   0.853460
 Mulliken charges:
               1
     1  C   -0.124487
     2  C   -0.121633
     3  C   -0.129435
     4  C   -0.121633
     5  C   -0.124487
     6  C   -0.061284
     7  Cl  -0.018827
     8  H    0.146540
     9  H    0.136690
    10  H    0.135324
    11  H    0.136690
    12  H    0.146540
 Sum of Mulliken charges =   0.00000
 Mulliken charges with hydrogens summed into heavy atoms:
               1
     1  C    0.022053
     2  C    0.015057
     3  C    0.005890
     4  C    0.015057
     5  C    0.022053
     6  C   -0.061284
     7  Cl  -0.018827
 Charge=              0.0000 electrons
 Dipole moment (field-independent basis, Debye):
    X=             -0.0000    Y=             -1.3057    Z=              0.0000  Tot=              1.3057
 N-N= 1.599978354893D+02 E-N=-2.245186372932D+02  KE=-6.968256279601D+01
 Symmetry A'   KE=-5.484503922020D+01
 Symmetry A"   KE=-1.483752357581D+01
 1\1\GINC-SH04-01N18\FOpt\RAM1\ZDO\C6H5Cl1\JLAPIER\09-Dec-2025\0\\# opt
  am1 SCF=XQC\\1-Chloro-Benzene (1)\\0,1\C,-3.1610829748,0.2262547195,0
 .\C,-1.9694431695,0.9501550632,0.\C,-0.7427160508,0.2862081951,0.\C,-0
 .7044758178,-1.1081454048,0.\C,-1.8885819784,-1.8443044477,0.\C,-3.114
 7044039,-1.1715418835,0.\Cl,-4.563947289,-2.0622011062,0.\H,-4.1282281
 066,0.7508022859,0.\H,-2.0008544629,2.0498487556,0.\H,0.1943417731,0.8
 620949212,0.\H,0.2624483703,-1.632901671,0.\H,-1.8574558896,-2.9440994
 272,0.\\Version=ES64L-G16RevB.01\State=1-A'\HF=0.0234317\RMSD=4.229e-0
 9\RMSF=7.701e-06\Dipole=0.4376728,0.2689807,0.\PG=CS [SG(C6H5Cl1)]\\@


 I CLAIM NOT TO HAVE CONTROLLED EVENTS,
 BUT CONFESS PLAINLY THAT EVENTS HAVE CONTROLLED ME.

                                         A. LINCOLN
 Job cpu time:       0 days  0 hours  0 minutes  4.4 seconds.
 Elapsed time:       0 days  0 hours  0 minutes 17.6 seconds.
 File lengths (MBytes):  RWF=     10 Int=      0 D2E=      0 Chk=      2 Scr=      1
 Normal termination of Gaussian 16 at Tue Dec  9 09:58:59 2025.
