 Entering Gaussian System, Link 0=g16
 Initial command:
 /share/software/user/restricted/gaussian/g16.B01/l1.exe "/home/users/jlapier/Chloroaromatics/Gau-1230.inp" -scrdir="/home/users/jlapier/Chloroaromatics/"
 Entering Link 1 = /share/software/user/restricted/gaussian/g16.B01/l1.exe PID=      1238.
  
 Copyright (c) 1988-2017, Gaussian, Inc.  All Rights Reserved.
  
 This is part of the Gaussian(R) 16 program.  It is based on
 the Gaussian(R) 09 system (copyright 2009, Gaussian, Inc.),
 the Gaussian(R) 03 system (copyright 2003, Gaussian, Inc.),
 the Gaussian(R) 98 system (copyright 1998, Gaussian, Inc.),
 the Gaussian(R) 94 system (copyright 1995, Gaussian, Inc.),
 the Gaussian 92(TM) system (copyright 1992, Gaussian, Inc.),
 the Gaussian 90(TM) system (copyright 1990, Gaussian, Inc.),
 the Gaussian 88(TM) system (copyright 1988, Gaussian, Inc.),
 the Gaussian 86(TM) system (copyright 1986, Carnegie Mellon
 University), and the Gaussian 82(TM) system (copyright 1983,
 Carnegie Mellon University). Gaussian is a federally registered
 trademark of Gaussian, Inc.
  
 This software contains proprietary and confidential information,
 including trade secrets, belonging to Gaussian, Inc.
  
 This software is provided under written license and may be
 used, copied, transmitted, or stored only in accord with that
 written license.
  
 The following legend is applicable only to US Government
 contracts under FAR:
  
                    RESTRICTED RIGHTS LEGEND
  
 Use, reproduction and disclosure by the US Government is
 subject to restrictions as set forth in subparagraphs (a)
 and (c) of the Commercial Computer Software - Restricted
 Rights clause in FAR 52.227-19.
  
 Gaussian, Inc.
 340 Quinnipiac St., Bldg. 40, Wallingford CT 06492
  
  
 ---------------------------------------------------------------
 Warning -- This program may not be used in any manner that
 competes with the business of Gaussian, Inc. or will provide
 assistance to any competitor of Gaussian, Inc.  The licensee
 of this program is prohibited from giving any competitor of
 Gaussian, Inc. access to this program.  By using this program,
 the user acknowledges that Gaussian, Inc. is engaged in the
 business of creating and licensing software in the field of
 computational chemistry and represents and warrants to the
 licensee that it is not a competitor of Gaussian, Inc. and that
 it will not use this program in any manner prohibited above.
 ---------------------------------------------------------------
  

 Cite this work as:
 Gaussian 16, Revision B.01,
 M. J. Frisch, G. W. Trucks, H. B. Schlegel, G. E. Scuseria, 
 M. A. Robb, J. R. Cheeseman, G. Scalmani, V. Barone, 
 G. A. Petersson, H. Nakatsuji, X. Li, M. Caricato, A. V. Marenich, 
 J. Bloino, B. G. Janesko, R. Gomperts, B. Mennucci, H. P. Hratchian, 
 J. V. Ortiz, A. F. Izmaylov, J. L. Sonnenberg, D. Williams-Young, 
 F. Ding, F. Lipparini, F. Egidi, J. Goings, B. Peng, A. Petrone, 
 T. Henderson, D. Ranasinghe, V. G. Zakrzewski, J. Gao, N. Rega, 
 G. Zheng, W. Liang, M. Hada, M. Ehara, K. Toyota, R. Fukuda, 
 J. Hasegawa, M. Ishida, T. Nakajima, Y. Honda, O. Kitao, H. Nakai, 
 T. Vreven, K. Throssell, J. A. Montgomery, Jr., J. E. Peralta, 
 F. Ogliaro, M. J. Bearpark, J. J. Heyd, E. N. Brothers, K. N. Kudin, 
 V. N. Staroverov, T. A. Keith, R. Kobayashi, J. Normand, 
 K. Raghavachari, A. P. Rendell, J. C. Burant, S. S. Iyengar, 
 J. Tomasi, M. Cossi, J. M. Millam, M. Klene, C. Adamo, R. Cammi, 
 J. W. Ochterski, R. L. Martin, K. Morokuma, O. Farkas, 
 J. B. Foresman, and D. J. Fox, Gaussian, Inc., Wallingford CT, 2016.
 
 ******************************************
 Gaussian 16:  ES64L-G16RevB.01 20-Dec-2017
                 9-Dec-2025 
 ******************************************
 %mem=2GB
 %nprocshare=1
 Will use up to    1 processors via shared memory.
 %chk=geometry_chks/1ClBzAnionRadical.chk
 -----------------
 # opt am1 SCF=XQC
 -----------------
 1/18=20,19=15,26=1,38=1/1,3;
 2/9=110,12=2,17=6,18=5,40=1/2;
 3/5=2,25=1,41=700000,71=1/1,2,3;
 4/35=1/1;
 5/5=2,8=3,13=1,35=1,38=5/2,8;
 6/7=2,8=2,9=2,10=2,28=1/1;
 7//1,2,3,16;
 1/18=20,19=15,26=1/3(2);
 2/9=110/2;
 99//99;
 2/9=110/2;
 3/5=2,25=1,41=700000,71=1,135=20/1,2,3;
 4/5=5,16=3,35=1/1;
 5/5=2,8=3,13=1,35=1,38=5/2,8;
 7//1,2,3,16;
 1/18=20,19=15,26=1/3(-5);
 2/9=110/2;
 6/7=2,8=2,9=2,10=2,19=2,28=1/1;
 99/9=1/99;
 ----------------------------------
 1-Chloro-Benzene Anion Radical (1)
 ----------------------------------
 Symbolic Z-matrix:
 Charge = -1 Multiplicity = 2
 C                    -3.20928   0.19943   0. 
 C                    -2.0115    0.93555   0. 
 C                    -0.77511   0.2663    0. 
 C                    -0.7365   -1.13907   0. 
 C                    -1.93429  -1.87519   0. 
 C                    -3.17067  -1.20594   0. 
 Cl                   -4.67483  -2.13035   0. 
 H                    -4.76193   1.03987   0. 
 H                    -2.05998   2.7004    0. 
 H                     0.72905   1.19071   0. 
 H                     0.81614  -1.97951   0. 
 H                    -1.8858   -3.64003   0. 
 
 Add virtual bond connecting atoms H12        and C5         Dist= 3.34D+00.
 Add virtual bond connecting atoms H11        and C4         Dist= 3.34D+00.
 Add virtual bond connecting atoms H10        and C3         Dist= 3.34D+00.
 Add virtual bond connecting atoms H9         and C2         Dist= 3.34D+00.
 Add virtual bond connecting atoms H8         and C1         Dist= 3.34D+00.

 GradGradGradGradGradGradGradGradGradGradGradGradGradGradGradGradGradGrad
 Berny optimization.
 Initialization pass.
                           ----------------------------
                           !    Initial Parameters    !
                           ! (Angstroms and Degrees)  !
 --------------------------                            --------------------------
 ! Name  Definition              Value          Derivative Info.                !
 --------------------------------------------------------------------------------
 ! R1    R(1,2)                  1.4059         estimate D2E/DX2                !
 ! R2    R(1,6)                  1.4059         estimate D2E/DX2                !
 ! R3    R(1,8)                  1.7655         estimate D2E/DX2                !
 ! R4    R(2,3)                  1.4059         estimate D2E/DX2                !
 ! R5    R(2,9)                  1.7655         estimate D2E/DX2                !
 ! R6    R(3,4)                  1.4059         estimate D2E/DX2                !
 ! R7    R(3,10)                 1.7655         estimate D2E/DX2                !
 ! R8    R(4,5)                  1.4059         estimate D2E/DX2                !
 ! R9    R(4,11)                 1.7655         estimate D2E/DX2                !
 ! R10   R(5,6)                  1.4059         estimate D2E/DX2                !
 ! R11   R(5,12)                 1.7655         estimate D2E/DX2                !
 ! R12   R(6,7)                  1.7655         estimate D2E/DX2                !
 ! A1    A(2,1,6)              119.9999         estimate D2E/DX2                !
 ! A2    A(2,1,8)              119.9999         estimate D2E/DX2                !
 ! A3    A(6,1,8)              120.0001         estimate D2E/DX2                !
 ! A4    A(1,2,3)              120.0            estimate D2E/DX2                !
 ! A5    A(1,2,9)              120.0001         estimate D2E/DX2                !
 ! A6    A(3,2,9)              119.9999         estimate D2E/DX2                !
 ! A7    A(2,3,4)              120.0001         estimate D2E/DX2                !
 ! A8    A(2,3,10)             120.0            estimate D2E/DX2                !
 ! A9    A(4,3,10)             119.9999         estimate D2E/DX2                !
 ! A10   A(3,4,5)              119.9997         estimate D2E/DX2                !
 ! A11   A(3,4,11)             120.0003         estimate D2E/DX2                !
 ! A12   A(5,4,11)             120.0            estimate D2E/DX2                !
 ! A13   A(4,5,6)              120.0            estimate D2E/DX2                !
 ! A14   A(4,5,12)             119.9996         estimate D2E/DX2                !
 ! A15   A(6,5,12)             120.0004         estimate D2E/DX2                !
 ! A16   A(1,6,5)              120.0003         estimate D2E/DX2                !
 ! A17   A(1,6,7)              119.9999         estimate D2E/DX2                !
 ! A18   A(5,6,7)              119.9998         estimate D2E/DX2                !
 ! D1    D(6,1,2,3)              0.0            estimate D2E/DX2                !
 ! D2    D(6,1,2,9)            180.0            estimate D2E/DX2                !
 ! D3    D(8,1,2,3)            180.0            estimate D2E/DX2                !
 ! D4    D(8,1,2,9)              0.0            estimate D2E/DX2                !
 ! D5    D(2,1,6,5)              0.0            estimate D2E/DX2                !
 ! D6    D(2,1,6,7)            180.0            estimate D2E/DX2                !
 ! D7    D(8,1,6,5)            180.0            estimate D2E/DX2                !
 ! D8    D(8,1,6,7)              0.0            estimate D2E/DX2                !
 ! D9    D(1,2,3,4)              0.0            estimate D2E/DX2                !
 ! D10   D(1,2,3,10)           180.0            estimate D2E/DX2                !
 ! D11   D(9,2,3,4)            180.0            estimate D2E/DX2                !
 ! D12   D(9,2,3,10)             0.0            estimate D2E/DX2                !
 ! D13   D(2,3,4,5)              0.0            estimate D2E/DX2                !
 ! D14   D(2,3,4,11)           180.0            estimate D2E/DX2                !
 ! D15   D(10,3,4,5)           180.0            estimate D2E/DX2                !
 ! D16   D(10,3,4,11)            0.0            estimate D2E/DX2                !
 ! D17   D(3,4,5,6)              0.0            estimate D2E/DX2                !
 ! D18   D(3,4,5,12)           180.0            estimate D2E/DX2                !
 ! D19   D(11,4,5,6)           180.0            estimate D2E/DX2                !
 ! D20   D(11,4,5,12)            0.0            estimate D2E/DX2                !
 ! D21   D(4,5,6,1)              0.0            estimate D2E/DX2                !
 ! D22   D(4,5,6,7)            180.0            estimate D2E/DX2                !
 ! D23   D(12,5,6,1)           180.0            estimate D2E/DX2                !
 ! D24   D(12,5,6,7)             0.0            estimate D2E/DX2                !
 --------------------------------------------------------------------------------
 Trust Radius=3.00D-01 FncErr=1.00D-07 GrdErr=1.00D-07 EigMax=2.50D+02 EigMin=1.00D-04
 Number of steps in this run=     64 maximum allowed number of steps=    100.
 GradGradGradGradGradGradGradGradGradGradGradGradGradGradGradGradGradGrad

                          Input orientation:                          
 ---------------------------------------------------------------------
 Center     Atomic      Atomic             Coordinates (Angstroms)
 Number     Number       Type             X           Y           Z
 ---------------------------------------------------------------------
      1          6           0       -3.209280    0.199430    0.000000
      2          6           0       -2.011500    0.935550    0.000000
      3          6           0       -0.775110    0.266300    0.000000
      4          6           0       -0.736500   -1.139070    0.000000
      5          6           0       -1.934290   -1.875190    0.000000
      6          6           0       -3.170670   -1.205940    0.000000
      7         17           0       -4.674830   -2.130350    0.000000
      8          1           0       -4.761930    1.039870    0.000000
      9          1           0       -2.059980    2.700400    0.000000
     10          1           0        0.729050    1.190710    0.000000
     11          1           0        0.816140   -1.979510    0.000000
     12          1           0       -1.885800   -3.640030    0.000000
 ---------------------------------------------------------------------
                    Distance matrix (angstroms):
                    1          2          3          4          5
     1  C    0.000000
     2  C    1.405898   0.000000
     3  C    2.435088   1.405900   0.000000
     4  C    2.811801   2.435092   1.405900   0.000000
     5  C    2.435087   2.811800   2.435093   1.405907   0.000000
     6  C    1.405900   2.435088   2.811796   2.435088   1.405892
     7  Cl   2.752401   4.061166   4.577308   4.061167   2.752393
     8  H    1.765520   2.752408   4.061175   4.577321   4.061173
     9  H    2.752406   1.765516   2.752405   4.061173   4.577316
    10  H    4.061167   2.752403   1.765512   2.752401   4.061173
    11  H    4.577312   4.061173   2.752406   1.765511   2.752408
    12  H    4.061164   4.577306   4.061163   2.752397   1.765506
                    6          7          8          9         10
     6  C    0.000000
     7  Cl   1.765512   0.000000
     8  H    2.752412   3.171416   0.000000
     9  H    4.061173   5.493049   3.171418   0.000000
    10  H    4.577308   6.342819   5.493051   3.171412   0.000000
    11  H    4.061165   5.493041   6.342832   5.493052   3.171416
    12  H    2.752396   3.171407   5.493049   6.342822   5.493040
                   11         12
    11  H    0.000000
    12  H    3.171404   0.000000
 Stoichiometry    C6H5Cl(1-,2)
 Framework group  CS[SG(C6H5Cl)]
 Deg. of freedom    21
 Full point group                 CS      NOp   2
 Largest Abelian subgroup         CS      NOp   2
 Largest concise Abelian subgroup C1      NOp   1
                         Standard orientation:                         
 ---------------------------------------------------------------------
 Center     Atomic      Atomic             Coordinates (Angstroms)
 Number     Number       Type             X           Y           Z
 ---------------------------------------------------------------------
      1          6           0       -1.217545   -0.171923   -0.000000
      2          6           0       -1.217545   -1.577822   -0.000000
      3          6           0        0.000001   -2.280771   -0.000000
      4          6           0        1.217547   -1.577822   -0.000000
      5          6           0        1.217542   -0.171915    0.000000
      6          6           0        0.000001    0.531026    0.000000
      7         17           0       -0.000000    2.296537    0.000000
      8          1           0       -2.746531    0.710835    0.000000
      9          1           0       -2.746524   -2.460583   -0.000000
     10          1           0        0.000003   -4.046282   -0.000000
     11          1           0        2.746528   -2.460572   -0.000000
     12          1           0        2.746518    0.710833    0.000000
 ---------------------------------------------------------------------
 Rotational constants (GHZ):           4.9758856           1.4882741           1.1456217
 Standard basis: VSTO-6G (5D, 7F)
 There are    26 symmetry adapted cartesian basis functions of A'  symmetry.
 There are     7 symmetry adapted cartesian basis functions of A"  symmetry.
 There are    26 symmetry adapted basis functions of A'  symmetry.
 There are     7 symmetry adapted basis functions of A"  symmetry.
    33 basis functions,   198 primitive gaussians,    33 cartesian basis functions
    19 alpha electrons       18 beta electrons
       nuclear repulsion energy       153.2264601429 Hartrees.
 Integral buffers will be    131072 words long.
 Regular integral format.
 Two-electron integral symmetry is turned off.
 Do NDO integrals.
 One-electron integrals computed using PRISM.
 NBasis=    33 RedAO= T EigKep=  1.00D+00  NBF=    26     7
 NBsUse=    33 1.00D-06 EigRej= -1.00D+00 NBFU=    26     7
 Simple Huckel Guess.
 Initial guess orbital symmetries:
 Alpha Orbitals:
       Occupied  (A') (A') (A') (A') (A') (A') (A') (A') (A") (A')
                 (A') (A') (A") (A') (A') (A") (A') (A") (A')
       Virtual   (A') (A") (A") (A') (A') (A') (A") (A') (A') (A')
                 (A') (A') (A') (A')
 Beta  Orbitals:
       Occupied  (A') (A') (A') (A') (A') (A') (A') (A') (A") (A')
                 (A') (A') (A") (A') (A') (A") (A') (A")
       Virtual   (A') (A') (A") (A") (A') (A') (A') (A") (A') (A')
                 (A') (A') (A') (A') (A')
 The electronic state of the initial guess is 2-A'.
 Initial guess <Sx>= 0.0000 <Sy>= 0.0000 <Sz>= 0.5000 <S**2>= 0.7500 S= 0.5000
 Keep J ints in memory in canonical form, NReq=862182.
 Overlap will be assumed to be unity.
 Requested convergence on RMS density matrix=1.00D-08 within  32 cycles.
 Requested convergence on MAX density matrix=1.00D-06.
 Requested convergence on             energy=1.00D-06.
 No special actions if energy rises.
 Fock symm off for IB=2 I1=    1 I=   27 J=   23 Cut=1.00D-07 Err=1.20D-02
 Fock matrix is not symmetric: symmetry in diagonalization turned off.
 Rare condition: small coef for last iteration:  0.000D+00
 >>>>>>>>>> Convergence criterion not met.
 SCF Done:  E(UAM1) =  0.604232782621     A.U. after   33 cycles
            NFock= 32  Conv=0.42D-04     -V/T= 1.0087
 <Sx>= 0.0000 <Sy>= 0.0000 <Sz>= 0.5000 <S**2>= 1.6681 S= 0.8850
 <L.S>=  0.00000000000    
 Annihilation of the first spin contaminant:
 S**2 before annihilation     1.6681,   after     1.8254
 Keep J ints in memory in canonical form, NReq=862582.
 LinEq1:  Iter=  0 NonCon=     1 RMS=1.40D-05 Max=1.23D-04 NDo=     1
 AX will form     1 AO Fock derivatives at one time.
 LinEq1:  Iter=  1 NonCon=     1 RMS=1.89D-06 Max=2.12D-05 NDo=     1
 LinEq1:  Iter=  2 NonCon=     1 RMS=8.26D-07 Max=1.08D-05 NDo=     1
 LinEq1:  Iter=  3 NonCon=     1 RMS=2.46D-07 Max=2.44D-06 NDo=     1
 LinEq1:  Iter=  4 NonCon=     1 RMS=5.27D-08 Max=5.19D-07 NDo=     1
 LinEq1:  Iter=  5 NonCon=     1 RMS=1.38D-08 Max=1.63D-07 NDo=     1
 LinEq1:  Iter=  6 NonCon=     1 RMS=3.32D-09 Max=2.75D-08 NDo=     1
 LinEq1:  Iter=  7 NonCon=     0 RMS=6.75D-10 Max=4.16D-09 NDo=     1
 Linear equations converged to 1.387D-09 1.387D-08 after     7 iterations.
 Incorrect curvature in search direction -- initial direction reversed.
     Note:  rotation exceeds Pi/2.
     Note:  rotation exceeds Pi/2.
     Note:  rotation exceeds Pi/2.
     Note:  rotation exceeds Pi/2.
     Note:  rotation exceeds Pi/2.
     Note:  rotation exceeds Pi/2.
     Note:  rotation exceeds Pi/2.
     Note:  rotation exceeds Pi/2.
     Minimum is close to point  4 DX=  0.00D+00 DF=  0.00D+00 DXR=  0.00D+00 DFR=  0.00D+00 which will be used.
 LinEq1:  Iter=  0 NonCon=     1 RMS=9.72D-05 Max=8.91D-04 NDo=     1
 LinEq1:  Iter=  1 NonCon=     1 RMS=3.01D-05 Max=2.89D-04 NDo=     1
 LinEq1:  Iter=  2 NonCon=     1 RMS=9.68D-06 Max=8.69D-05 NDo=     1
 LinEq1:  Iter=  3 NonCon=     1 RMS=2.70D-06 Max=2.85D-05 NDo=     1
 LinEq1:  Iter=  4 NonCon=     1 RMS=1.02D-06 Max=1.29D-05 NDo=     1
 LinEq1:  Iter=  5 NonCon=     1 RMS=2.96D-07 Max=3.73D-06 NDo=     1
 LinEq1:  Iter=  6 NonCon=     1 RMS=6.96D-08 Max=4.85D-07 NDo=     1
 LinEq1:  Iter=  7 NonCon=     1 RMS=1.80D-08 Max=1.75D-07 NDo=     1
 LinEq1:  Iter=  8 NonCon=     1 RMS=3.21D-09 Max=2.34D-08 NDo=     1
 LinEq1:  Iter=  9 NonCon=     0 RMS=6.66D-10 Max=4.62D-09 NDo=     1
 Linear equations converged to 2.315D-09 2.315D-08 after     9 iterations.
 LinEq1:  Iter=  0 NonCon=     1 RMS=5.77D-05 Max=4.25D-04 NDo=     1
 LinEq1:  Iter=  1 NonCon=     1 RMS=1.78D-05 Max=1.10D-04 NDo=     1
 LinEq1:  Iter=  2 NonCon=     1 RMS=3.90D-06 Max=3.05D-05 NDo=     1
 LinEq1:  Iter=  3 NonCon=     1 RMS=1.26D-06 Max=8.45D-06 NDo=     1
 LinEq1:  Iter=  4 NonCon=     1 RMS=4.17D-07 Max=3.13D-06 NDo=     1
 LinEq1:  Iter=  5 NonCon=     1 RMS=1.04D-07 Max=6.93D-07 NDo=     1
 LinEq1:  Iter=  6 NonCon=     1 RMS=2.60D-08 Max=1.71D-07 NDo=     1
 LinEq1:  Iter=  7 NonCon=     1 RMS=7.31D-09 Max=6.71D-08 NDo=     1
 LinEq1:  Iter=  8 NonCon=     0 RMS=2.15D-09 Max=1.66D-08 NDo=     1
 Linear equations converged to 2.315D-09 2.315D-08 after     8 iterations.
     Minimum is close to point  2 DX=  2.57D-03 DF= -1.94D-11 DXR=  2.57D-03 DFR=  6.59D-06 which will be used.
 LinEq1:  Iter=  0 NonCon=     1 RMS=4.36D-06 Max=3.17D-05 NDo=     1
 LinEq1:  Iter=  1 NonCon=     1 RMS=1.55D-06 Max=1.25D-05 NDo=     1
 LinEq1:  Iter=  2 NonCon=     1 RMS=4.15D-07 Max=2.39D-06 NDo=     1
 LinEq1:  Iter=  3 NonCon=     1 RMS=1.18D-07 Max=7.64D-07 NDo=     1
 LinEq1:  Iter=  4 NonCon=     1 RMS=3.51D-08 Max=2.63D-07 NDo=     1
 LinEq1:  Iter=  5 NonCon=     1 RMS=1.30D-08 Max=1.38D-07 NDo=     1
 LinEq1:  Iter=  6 NonCon=     1 RMS=3.60D-09 Max=3.11D-08 NDo=     1
 LinEq1:  Iter=  7 NonCon=     1 RMS=6.40D-10 Max=3.15D-09 NDo=     1
 LinEq1:  Iter=  8 NonCon=     0 RMS=1.61D-10 Max=1.14D-09 NDo=     1
 Linear equations converged to 5.326D-10 5.326D-09 after     8 iterations.
 LinEq1:  Iter=  0 NonCon=     1 RMS=2.32D-06 Max=1.71D-05 NDo=     1
 LinEq1:  Iter=  1 NonCon=     1 RMS=6.70D-07 Max=3.65D-06 NDo=     1
 LinEq1:  Iter=  2 NonCon=     1 RMS=1.48D-07 Max=1.08D-06 NDo=     1
 LinEq1:  Iter=  3 NonCon=     1 RMS=4.56D-08 Max=4.57D-07 NDo=     1
 LinEq1:  Iter=  4 NonCon=     1 RMS=1.62D-08 Max=1.35D-07 NDo=     1
 LinEq1:  Iter=  5 NonCon=     1 RMS=3.93D-09 Max=3.01D-08 NDo=     1
 LinEq1:  Iter=  6 NonCon=     1 RMS=1.07D-09 Max=7.91D-09 NDo=     1
 LinEq1:  Iter=  7 NonCon=     0 RMS=2.55D-10 Max=1.86D-09 NDo=     1
 Linear equations converged to 2.836D-10 2.836D-09 after     7 iterations.
 LinEq1:  Iter=  0 NonCon=     1 RMS=9.72D-08 Max=7.09D-07 NDo=     1
 LinEq1:  Iter=  1 NonCon=     1 RMS=4.11D-08 Max=3.89D-07 NDo=     1
 LinEq1:  Iter=  2 NonCon=     1 RMS=8.74D-09 Max=6.18D-08 NDo=     1
 LinEq1:  Iter=  3 NonCon=     1 RMS=2.61D-09 Max=2.32D-08 NDo=     1
 LinEq1:  Iter=  4 NonCon=     1 RMS=7.81D-10 Max=4.30D-09 NDo=     1
 LinEq1:  Iter=  5 NonCon=     1 RMS=2.53D-10 Max=1.38D-09 NDo=     1
 LinEq1:  Iter=  6 NonCon=     1 RMS=5.53D-11 Max=5.00D-10 NDo=     1
 LinEq1:  Iter=  7 NonCon=     1 RMS=1.68D-11 Max=1.53D-10 NDo=     1
 LinEq1:  Iter=  8 NonCon=     0 RMS=3.09D-12 Max=2.22D-11 NDo=     1
 Linear equations converged to 1.191D-11 1.191D-10 after     8 iterations.
 LinEq1:  Iter=  0 NonCon=     1 RMS=5.07D-08 Max=3.65D-07 NDo=     1
 LinEq1:  Iter=  1 NonCon=     1 RMS=1.39D-08 Max=9.51D-08 NDo=     1
 LinEq1:  Iter=  2 NonCon=     1 RMS=3.64D-09 Max=2.61D-08 NDo=     1
 LinEq1:  Iter=  3 NonCon=     1 RMS=8.05D-10 Max=5.75D-09 NDo=     1
 LinEq1:  Iter=  4 NonCon=     1 RMS=2.50D-10 Max=1.59D-09 NDo=     1
 LinEq1:  Iter=  5 NonCon=     1 RMS=8.55D-11 Max=6.65D-10 NDo=     1
 LinEq1:  Iter=  6 NonCon=     1 RMS=2.16D-11 Max=1.21D-10 NDo=     1
 LinEq1:  Iter=  7 NonCon=     0 RMS=5.10D-12 Max=4.40D-11 NDo=     1
 Linear equations converged to 6.247D-12 6.247D-11 after     7 iterations.
 SCF Done:  E(UAM1) =  0.604152066865     a.u. after    8 cycles
            Convg  =    0.6599D-07                    79 Fock formations.
              S**2 =  1.7041                  -V/T =  1.0087
 <Sx>= 0.0000 <Sy>= 0.0000 <Sz>= 0.5000 <S**2>= 1.7041 S= 0.8979
 <L.S>=  0.00000000000    
 Annihilation of the first spin contaminant:
 S**2 before annihilation     1.7041,   after     2.0029

 **********************************************************************

            Population analysis using the SCF Density.

 **********************************************************************

 Orbital symmetries:
 Alpha Orbitals:
       Occupied  (A') (A') (A') (A') (A') (A') (A') (A') (A") (A')
                 (A') (A") (A') (A') (A') (A') (A") (A") (A')
       Virtual   (A') (A') (A') (A") (A") (A') (A') (A") (A') (A')
                 (A') (A') (A') (A')
 Beta  Orbitals:
       Occupied  (A') (A') (A') (A') (A') (A') (A') (A') (A") (A')
                 (A') (A") (A') (A') (A") (A') (A") (A')
       Virtual   (A') (A") (A') (A') (A") (A') (A') (A") (A') (A')
                 (A') (A') (A') (A') (A')
 The electronic state is 2-A'.
 Alpha  occ. eigenvalues --   -1.23924  -1.19266  -0.91374  -0.89948  -0.62256
 Alpha  occ. eigenvalues --   -0.59706  -0.42641  -0.39458  -0.35912  -0.31406
 Alpha  occ. eigenvalues --   -0.30119  -0.28865  -0.27489  -0.26882  -0.22352
 Alpha  occ. eigenvalues --   -0.20672  -0.18341  -0.16980  -0.05866
 Alpha virt. eigenvalues --    0.14358   0.14965   0.16764   0.18406   0.19988
 Alpha virt. eigenvalues --    0.21157   0.21558   0.28906   0.33262   0.33469
 Alpha virt. eigenvalues --    0.36298   0.37088   0.38266   0.41348
  Beta  occ. eigenvalues --   -1.24496  -1.20019  -0.92473  -0.92317  -0.63029
  Beta  occ. eigenvalues --   -0.62349  -0.44145  -0.40425  -0.36437  -0.31090
  Beta  occ. eigenvalues --   -0.30287  -0.29453  -0.27653  -0.26158  -0.19609
  Beta  occ. eigenvalues --   -0.18798  -0.18072  -0.15676
  Beta virt. eigenvalues --    0.17190   0.18017   0.18790   0.18837   0.19024
  Beta virt. eigenvalues --    0.21378   0.21941   0.27914   0.29379   0.32587
  Beta virt. eigenvalues --    0.32804   0.34752   0.35812   0.37339   0.39451
          Condensed to atoms (all electrons):
               1          2          3          4          5          6
     1  C    4.109594   0.000000   0.000000   0.000000   0.000000   0.000000
     2  C    0.000000   4.136503   0.000000   0.000000   0.000000   0.000000
     3  C    0.000000   0.000000   4.201333   0.000000   0.000000   0.000000
     4  C    0.000000   0.000000   0.000000   4.136498   0.000000   0.000000
     5  C    0.000000   0.000000   0.000000   0.000000   4.109602   0.000000
     6  C    0.000000   0.000000   0.000000   0.000000   0.000000   4.106621
     7  Cl   0.000000   0.000000   0.000000   0.000000   0.000000   0.000000
     8  H    0.000000   0.000000   0.000000   0.000000   0.000000   0.000000
     9  H    0.000000   0.000000   0.000000   0.000000   0.000000   0.000000
    10  H    0.000000   0.000000   0.000000   0.000000   0.000000   0.000000
    11  H    0.000000   0.000000   0.000000   0.000000   0.000000   0.000000
    12  H    0.000000   0.000000   0.000000   0.000000   0.000000   0.000000
               7          8          9         10         11         12
     1  C    0.000000   0.000000   0.000000   0.000000   0.000000   0.000000
     2  C    0.000000   0.000000   0.000000   0.000000   0.000000   0.000000
     3  C    0.000000   0.000000   0.000000   0.000000   0.000000   0.000000
     4  C    0.000000   0.000000   0.000000   0.000000   0.000000   0.000000
     5  C    0.000000   0.000000   0.000000   0.000000   0.000000   0.000000
     6  C    0.000000   0.000000   0.000000   0.000000   0.000000   0.000000
     7  Cl   7.127201   0.000000   0.000000   0.000000   0.000000   0.000000
     8  H    0.000000   0.966289   0.000000   0.000000   0.000000   0.000000
     9  H    0.000000   0.000000   0.989424   0.000000   0.000000   0.000000
    10  H    0.000000   0.000000   0.000000   1.161252   0.000000   0.000000
    11  H    0.000000   0.000000   0.000000   0.000000   0.989410   0.000000
    12  H    0.000000   0.000000   0.000000   0.000000   0.000000   0.966273
          Atomic-Atomic Spin Densities.
               1          2          3          4          5          6
     1  C   -0.084743   0.000000   0.000000   0.000000   0.000000   0.000000
     2  C    0.000000  -0.676078   0.000000   0.000000   0.000000   0.000000
     3  C    0.000000   0.000000   0.221072   0.000000   0.000000   0.000000
     4  C    0.000000   0.000000   0.000000  -0.676109   0.000000   0.000000
     5  C    0.000000   0.000000   0.000000   0.000000  -0.084565   0.000000
     6  C    0.000000   0.000000   0.000000   0.000000   0.000000  -0.238469
     7  Cl   0.000000   0.000000   0.000000   0.000000   0.000000   0.000000
     8  H    0.000000   0.000000   0.000000   0.000000   0.000000   0.000000
     9  H    0.000000   0.000000   0.000000   0.000000   0.000000   0.000000
    10  H    0.000000   0.000000   0.000000   0.000000   0.000000   0.000000
    11  H    0.000000   0.000000   0.000000   0.000000   0.000000   0.000000
    12  H    0.000000   0.000000   0.000000   0.000000   0.000000   0.000000
               7          8          9         10         11         12
     1  C    0.000000   0.000000   0.000000   0.000000   0.000000   0.000000
     2  C    0.000000   0.000000   0.000000   0.000000   0.000000   0.000000
     3  C    0.000000   0.000000   0.000000   0.000000   0.000000   0.000000
     4  C    0.000000   0.000000   0.000000   0.000000   0.000000   0.000000
     5  C    0.000000   0.000000   0.000000   0.000000   0.000000   0.000000
     6  C    0.000000   0.000000   0.000000   0.000000   0.000000   0.000000
     7  Cl  -0.012235   0.000000   0.000000   0.000000   0.000000   0.000000
     8  H    0.000000   0.354998   0.000000   0.000000   0.000000   0.000000
     9  H    0.000000   0.000000   0.554919   0.000000   0.000000   0.000000
    10  H    0.000000   0.000000   0.000000   0.731533   0.000000   0.000000
    11  H    0.000000   0.000000   0.000000   0.000000   0.554881   0.000000
    12  H    0.000000   0.000000   0.000000   0.000000   0.000000   0.354795
 Mulliken charges and spin densities:
               1          2
     1  C   -0.109594  -0.084743
     2  C   -0.136503  -0.676078
     3  C   -0.201333   0.221072
     4  C   -0.136498  -0.676109
     5  C   -0.109602  -0.084565
     6  C   -0.106621  -0.238469
     7  Cl  -0.127201  -0.012235
     8  H    0.033711   0.354998
     9  H    0.010576   0.554919
    10  H   -0.161252   0.731533
    11  H    0.010590   0.554881
    12  H    0.033727   0.354795
 Sum of Mulliken charges =  -1.00000   1.00000
 Mulliken charges and spin densities with hydrogens summed into heavy atoms:
               1          2
     1  C   -0.075884   0.270255
     2  C   -0.125927  -0.121159
     3  C   -0.362585   0.952605
     4  C   -0.125908  -0.121227
     5  C   -0.075875   0.270230
     6  C   -0.106621  -0.238469
     7  Cl  -0.127201  -0.012235
 Charge=             -1.0000 electrons
 Dipole moment (field-independent basis, Debye):
    X=              0.0005    Y=              7.0535    Z=              0.0000  Tot=              7.0535
 N-N= 1.532264601429D+02 E-N=-2.180436332498D+02  KE=-6.934156141444D+01
 Symmetry A'   KE=-5.450805908922D+01
 Symmetry A"   KE=-1.483350232522D+01
 Symmetry A'   SP= 1.000000000000D+00
 Symmetry A"   SP= 3.330669073875D-16
 Calling FoFJK, ICntrl=      2127 FMM=F ISym2X=1 I1Cent= 0 IOpClX= 1 NMat=1 NMatS=1 NMatT=0.
 ***** Axes restored to original set *****
 -------------------------------------------------------------------
 Center     Atomic                   Forces (Hartrees/Bohr)
 Number     Number              X              Y              Z
 -------------------------------------------------------------------
      1        6          -0.039934110    0.050473740   -0.000000000
      2        6           0.006591964    0.015598857   -0.000000000
      3        6          -0.004591329   -0.002818872   -0.000000000
      4        6           0.016898029   -0.001170893   -0.000000000
      5        6           0.027000772   -0.058444750   -0.000000000
      6        6          -0.008990870   -0.005519604   -0.000000000
      7       17           0.022633976    0.013910338   -0.000000000
      8        1           0.088898640   -0.049707950    0.000000000
      9        1           0.002057204   -0.083303296    0.000000000
     10        1          -0.032974160   -0.020265109    0.000000000
     11        1          -0.073396827    0.039466718    0.000000000
     12        1          -0.004193292    0.101780821    0.000000000
 -------------------------------------------------------------------
 Cartesian Forces:  Max     0.101780821 RMS     0.035685393

 GradGradGradGradGradGradGradGradGradGradGradGradGradGradGradGradGradGrad
 Berny optimization.
 FormGI is forming the generalized inverse of G from B-inverse, IUseBI=4.
 Internal  Forces:  Max     0.101857595 RMS     0.030882464
 Search for a local minimum.
 Step number   1 out of a maximum of   64
 All quantities printed in internal units (Hartrees-Bohrs-Radians)
 Mixed Optimization -- RFO/linear search
 Second derivative matrix not updated -- first step.
 ITU=  0
     Eigenvalues ---    0.02011   0.02011   0.02011   0.02011   0.02011
     Eigenvalues ---    0.02011   0.02011   0.02011   0.02011   0.06524
     Eigenvalues ---    0.06524   0.06524   0.06524   0.06524   0.16000
     Eigenvalues ---    0.16000   0.16000   0.16000   0.16000   0.22000
     Eigenvalues ---    0.22000   0.23485   0.25000   0.29033   0.40686
     Eigenvalues ---    0.40876   0.44656   0.44657   0.44657   0.44657
 RFO step:  Lambda=-1.75626403D-01 EMin= 2.01065826D-02
 Linear search not attempted -- first point.
 Maximum step size (   0.300) exceeded in Quadratic search.
    -- Step size scaled by   0.368
 Iteration  1 RMS(Cart)=  0.04993994 RMS(Int)=  0.00003944
 Iteration  2 RMS(Cart)=  0.00007101 RMS(Int)=  0.00000710
 Iteration  3 RMS(Cart)=  0.00000000 RMS(Int)=  0.00000710
 ClnCor:  largest displacement from symmetrization is 2.05D-10 for atom     8.
 Variable       Old X    -DE/DX   Delta X   Delta X   Delta X     New X
                                 (Linear)    (Quad)   (Total)
    R1        2.65676  -0.05013   0.00000  -0.02961  -0.02961   2.62715
    R2        2.65677  -0.03135   0.00000  -0.01804  -0.01805   2.63872
    R3        3.33635  -0.10184   0.00000  -0.15543  -0.15543   3.18092
    R4        2.65677  -0.05919   0.00000  -0.03546  -0.03545   2.62132
    R5        3.33634  -0.08333   0.00000  -0.12717  -0.12717   3.20917
    R6        2.65677  -0.05919   0.00000  -0.03545  -0.03544   2.62132
    R7        3.33633  -0.03870   0.00000  -0.05907  -0.05907   3.27727
    R8        2.65678  -0.05013   0.00000  -0.02962  -0.02962   2.62716
    R9        3.33633  -0.08333   0.00000  -0.12718  -0.12718   3.20915
   R10        2.65675  -0.03134   0.00000  -0.01803  -0.01804   2.63871
   R11        3.33632  -0.10186   0.00000  -0.15545  -0.15545   3.18088
   R12        3.33633  -0.02657   0.00000  -0.02096  -0.02096   3.31538
    A1        2.09439   0.00004   0.00000   0.00068   0.00067   2.09506
    A2        2.09439   0.00231   0.00000   0.00221   0.00222   2.09661
    A3        2.09440  -0.00235   0.00000  -0.00289  -0.00289   2.09151
    A4        2.09439   0.00990   0.00000   0.00828   0.00829   2.10269
    A5        2.09440  -0.00534   0.00000  -0.00456  -0.00457   2.08983
    A6        2.09439  -0.00457   0.00000  -0.00372  -0.00372   2.09067
    A7        2.09440  -0.00580   0.00000  -0.00708  -0.00706   2.08734
    A8        2.09440   0.00290   0.00000   0.00354   0.00353   2.09793
    A9        2.09439   0.00290   0.00000   0.00354   0.00353   2.09792
   A10        2.09439   0.00990   0.00000   0.00828   0.00829   2.10268
   A11        2.09440  -0.00457   0.00000  -0.00372  -0.00372   2.09068
   A12        2.09440  -0.00534   0.00000  -0.00456  -0.00457   2.08983
   A13        2.09439   0.00004   0.00000   0.00068   0.00067   2.09506
   A14        2.09439   0.00231   0.00000   0.00221   0.00222   2.09660
   A15        2.09440  -0.00235   0.00000  -0.00289  -0.00289   2.09152
   A16        2.09440  -0.01408   0.00000  -0.01084  -0.01086   2.08354
   A17        2.09439   0.00704   0.00000   0.00542   0.00543   2.09982
   A18        2.09439   0.00704   0.00000   0.00542   0.00543   2.09982
    D1       -0.00000  -0.00000   0.00000   0.00000   0.00000   0.00000
    D2        3.14159   0.00000   0.00000   0.00000   0.00000   3.14159
    D3        3.14159  -0.00000   0.00000  -0.00000   0.00000   3.14159
    D4       -0.00000  -0.00000   0.00000   0.00000   0.00000   0.00000
    D5       -0.00000   0.00000   0.00000   0.00000   0.00000   0.00000
    D6        3.14159  -0.00000   0.00000  -0.00000   0.00000   3.14159
    D7        3.14159   0.00000   0.00000   0.00000   0.00000   3.14159
    D8        0.00000   0.00000   0.00000   0.00000  -0.00000   0.00000
    D9        0.00000  -0.00000   0.00000  -0.00000  -0.00000   0.00000
   D10        3.14159   0.00000   0.00000   0.00000   0.00000   3.14159
   D11        3.14159  -0.00000   0.00000  -0.00000   0.00000   3.14159
   D12       -0.00000  -0.00000   0.00000  -0.00000   0.00000   0.00000
   D13       -0.00000   0.00000   0.00000  -0.00000   0.00000   0.00000
   D14        3.14159   0.00000   0.00000   0.00000   0.00000   3.14159
   D15        3.14159  -0.00000   0.00000  -0.00000   0.00000   3.14159
   D16        0.00000   0.00000   0.00000  -0.00000  -0.00000   0.00000
   D17        0.00000   0.00000   0.00000   0.00000  -0.00000   0.00000
   D18        3.14159   0.00000   0.00000   0.00000   0.00000   3.14159
   D19        3.14159  -0.00000   0.00000  -0.00000   0.00000   3.14159
   D20        0.00000   0.00000   0.00000   0.00000   0.00000   0.00000
   D21        0.00000  -0.00000   0.00000  -0.00000   0.00000   0.00000
   D22        3.14159   0.00000   0.00000   0.00000   0.00000   3.14159
   D23        3.14159  -0.00000   0.00000  -0.00000   0.00000   3.14159
   D24       -0.00000  -0.00000   0.00000  -0.00000   0.00000   0.00000
         Item               Value     Threshold  Converged?
 Maximum Force            0.101858     0.000450     NO 
 RMS     Force            0.030882     0.000300     NO 
 Maximum Displacement     0.183740     0.001800     NO 
 RMS     Displacement     0.049940     0.001200     NO 
 Predicted change in Energy=-6.059637D-02
 GradGradGradGradGradGradGradGradGradGradGradGradGradGradGradGradGradGrad

                          Input orientation:                          
 ---------------------------------------------------------------------
 Center     Atomic      Atomic             Coordinates (Angstroms)
 Number     Number       Type             X           Y           Z
 ---------------------------------------------------------------------
      1          6           0       -3.195487    0.193727    0.000000
      2          6           0       -2.007605    0.915993    0.000000
      3          6           0       -0.785387    0.259983    0.000000
      4          6           0       -0.752188   -1.126764    0.000000
      5          6           0       -1.933145   -1.860310    0.000000
      6          6           0       -3.164721   -1.202284   -0.000000
      7         17           0       -4.659432   -2.120887   -0.000000
      8          1           0       -4.673761    0.998780   -0.000000
      9          1           0       -2.053909    2.613582    0.000000
     10          1           0        0.692144    1.168027    0.000000
     11          1           0        0.741423   -1.934877    0.000000
     12          1           0       -1.882631   -3.542799   -0.000000
 ---------------------------------------------------------------------
                    Distance matrix (angstroms):
                    1          2          3          4          5
     1  C    0.000000
     2  C    1.390227   0.000000
     3  C    2.411011   1.387144   0.000000
     4  C    2.777302   2.397692   1.387144   0.000000
     5  C    2.410928   2.777302   2.411015   1.390234   0.000000
     6  C    1.396350   2.413714   2.792751   2.413714   1.396344
     7  Cl   2.738717   4.031727   4.547171   4.031729   2.738711
     8  H    1.683273   2.667441   3.957939   4.460569   3.960477
     9  H    2.675612   1.698220   2.673682   3.960387   4.475522
    10  H    4.007859   2.711488   1.734255   2.711486   4.007864
    11  H    4.475513   3.960381   2.673679   1.698211   2.675607
    12  H    3.960457   4.460543   3.957916   2.667420   1.683247
                    6          7          8          9         10
     6  C    0.000000
     7  Cl   1.754421   0.000000
     8  H    2.668687   3.119700   0.000000
     9  H    3.974259   5.404067   3.077533   0.000000
    10  H    4.527005   6.281426   5.368573   3.103294   0.000000
    11  H    3.974248   5.404057   6.158780   5.338760   3.103296
    12  H    2.668663   3.119688   5.330699   6.158763   5.368552
                   11         12
    11  H    0.000000
    12  H    3.077511   0.000000
 Stoichiometry    C6H5Cl(1-,2)
 Framework group  CS[SG(C6H5Cl)]
 Deg. of freedom    21
 Full point group                 CS      NOp   2
 Largest Abelian subgroup         CS      NOp   2
 Largest concise Abelian subgroup C1      NOp   1
                         Standard orientation:                         
 ---------------------------------------------------------------------
 Center     Atomic      Atomic             Coordinates (Angstroms)
 Number     Number       Type             X           Y           Z
 ---------------------------------------------------------------------
      1          6           0       -1.205464   -0.175826   -0.000000
      2          6           0       -1.198840   -1.566037   -0.000000
      3          6           0        0.000007   -2.263842    0.000000
      4          6           0        1.198852   -1.566031    0.000000
      5          6           0        1.205464   -0.175812    0.000000
      6          6           0       -0.000000    0.528908    0.000000
      7         17           0       -0.000007    2.283329   -0.000000
      8          1           0       -2.665362    0.662092   -0.000000
      9          1           0       -2.669374   -2.415439   -0.000000
     10          1           0        0.000013   -3.998097    0.000000
     11          1           0        2.669386   -2.415412    0.000000
     12          1           0        2.665337    0.662096    0.000000
 ---------------------------------------------------------------------
 Rotational constants (GHZ):           5.1542428           1.5099843           1.1678512
 Standard basis: VSTO-6G (5D, 7F)
 There are    26 symmetry adapted cartesian basis functions of A'  symmetry.
 There are     7 symmetry adapted cartesian basis functions of A"  symmetry.
 There are    26 symmetry adapted basis functions of A'  symmetry.
 There are     7 symmetry adapted basis functions of A"  symmetry.
    33 basis functions,   198 primitive gaussians,    33 cartesian basis functions
    19 alpha electrons       18 beta electrons
       nuclear repulsion energy       154.4080304688 Hartrees.
 Integral buffers will be    131072 words long.
 Regular integral format.
 Two-electron integral symmetry is turned off.
 Do NDO integrals.
 One-electron integrals computed using PRISM.
 NBasis=    33 RedAO= T EigKep=  1.00D+00  NBF=    26     7
 NBsUse=    33 1.00D-06 EigRej= -1.00D+00 NBFU=    26     7
 Initial guess from the checkpoint file:  "geometry_chks/1ClBzAnionRadical.chk"
 B after Tr=    -0.000000    0.000000   -0.000000
         Rot=    1.000000   -0.000000   -0.000000   -0.000001 Ang=  -0.00 deg.
 Initial guess orbital symmetries:
 Alpha Orbitals:
       Occupied  (A') (A') (A') (A') (A') (A') (A') (A') (A") (A')
                 (A') (A") (A') (A') (A') (A') (A") (A") (A')
       Virtual   (A') (A') (A') (A") (A") (A') (A') (A") (A') (A')
                 (A') (A') (A') (A')
 Beta  Orbitals:
       Occupied  (A') (A') (A') (A') (A') (A') (A') (A') (A") (A')
                 (A') (A") (A') (A') (A") (A') (A") (A')
       Virtual   (A') (A") (A') (A') (A") (A') (A') (A") (A') (A')
                 (A') (A') (A') (A') (A')
 Initial guess <Sx>= 0.0000 <Sy>= 0.0000 <Sz>= 0.5000 <S**2>= 1.7041 S= 0.8979
 Keep J ints in memory in canonical form, NReq=862182.
 Overlap will be assumed to be unity.
 Requested convergence on RMS density matrix=1.00D-08 within  32 cycles.
 Requested convergence on MAX density matrix=1.00D-06.
 Requested convergence on             energy=1.00D-06.
 No special actions if energy rises.
 Fock symm off for IB=2 I1=    1 I=   27 J=   18 Cut=1.00D-07 Err=1.13D-03
 Fock matrix is not symmetric: symmetry in diagonalization turned off.
 Rare condition: small coef for last iteration:  0.000D+00
 >>>>>>>>>> Convergence criterion not met.
 SCF Done:  E(UAM1) =  0.533992540201     A.U. after   33 cycles
            NFock= 32  Conv=0.21D-06     -V/T= 1.0077
 <Sx>= 0.0000 <Sy>= 0.0000 <Sz>= 0.5000 <S**2>= 1.5317 S= 0.8348
 <L.S>=  0.00000000000    
 Annihilation of the first spin contaminant:
 S**2 before annihilation     1.5317,   after     1.6139
 Keep J ints in memory in canonical form, NReq=862582.
 SCF Done:  E(UAM1) =  0.533992540200     a.u. after    1 cycles
            Convg  =    0.1201D-06                     1 Fock formations.
              S**2 =  1.5317                  -V/T =  1.0077
 <Sx>= 0.0000 <Sy>= 0.0000 <Sz>= 0.5000 <S**2>= 1.5317 S= 0.8348
 <L.S>=  0.00000000000    
 Annihilation of the first spin contaminant:
 S**2 before annihilation     1.5317,   after     1.6139
 Calling FoFJK, ICntrl=      2127 FMM=F ISym2X=1 I1Cent= 0 IOpClX= 1 NMat=1 NMatS=1 NMatT=0.
 ***** Axes restored to original set *****
 -------------------------------------------------------------------
 Center     Atomic                   Forces (Hartrees/Bohr)
 Number     Number              X              Y              Z
 -------------------------------------------------------------------
      1        6          -0.074636822    0.062777003   -0.000000000
      2        6          -0.000631851    0.059664297   -0.000000000
      3        6           0.018326145    0.011260606   -0.000000000
      4        6           0.052943735   -0.027516507   -0.000000000
      5        6           0.022303627   -0.094949583   -0.000000000
      6        6          -0.018511652   -0.011371993   -0.000000000
      7       17           0.017830536    0.010958339   -0.000000000
      8        1           0.098791124   -0.055634648    0.000000000
      9        1           0.002354980   -0.099031719    0.000000000
     10        1          -0.026465453   -0.016264778    0.000000000
     11        1          -0.087292009    0.046835663    0.000000000
     12        1          -0.005012361    0.113273320    0.000000000
 -------------------------------------------------------------------
 Cartesian Forces:  Max     0.113273320 RMS     0.045282970

 GradGradGradGradGradGradGradGradGradGradGradGradGradGradGradGradGradGrad
 Berny optimization.
 Using GEDIIS/GDIIS optimizer.
 FormGI is forming the generalized inverse of G from B-inverse, IUseBI=4.
 Internal  Forces:  Max     0.113372723 RMS     0.030458125
 Search for a local minimum.
 Step number   2 out of a maximum of   64
 All quantities printed in internal units (Hartrees-Bohrs-Radians)
 Mixed Optimization -- RFO/linear search
 Update second derivatives using D2CorX and points    1    2
 DE= -7.02D-02 DEPred=-6.06D-02 R= 1.16D+00
 TightC=F SS=  1.41D+00  RLast= 3.00D-01 DXNew= 5.0454D-01 9.0000D-01
 Trust test= 1.16D+00 RLast= 3.00D-01 DXMaxT set to 5.05D-01
 ITU=  1  0
 Use linear search instead of GDIIS.
     Eigenvalues ---   -1.87708   0.00386   0.02011   0.02011   0.02011
     Eigenvalues ---    0.02011   0.02011   0.02011   0.02011   0.02011
     Eigenvalues ---    0.02011   0.06524   0.06524   0.06524   0.07828
     Eigenvalues ---    0.15994   0.16000   0.16000   0.16000   0.16000
     Eigenvalues ---    0.21883   0.22000   0.23506   0.25000   0.29143
     Eigenvalues ---    0.40584   0.40989   0.44634   0.44656   0.44657
 RFO step:  Lambda=-1.87759059D+00 EMin=-1.87708098D+00
 I=     1 Eig=   -1.88D+00 Dot1=  1.84D-02
 I=     1 Stepn=  6.00D-01 RXN=   6.00D-01 EDone=F
 Mixed    1 eigenvectors in step.  Raw Step.Grad=  1.84D-02.
 RFO eigenvector is Hessian eigenvector with negative curvature.
 Taking step of  6.00D-01 in eigenvector direction(s).  Step.Grad=  2.97D-02.
 Skip linear search -- no minimum in search direction.
 Maximum step size (   0.505) exceeded in Quadratic search.
    -- Step size not scaled.
 Iteration  1 RMS(Cart)=  0.08271391 RMS(Int)=  0.01253323
 Iteration  2 RMS(Cart)=  0.01820285 RMS(Int)=  0.00042711
 Iteration  3 RMS(Cart)=  0.00007562 RMS(Int)=  0.00042261
 Iteration  4 RMS(Cart)=  0.00000002 RMS(Int)=  0.00042261
 ClnCor:  largest displacement from symmetrization is 9.23D-10 for atom     8.
 Variable       Old X    -DE/DX   Delta X   Delta X   Delta X     New X
                                 (Linear)    (Quad)   (Total)
    R1        2.62715  -0.02389   0.00000   0.21531   0.21530   2.84245
    R2        2.63872  -0.01087   0.00000   0.16620   0.16558   2.80430
    R3        3.18092  -0.11337   0.00000  -0.09950  -0.09950   3.08142
    R4        2.62132  -0.02676   0.00000   0.26606   0.26667   2.88799
    R5        3.20917  -0.09906   0.00000  -0.14055  -0.14055   3.06862
    R6        2.62132  -0.02676   0.00000   0.26603   0.26663   2.88796
    R7        3.27727  -0.03106   0.00000   0.07501   0.07501   3.35228
    R8        2.62716  -0.02390   0.00000   0.21529   0.21528   2.84245
    R9        3.20915  -0.09906   0.00000  -0.14052  -0.14052   3.06863
   R10        2.63871  -0.01086   0.00000   0.16619   0.16557   2.80428
   R11        3.18088  -0.11337   0.00000  -0.09940  -0.09940   3.08147
   R12        3.31538  -0.02093   0.00000   0.05209   0.05209   3.36747
    A1        2.09506   0.00016   0.00000   0.00067  -0.00001   2.09505
    A2        2.09661   0.00248   0.00000   0.00141   0.00175   2.09836
    A3        2.09151  -0.00264   0.00000  -0.00208  -0.00174   2.08977
    A4        2.10269   0.00924   0.00000  -0.00682  -0.00616   2.09653
    A5        2.08983  -0.00518   0.00000   0.00195   0.00161   2.09144
    A6        2.09067  -0.00407   0.00000   0.00488   0.00455   2.09521
    A7        2.08734  -0.00869   0.00000  -0.02326  -0.02190   2.06544
    A8        2.09793   0.00435   0.00000   0.01163   0.01094   2.10887
    A9        2.09792   0.00435   0.00000   0.01163   0.01095   2.10888
   A10        2.10268   0.00924   0.00000  -0.00682  -0.00616   2.09653
   A11        2.09068  -0.00407   0.00000   0.00487   0.00454   2.09522
   A12        2.08983  -0.00518   0.00000   0.00195   0.00161   2.09144
   A13        2.09506   0.00016   0.00000   0.00068  -0.00000   2.09506
   A14        2.09660   0.00248   0.00000   0.00141   0.00175   2.09835
   A15        2.09152  -0.00264   0.00000  -0.00209  -0.00175   2.08977
   A16        2.08354  -0.01011   0.00000   0.03555   0.03422   2.11776
   A17        2.09982   0.00506   0.00000  -0.01778  -0.01711   2.08271
   A18        2.09982   0.00506   0.00000  -0.01778  -0.01711   2.08271
    D1       -0.00000   0.00000   0.00000   0.00000   0.00000   0.00000
    D2        3.14159   0.00000   0.00000   0.00000   0.00000   3.14159
    D3        3.14159  -0.00000   0.00000   0.00000   0.00000   3.14159
    D4        0.00000   0.00000   0.00000   0.00000   0.00000   0.00000
    D5        0.00000   0.00000   0.00000  -0.00000  -0.00000   0.00000
    D6        3.14159  -0.00000   0.00000  -0.00000   0.00000   3.14159
    D7        3.14159   0.00000   0.00000   0.00000   0.00000   3.14159
    D8       -0.00000   0.00000   0.00000   0.00000   0.00000   0.00000
    D9        0.00000  -0.00000   0.00000  -0.00000  -0.00000   0.00000
   D10        3.14159   0.00000   0.00000  -0.00000   0.00000   3.14159
   D11        3.14159  -0.00000   0.00000  -0.00000   0.00000   3.14159
   D12       -0.00000  -0.00000   0.00000  -0.00000   0.00000   0.00000
   D13       -0.00000   0.00000   0.00000   0.00000   0.00000   0.00000
   D14        3.14159   0.00000   0.00000   0.00000   0.00000   3.14159
   D15        3.14159  -0.00000   0.00000   0.00000   0.00000   3.14159
   D16        0.00000   0.00000   0.00000   0.00000  -0.00000   0.00000
   D17        0.00000   0.00000   0.00000   0.00000  -0.00000   0.00000
   D18        3.14159   0.00000   0.00000   0.00000   0.00000   3.14159
   D19        3.14159  -0.00000   0.00000   0.00000   0.00000   3.14159
   D20        0.00000   0.00000   0.00000   0.00000   0.00000   0.00000
   D21        0.00000  -0.00000   0.00000  -0.00000   0.00000   0.00000
   D22        3.14159   0.00000   0.00000  -0.00000   0.00000   3.14159
   D23        3.14159  -0.00000   0.00000  -0.00000   0.00000   3.14159
   D24        0.00000  -0.00000   0.00000  -0.00000  -0.00000   0.00000
         Item               Value     Threshold  Converged?
 Maximum Force            0.113373     0.000450     NO 
 RMS     Force            0.030458     0.000300     NO 
 Maximum Displacement     0.290381     0.001800     NO 
 RMS     Displacement     0.096512     0.001200     NO 
 Predicted change in Energy=-3.562604D-01
 GradGradGradGradGradGradGradGradGradGradGradGradGradGradGradGradGradGrad

                          Input orientation:                          
 ---------------------------------------------------------------------
 Center     Atomic      Atomic             Coordinates (Angstroms)
 Number     Number       Type             X           Y           Z
 ---------------------------------------------------------------------
      1          6           0       -3.291603    0.238273    0.000000
      2          6           0       -2.019925    1.041598    0.000000
      3          6           0       -0.665541    0.333633    0.000000
      4          6           0       -0.645699   -1.194479    0.000000
      5          6           0       -1.936820   -1.966163    0.000000
      6          6           0       -3.233519   -1.244560   -0.000000
      7         17           0       -4.751712   -2.177602   -0.000000
      8          1           0       -4.738087    0.991002   -0.000000
      9          1           0       -2.089339    2.663956    0.000000
     10          1           0        0.845807    1.262459    0.000000
     11          1           0        0.770365   -1.989240    0.000000
     12          1           0       -1.918626   -3.596706   -0.000000
 ---------------------------------------------------------------------
                    Distance matrix (angstroms):
                    1          2          3          4          5
     1  C    0.000000
     2  C    1.504159   0.000000
     3  C    2.627793   1.528258   0.000000
     4  C    3.008918   2.624603   1.528241   0.000000
     5  C    2.587466   3.008909   2.627777   1.504158   0.000000
     6  C    1.483971   2.588306   3.014167   2.588304   1.483960
     7  Cl   2.822830   4.222074   4.796154   4.222070   2.822822
     8  H    1.630618   2.718632   4.125259   4.639393   4.073318
     9  H    2.707282   1.623843   2.730862   4.119662   4.632631
    10  H    4.262291   2.874230   1.773948   2.874219   4.262279
    11  H    4.632646   4.119673   2.730854   1.623848   2.707284
    12  H    4.073344   4.639410   4.125262   2.718646   1.630644
                    6          7          8          9         10
     6  C    0.000000
     7  Cl   1.781987   0.000000
     8  H    2.694710   3.168633   0.000000
     9  H    4.072548   5.525298   3.132833   0.000000
    10  H    4.788115   6.570102   5.590488   3.252579   0.000000
    11  H    4.072547   5.525289   6.262978   5.461698   3.252575
    12  H    2.694723   3.168633   5.384833   6.262989   5.590490
                   11         12
    11  H    0.000000
    12  H    3.132830   0.000000
 Stoichiometry    C6H5Cl(1-,2)
 Framework group  CS[SG(C6H5Cl)]
 Deg. of freedom    21
 Full point group                 CS      NOp   2
 Largest Abelian subgroup         CS      NOp   2
 Largest concise Abelian subgroup C1      NOp   1
                         Standard orientation:                         
 ---------------------------------------------------------------------
 Center     Atomic      Atomic             Coordinates (Angstroms)
 Number     Number       Type             X           Y           Z
 ---------------------------------------------------------------------
      1          6           0       -1.293741   -0.142539    0.000000
      2          6           0       -1.312307   -1.646583    0.000000
      3          6           0        0.000003   -2.429791    0.000000
      4          6           0        1.312296   -1.646588    0.000000
      5          6           0        1.293725   -0.142545    0.000000
      6          6           0        0.000000    0.584375    0.000000
      7         17           0        0.000008    2.366363    0.000000
      8          1           0       -2.692410    0.695697    0.000000
      9          1           0       -2.730850   -2.436900    0.000000
     10          1           0        0.000002   -4.203739    0.000000
     11          1           0        2.730848   -2.436900    0.000000
     12          1           0        2.692423    0.695694    0.000000
 ---------------------------------------------------------------------
 Rotational constants (GHZ):           4.5470430           1.3800891           1.0587455
 Standard basis: VSTO-6G (5D, 7F)
 There are    26 symmetry adapted cartesian basis functions of A'  symmetry.
 There are     7 symmetry adapted cartesian basis functions of A"  symmetry.
 There are    26 symmetry adapted basis functions of A'  symmetry.
 There are     7 symmetry adapted basis functions of A"  symmetry.
    33 basis functions,   198 primitive gaussians,    33 cartesian basis functions
    19 alpha electrons       18 beta electrons
       nuclear repulsion energy       149.7333974434 Hartrees.
 Integral buffers will be    131072 words long.
 Regular integral format.
 Two-electron integral symmetry is turned off.
 Do NDO integrals.
 One-electron integrals computed using PRISM.
 NBasis=    33 RedAO= T EigKep=  1.00D+00  NBF=    26     7
 NBsUse=    33 1.00D-06 EigRej= -1.00D+00 NBFU=    26     7
 Initial guess from the checkpoint file:  "geometry_chks/1ClBzAnionRadical.chk"
 B after Tr=     0.000000    0.000000    0.000000
         Rot=    1.000000    0.000000    0.000000    0.000003 Ang=   0.00 deg.
 Initial guess orbital symmetries:
 Alpha Orbitals:
       Occupied  (A') (A') (A') (A') (A') (A') (A') (A') (A") (A')
                 (A') (A") (A') (A') (A') (A") (A') (A") (A')
       Virtual   (A') (A') (A') (A") (A") (A') (A') (A") (A') (A')
                 (A') (A') (A') (A')
 Beta  Orbitals:
       Occupied  (A') (A') (A') (A') (A') (A') (A') (A') (A") (A')
                 (A') (A") (A') (A') (A') (A") (A") (A')
       Virtual   (A') (A') (A') (A") (A") (A') (A') (A") (A') (A')
                 (A') (A') (A') (A') (A')
 Initial guess <Sx>= 0.0000 <Sy>= 0.0000 <Sz>= 0.5000 <S**2>= 1.5317 S= 0.8348
 Keep J ints in memory in canonical form, NReq=862182.
 Overlap will be assumed to be unity.
 Requested convergence on RMS density matrix=1.00D-08 within  32 cycles.
 Requested convergence on MAX density matrix=1.00D-06.
 Requested convergence on             energy=1.00D-06.
 No special actions if energy rises.
 Fock symm off for IB=2 I1=    1 I=   27 J=   14 Cut=1.00D-07 Err=3.92D-03
 Fock matrix is not symmetric: symmetry in diagonalization turned off.
 SCF Done:  E(UAM1) =  0.581960996446     A.U. after   27 cycles
            NFock= 26  Conv=0.88D-08     -V/T= 1.0084
 <Sx>= 0.0000 <Sy>= 0.0000 <Sz>= 0.5000 <S**2>= 1.7991 S= 0.9315
 <L.S>=  0.00000000000    
 Annihilation of the first spin contaminant:
 S**2 before annihilation     1.7991,   after     2.1272
 QCSCF skips out because SCF is already converged.
 Calling FoFJK, ICntrl=      2127 FMM=F ISym2X=1 I1Cent= 0 IOpClX= 1 NMat=1 NMatS=1 NMatT=0.
 ***** Axes restored to original set *****
 -------------------------------------------------------------------
 Center     Atomic                   Forces (Hartrees/Bohr)
 Number     Number              X              Y              Z
 -------------------------------------------------------------------
      1        6           0.004813801    0.023166161   -0.000000000
      2        6          -0.004132250   -0.023709234    0.000000000
      3        6          -0.056980966   -0.035015142   -0.000000000
      4        6          -0.023017781    0.007021074    0.000000000
      5        6           0.022844072   -0.006171663    0.000000000
      6        6           0.047109323    0.028955419   -0.000000000
      7       17           0.033792472    0.020768240   -0.000000000
      8        1           0.104567502   -0.056685581    0.000000000
      9        1           0.004712781   -0.122662731    0.000000000
     10        1          -0.023061711   -0.014173004    0.000000000
     11        1          -0.107306539    0.059611998    0.000000000
     12        1          -0.003340702    0.118894463    0.000000000
 -------------------------------------------------------------------
 Cartesian Forces:  Max     0.122662731 RMS     0.044267487

 GradGradGradGradGradGradGradGradGradGradGradGradGradGradGradGradGradGrad
 Berny optimization.
 Using GEDIIS/GDIIS optimizer.
 FormGI is forming the generalized inverse of G from B-inverse, IUseBI=4.
 Internal  Forces:  Max     0.123250733 RMS     0.051911850
 Search for a local minimum.
 Step number   3 out of a maximum of   64
 All quantities printed in internal units (Hartrees-Bohrs-Radians)
 Mixed Optimization -- RFO/linear search
 Update second derivatives using D2CorX and points    1    3    2
 ITU=  0  1  0
 Use linear search instead of GDIIS.
     Eigenvalues ---    0.00306   0.02011   0.02011   0.02011   0.02011
     Eigenvalues ---    0.02011   0.02011   0.02011   0.02011   0.02011
     Eigenvalues ---    0.06433   0.06524   0.06524   0.06903   0.15994
     Eigenvalues ---    0.16000   0.16000   0.16000   0.16000   0.21759
     Eigenvalues ---    0.22000   0.23424   0.25000   0.28924   0.35225
     Eigenvalues ---    0.41106   0.44625   0.44656   0.44657   0.57197
 RFO step:  Lambda=-2.13490856D-01 EMin= 3.05809388D-03
 Quartic linear search produced a step of -0.88389.
 Maximum step size (   0.505) exceeded in Quadratic search.
    -- Step size scaled by   0.524
 Iteration  1 RMS(Cart)=  0.12233251 RMS(Int)=  0.01002715
 Iteration  2 RMS(Cart)=  0.01463647 RMS(Int)=  0.00005273
 Iteration  3 RMS(Cart)=  0.00006769 RMS(Int)=  0.00000387
 Iteration  4 RMS(Cart)=  0.00000000 RMS(Int)=  0.00000387
 ClnCor:  largest displacement from symmetrization is 9.67D-09 for atom    10.
 Variable       Old X    -DE/DX   Delta X   Delta X   Delta X     New X
                                 (Linear)    (Quad)   (Total)
    R1        2.84245  -0.12325  -0.19030  -0.01387  -0.20417   2.63828
    R2        2.80430  -0.10801  -0.14635   0.00482  -0.14154   2.66276
    R3        3.08142  -0.11893   0.08795  -0.26902  -0.18107   2.90035
    R4        2.88799  -0.12164  -0.23570  -0.01854  -0.25424   2.63375
    R5        3.06862  -0.12275   0.12423  -0.22103  -0.09680   2.97182
    R6        2.88796  -0.12164  -0.23567  -0.01855  -0.25422   2.63374
    R7        3.35228  -0.02707  -0.06630  -0.08896  -0.15526   3.19702
    R8        2.84245  -0.12325  -0.19029  -0.01388  -0.20416   2.63828
    R9        3.06863  -0.12275   0.12421  -0.22104  -0.09684   2.97179
   R10        2.80428  -0.10801  -0.14635   0.00483  -0.14152   2.66276
   R11        3.08147  -0.11892   0.08786  -0.26905  -0.18118   2.90029
   R12        3.36747  -0.03966  -0.04604  -0.03527  -0.08132   3.28615
    A1        2.09505  -0.00061   0.00001   0.00187   0.00187   2.09692
    A2        2.09836   0.00341  -0.00155   0.00446   0.00291   2.10128
    A3        2.08977  -0.00280   0.00154  -0.00633  -0.00478   2.08499
    A4        2.09653   0.01547   0.00544   0.01576   0.02121   2.11774
    A5        2.09144  -0.00856  -0.00143  -0.00893  -0.01035   2.08109
    A6        2.09521  -0.00691  -0.00402  -0.00684  -0.01086   2.08436
    A7        2.06544  -0.01953   0.01935  -0.01722   0.00214   2.06758
    A8        2.10887   0.00976  -0.00967   0.00861  -0.00107   2.10780
    A9        2.10888   0.00976  -0.00968   0.00861  -0.00107   2.10780
   A10        2.09653   0.01547   0.00544   0.01576   0.02121   2.11774
   A11        2.09522  -0.00691  -0.00401  -0.00684  -0.01085   2.08436
   A12        2.09144  -0.00856  -0.00143  -0.00893  -0.01036   2.08108
   A13        2.09506  -0.00061   0.00000   0.00187   0.00186   2.09692
   A14        2.09835   0.00341  -0.00155   0.00446   0.00292   2.10127
   A15        2.08977  -0.00280   0.00155  -0.00633  -0.00478   2.08499
   A16        2.11776  -0.01019  -0.03025  -0.01803  -0.04829   2.06947
   A17        2.08271   0.00509   0.01513   0.00902   0.02415   2.10686
   A18        2.08271   0.00509   0.01512   0.00902   0.02415   2.10686
    D1        0.00000   0.00000   0.00000   0.00000   0.00000   0.00000
    D2        3.14159   0.00000   0.00000   0.00000   0.00000   3.14159
    D3        3.14159  -0.00000   0.00000  -0.00000   0.00000   3.14159
    D4        0.00000  -0.00000   0.00000   0.00000   0.00000   0.00000
    D5        0.00000   0.00000   0.00000   0.00000   0.00000   0.00000
    D6        3.14159  -0.00000   0.00000   0.00000   0.00000   3.14159
    D7        3.14159   0.00000   0.00000   0.00000   0.00000   3.14159
    D8        0.00000   0.00000   0.00000   0.00000   0.00000   0.00000
    D9        0.00000  -0.00000   0.00000  -0.00000   0.00000   0.00000
   D10        3.14159   0.00000   0.00000   0.00000   0.00000   3.14159
   D11        3.14159  -0.00000   0.00000  -0.00000   0.00000   3.14159
   D12        0.00000  -0.00000   0.00000  -0.00000   0.00000   0.00000
   D13        0.00000   0.00000   0.00000   0.00000   0.00000   0.00000
   D14        3.14159   0.00000   0.00000   0.00000   0.00000   3.14159
   D15        3.14159  -0.00000   0.00000  -0.00000   0.00000   3.14159
   D16        0.00000  -0.00000   0.00000   0.00000   0.00000   0.00000
   D17        0.00000   0.00000   0.00000   0.00000   0.00000   0.00000
   D18        3.14159   0.00000   0.00000   0.00000   0.00000   3.14159
   D19        3.14159  -0.00000   0.00000  -0.00000   0.00000   3.14159
   D20        0.00000   0.00000   0.00000   0.00000   0.00000   0.00000
   D21        0.00000  -0.00000   0.00000  -0.00000   0.00000   0.00000
   D22        3.14159   0.00000   0.00000  -0.00000   0.00000   3.14159
   D23        3.14159  -0.00000   0.00000  -0.00000   0.00000   3.14159
   D24        0.00000   0.00000   0.00000  -0.00000   0.00000   0.00000
         Item               Value     Threshold  Converged?
 Maximum Force            0.123251     0.000450     NO 
 RMS     Force            0.051912     0.000300     NO 
 Maximum Displacement     0.370963     0.001800     NO 
 RMS     Displacement     0.132837     0.001200     NO 
 Predicted change in Energy=-1.050141D-01
 GradGradGradGradGradGradGradGradGradGradGradGradGradGradGradGradGradGrad

                          Input orientation:                          
 ---------------------------------------------------------------------
 Center     Atomic      Atomic             Coordinates (Angstroms)
 Number     Number       Type             X           Y           Z
 ---------------------------------------------------------------------
      1          6           0       -3.200184    0.197825   -0.000000
      2          6           0       -2.003530    0.916968   -0.000000
      3          6           0       -0.769069    0.270008   -0.000000
      4          6           0       -0.749477   -1.123570   -0.000000
      5          6           0       -1.931605   -1.866350   -0.000000
      6          6           0       -3.179046   -1.211088   -0.000000
      7         17           0       -4.660581   -2.121594   -0.000000
      8          1           0       -4.547694    0.932553   -0.000000
      9          1           0       -2.052014    2.488841   -0.000000
     10          1           0        0.672284    1.155817   -0.000000
     11          1           0        0.630984   -1.876840   -0.000000
     12          1           0       -1.884767   -3.400401   -0.000000
 ---------------------------------------------------------------------
                    Distance matrix (angstroms):
                    1          2          3          4          5
     1  C    0.000000
     2  C    1.396118   0.000000
     3  C    2.432186   1.393719   0.000000
     4  C    2.784250   2.395088   1.393716   0.000000
     5  C    2.422831   2.784248   2.432184   1.396120   0.000000
     6  C    1.409072   2.431144   2.828717   2.431145   1.409070
     7  Cl   2.740888   4.036431   4.567672   4.036432   2.740886
     8  H    1.534799   2.544211   3.836271   4.319039   3.831159
     9  H    2.562625   1.572620   2.563038   3.840067   4.356855
    10  H    3.989204   2.686453   1.691790   2.686448   3.989202
    11  H    4.356843   3.840056   2.563026   1.572605   2.562611
    12  H    3.831129   4.319002   3.836233   2.544179   1.534765
                    6          7          8          9         10
     6  C    0.000000
     7  Cl   1.738955   0.000000
     8  H    2.543304   3.056232   0.000000
     9  H    3.867774   5.297238   2.941165   0.000000
    10  H    4.520507   6.259462   5.224750   3.032944   0.000000
    11  H    3.867759   5.297222   5.891638   5.124221   3.032938
    12  H    2.543275   3.056221   5.085830   5.891616   5.224713
                   11         12
    11  H    0.000000
    12  H    2.941130   0.000000
 Stoichiometry    C6H5Cl(1-,2)
 Framework group  CS[SG(C6H5Cl)]
 Deg. of freedom    21
 Full point group                 CS      NOp   2
 Largest Abelian subgroup         CS      NOp   2
 Largest concise Abelian subgroup C1      NOp   1
                         Standard orientation:                         
 ---------------------------------------------------------------------
 Center     Atomic      Atomic             Coordinates (Angstroms)
 Number     Number       Type             X           Y           Z
 ---------------------------------------------------------------------
      1          6           0       -1.211416   -0.173772    0.000000
      2          6           0       -1.197541   -1.569821    0.000000
      3          6           0        0.000005   -2.282797    0.000000
      4          6           0        1.197547   -1.569819    0.000000
      5          6           0        1.211415   -0.173768    0.000000
      6          6           0        0.000000    0.545920    0.000000
      7         17           0       -0.000003    2.284875    0.000000
      8          1           0       -2.542929    0.589564    0.000000
      9          1           0       -2.562111   -2.351538    0.000000
     10          1           0        0.000010   -3.974587    0.000000
     11          1           0        2.562110   -2.351518    0.000000
     12          1           0        2.542901    0.589549    0.000000
 ---------------------------------------------------------------------
 Rotational constants (GHZ):           5.2695827           1.5064594           1.1715412
 Standard basis: VSTO-6G (5D, 7F)
 There are    26 symmetry adapted cartesian basis functions of A'  symmetry.
 There are     7 symmetry adapted cartesian basis functions of A"  symmetry.
 There are    26 symmetry adapted basis functions of A'  symmetry.
 There are     7 symmetry adapted basis functions of A"  symmetry.
    33 basis functions,   198 primitive gaussians,    33 cartesian basis functions
    19 alpha electrons       18 beta electrons
       nuclear repulsion energy       155.0037431877 Hartrees.
 Integral buffers will be    131072 words long.
 Regular integral format.
 Two-electron integral symmetry is turned off.
 Do NDO integrals.
 One-electron integrals computed using PRISM.
 NBasis=    33 RedAO= T EigKep=  1.00D+00  NBF=    26     7
 NBsUse=    33 1.00D-06 EigRej= -1.00D+00 NBFU=    26     7
 Lowest energy guess from the checkpoint file:  "geometry_chks/1ClBzAnionRadical.chk"
 B after Tr=    -0.000000   -0.000000    0.000000
         Rot=    1.000000    0.000000    0.000000    0.000001 Ang=   0.00 deg.
 B after Tr=    -0.000000   -0.000000    0.000000
         Rot=    1.000000   -0.000000   -0.000000   -0.000002 Ang=  -0.00 deg.
 Initial guess orbital symmetries:
 Alpha Orbitals:
       Occupied  (A') (A") (A") (A') (A") (A') (A') (A') (A') (A')
                 (A') (A') (A') (A') (A") (A") (A") (A") (A")
       Virtual   (A') (A") (A") (A') (A") (A') (A') (A') (A') (A')
                 (A') (A') (A') (A')
 Beta  Orbitals:
       Occupied  (A") (A") (A') (A') (A') (A") (A') (A') (A') (A')
                 (A') (A') (A') (A') (A') (A") (A") (A")
       Virtual   (A") (A") (A') (A') (A') (A") (A') (A') (A') (A')
                 (A') (A') (A') (A') (A')
 Initial guess <Sx>= 0.0000 <Sy>= 0.0000 <Sz>= 0.5000 <S**2>= 1.5431 S= 0.8391
 Keep J ints in memory in canonical form, NReq=862182.
 Overlap will be assumed to be unity.
 Requested convergence on RMS density matrix=1.00D-08 within  32 cycles.
 Requested convergence on MAX density matrix=1.00D-06.
 Requested convergence on             energy=1.00D-06.
 No special actions if energy rises.
 An orbital has undefined symmetry, so N**3 symmetry is turned off.
 SCF Done:  E(UAM1) =  0.411181504159     A.U. after   25 cycles
            NFock= 24  Conv=0.91D-08     -V/T= 1.0059
 <Sx>= 0.0000 <Sy>= 0.0000 <Sz>= 0.5000 <S**2>= 0.8858 S= 0.5657
 <L.S>=  0.00000000000    
 Annihilation of the first spin contaminant:
 S**2 before annihilation     0.8858,   after     0.7648
 QCSCF skips out because SCF is already converged.
 Calling FoFJK, ICntrl=      2127 FMM=F ISym2X=1 I1Cent= 0 IOpClX= 1 NMat=1 NMatS=1 NMatT=0.
 ***** Axes restored to original set *****
 -------------------------------------------------------------------
 Center     Atomic                   Forces (Hartrees/Bohr)
 Number     Number              X              Y              Z
 -------------------------------------------------------------------
      1        6          -0.077567578    0.052564951   -0.000000000
      2        6          -0.012986408    0.081104925   -0.000000000
      3        6           0.018549843    0.011402949    0.000000000
      4        6           0.066492994   -0.048223734   -0.000000000
      5        6           0.011861570   -0.092948233    0.000000000
      6        6           0.006083725    0.003740918    0.000000000
      7       17           0.012669300    0.007786208   -0.000000000
      8        1           0.104324420   -0.058594602    0.000000000
      9        1           0.003381582   -0.120639117    0.000000000
     10        1          -0.021552838   -0.013245651    0.000000000
     11        1          -0.106102858    0.057510290    0.000000000
     12        1          -0.005153753    0.119541097    0.000000000
 -------------------------------------------------------------------
 Cartesian Forces:  Max     0.120639117 RMS     0.050056536

 GradGradGradGradGradGradGradGradGradGradGradGradGradGradGradGradGradGrad
 Berny optimization.
 Using GEDIIS/GDIIS optimizer.
 FormGI is forming the generalized inverse of G from B-inverse, IUseBI=4.
 Internal  Forces:  Max     0.120686101 RMS     0.034207041
 Search for a local minimum.
 Step number   4 out of a maximum of   64
 All quantities printed in internal units (Hartrees-Bohrs-Radians)
 Mixed Optimization -- RFO/linear search
 Update second derivatives using D2CorX and points    2    4
 DE= -1.23D-01 DEPred=-1.05D-01 R= 1.17D+00
 TightC=F SS=  1.41D+00  RLast= 5.30D-01 DXNew= 8.4853D-01 1.5898D+00
 Trust test= 1.17D+00 RLast= 5.30D-01 DXMaxT set to 8.49D-01
 ITU=  1  0  1  0
 Use linear search instead of GDIIS.
     Eigenvalues ---   -0.06752   0.02011   0.02011   0.02011   0.02011
     Eigenvalues ---    0.02011   0.02011   0.02011   0.02011   0.02011
     Eigenvalues ---    0.04849   0.06524   0.06524   0.06594   0.15970
     Eigenvalues ---    0.15999   0.16000   0.16000   0.16000   0.21660
     Eigenvalues ---    0.21730   0.22000   0.25000   0.25188   0.30149
     Eigenvalues ---    0.40565   0.44516   0.44656   0.44657   0.47270
 RFO step:  Lambda=-2.76017461D-01 EMin=-6.75212073D-02
 Skip linear search -- no minimum in search direction.
 Maximum step size (   0.849) exceeded in Quadratic search.
    -- Step size scaled by   0.820
 Iteration  1 RMS(Cart)=  0.06602277 RMS(Int)=  0.06032483
 Iteration  2 RMS(Cart)=  0.05324689 RMS(Int)=  0.00936256
 Iteration  3 RMS(Cart)=  0.00917141 RMS(Int)=  0.00001716
 Iteration  4 RMS(Cart)=  0.00000055 RMS(Int)=  0.00001715
 ClnCor:  largest displacement from symmetrization is 9.36D-09 for atom    12.
 Variable       Old X    -DE/DX   Delta X   Delta X   Delta X     New X
                                 (Linear)    (Quad)   (Total)
    R1        2.63828  -0.03060   0.00000  -0.03931  -0.03931   2.59897
    R2        2.66276  -0.02600   0.00000  -0.03633  -0.03636   2.62640
    R3        2.90035  -0.11964   0.00000  -0.39081  -0.39081   2.50954
    R4        2.63375  -0.02161   0.00000  -0.00302  -0.00299   2.63076
    R5        2.97182  -0.12069   0.00000  -0.44847  -0.44847   2.52335
    R6        2.63374  -0.02160   0.00000  -0.00301  -0.00298   2.63076
    R7        3.19702  -0.02530   0.00000  -0.05545  -0.05545   3.14157
    R8        2.63828  -0.03060   0.00000  -0.03931  -0.03930   2.59898
    R9        2.97179  -0.12069   0.00000  -0.44846  -0.44846   2.52334
   R10        2.66276  -0.02600   0.00000  -0.03633  -0.03636   2.62640
   R11        2.90029  -0.11964   0.00000  -0.39078  -0.39078   2.50950
   R12        3.28615  -0.01487   0.00000  -0.02640  -0.02640   3.25975
    A1        2.09692   0.00038   0.00000   0.00084   0.00082   2.09774
    A2        2.10128   0.00199   0.00000   0.00507   0.00509   2.10637
    A3        2.08499  -0.00237   0.00000  -0.00592  -0.00590   2.07908
    A4        2.11774   0.00714   0.00000   0.01627   0.01630   2.13404
    A5        2.08109  -0.00407   0.00000  -0.00936  -0.00938   2.07171
    A6        2.08436  -0.00307   0.00000  -0.00691  -0.00692   2.07744
    A7        2.06758  -0.01218   0.00000  -0.03535  -0.03529   2.03229
    A8        2.10780   0.00609   0.00000   0.01767   0.01765   2.12545
    A9        2.10780   0.00609   0.00000   0.01767   0.01765   2.12545
   A10        2.11774   0.00714   0.00000   0.01628   0.01630   2.13404
   A11        2.08436  -0.00307   0.00000  -0.00691  -0.00692   2.07744
   A12        2.08108  -0.00407   0.00000  -0.00936  -0.00938   2.07171
   A13        2.09692   0.00038   0.00000   0.00084   0.00081   2.09773
   A14        2.10127   0.00199   0.00000   0.00508   0.00509   2.10636
   A15        2.08499  -0.00237   0.00000  -0.00592  -0.00590   2.07909
   A16        2.06947  -0.00286   0.00000   0.00111   0.00106   2.07053
   A17        2.10686   0.00143   0.00000  -0.00056  -0.00053   2.10633
   A18        2.10686   0.00143   0.00000  -0.00056  -0.00053   2.10633
    D1        0.00000   0.00000   0.00000   0.00000   0.00000   0.00000
    D2        3.14159   0.00000   0.00000   0.00000   0.00000   3.14159
    D3        3.14159  -0.00000   0.00000  -0.00000   0.00000   3.14159
    D4        0.00000  -0.00000   0.00000  -0.00000   0.00000   0.00000
    D5        0.00000  -0.00000   0.00000  -0.00000   0.00000   0.00000
    D6        3.14159  -0.00000   0.00000  -0.00000   0.00000   3.14159
    D7        3.14159   0.00000   0.00000   0.00000   0.00000   3.14159
    D8        0.00000   0.00000   0.00000   0.00000   0.00000   0.00000
    D9        0.00000  -0.00000   0.00000   0.00000   0.00000   0.00000
   D10        3.14159   0.00000   0.00000   0.00000   0.00000   3.14159
   D11        3.14159  -0.00000   0.00000  -0.00000   0.00000   3.14159
   D12        0.00000  -0.00000   0.00000  -0.00000   0.00000   0.00000
   D13        0.00000  -0.00000   0.00000  -0.00000   0.00000   0.00000
   D14        3.14159   0.00000   0.00000  -0.00000   0.00000   3.14159
   D15        3.14159  -0.00000   0.00000  -0.00000   0.00000   3.14159
   D16        0.00000  -0.00000   0.00000  -0.00000   0.00000   0.00000
   D17        0.00000   0.00000   0.00000   0.00000   0.00000   0.00000
   D18        3.14159   0.00000   0.00000   0.00000   0.00000   3.14159
   D19        3.14159  -0.00000   0.00000   0.00000   0.00000   3.14159
   D20        0.00000   0.00000   0.00000   0.00000   0.00000   0.00000
   D21        0.00000  -0.00000   0.00000   0.00000   0.00000   0.00000
   D22        3.14159   0.00000   0.00000   0.00000   0.00000   3.14159
   D23        3.14159  -0.00000   0.00000   0.00000   0.00000   3.14159
[...]
   A14        2.11547  -0.00000  -0.00001  -0.00004  -0.00005   2.11542
   A15        2.09528   0.00003   0.00001   0.00014   0.00015   2.09543
   A16        2.11088  -0.00001  -0.00001   0.00002   0.00001   2.11088
   A17        2.08615   0.00001   0.00001  -0.00001  -0.00000   2.08615
   A18        2.08616   0.00000   0.00001  -0.00001  -0.00001   2.08615
    D1        0.00000   0.00000   0.00000   0.00000  -0.00000   0.00000
    D2        3.14159   0.00000   0.00000   0.00000   0.00000   3.14159
    D3        3.14159  -0.00000   0.00000  -0.00000   0.00000   3.14159
    D4        0.00000   0.00000   0.00000   0.00000   0.00000   0.00000
    D5       -0.00000  -0.00000   0.00000  -0.00000   0.00000   0.00000
    D6        3.14159  -0.00000   0.00000  -0.00000   0.00000   3.14159
    D7        3.14159   0.00000   0.00000   0.00000   0.00000   3.14159
    D8       -0.00000   0.00000   0.00000   0.00000   0.00000   0.00000
    D9        0.00000  -0.00000   0.00000  -0.00000   0.00000   0.00000
   D10        3.14159   0.00000   0.00000   0.00000   0.00000   3.14159
   D11        3.14159  -0.00000   0.00000  -0.00000   0.00000   3.14159
   D12        0.00000  -0.00000   0.00000  -0.00000   0.00000   0.00000
   D13        0.00000  -0.00000   0.00000  -0.00000   0.00000   0.00000
   D14        3.14159   0.00000   0.00000   0.00000   0.00000   3.14159
   D15        3.14159  -0.00000   0.00000  -0.00000   0.00000   3.14159
   D16       -0.00000  -0.00000   0.00000  -0.00000   0.00000   0.00000
   D17       -0.00000   0.00000   0.00000   0.00000   0.00000   0.00000
   D18        3.14159   0.00000   0.00000   0.00000   0.00000   3.14159
   D19        3.14159  -0.00000   0.00000  -0.00000   0.00000   3.14159
   D20        0.00000  -0.00000   0.00000  -0.00000   0.00000   0.00000
   D21        0.00000   0.00000   0.00000   0.00000  -0.00000   0.00000
   D22        3.14159   0.00000   0.00000   0.00000   0.00000   3.14159
   D23        3.14159  -0.00000   0.00000  -0.00000   0.00000   3.14159
   D24        0.00000  -0.00000   0.00000  -0.00000   0.00000   0.00000
         Item               Value     Threshold  Converged?
 Maximum Force            0.000142     0.000450     YES
 RMS     Force            0.000037     0.000300     YES
 Maximum Displacement     0.000677     0.001800     YES
 RMS     Displacement     0.000194     0.001200     YES
 Predicted change in Energy=-1.244432D-07
 Optimization completed.
    -- Stationary point found.
                           ----------------------------
                           !   Optimized Parameters   !
                           ! (Angstroms and Degrees)  !
 --------------------------                            --------------------------
 ! Name  Definition              Value          Derivative Info.                !
 --------------------------------------------------------------------------------
 ! R1    R(1,2)                  1.3962         -DE/DX =    0.0                 !
 ! R2    R(1,6)                  1.398          -DE/DX =    0.0001              !
 ! R3    R(1,8)                  1.0982         -DE/DX =    0.0001              !
 ! R4    R(2,3)                  1.399          -DE/DX =    0.0                 !
 ! R5    R(2,9)                  1.0986         -DE/DX =    0.0001              !
 ! R6    R(3,4)                  1.399          -DE/DX =    0.0                 !
 ! R7    R(3,10)                 1.3902         -DE/DX =    0.0                 !
 ! R8    R(4,5)                  1.3962         -DE/DX =    0.0                 !
 ! R9    R(4,11)                 1.0987         -DE/DX =    0.0                 !
 ! R10   R(5,6)                  1.398          -DE/DX =    0.0001              !
 ! R11   R(5,12)                 1.0983         -DE/DX =    0.0                 !
 ! R12   R(6,7)                  1.7252         -DE/DX =    0.0001              !
 ! A1    A(2,1,6)              118.7416         -DE/DX =    0.0                 !
 ! A2    A(2,1,8)              121.2076         -DE/DX =    0.0                 !
 ! A3    A(6,1,8)              120.0508         -DE/DX =    0.0                 !
 ! A4    A(1,2,3)              121.9408         -DE/DX =    0.0                 !
 ! A5    A(1,2,9)              118.9987         -DE/DX =    0.0                 !
 ! A6    A(3,2,9)              119.0605         -DE/DX =    0.0                 !
 ! A7    A(2,3,4)              117.6913         -DE/DX =    0.0                 !
 ! A8    A(2,3,10)             121.1544         -DE/DX =    0.0                 !
 ! A9    A(4,3,10)             121.1543         -DE/DX =    0.0                 !
 ! A10   A(3,4,5)              121.9407         -DE/DX =    0.0                 !
 ! A11   A(3,4,11)             119.0606         -DE/DX =    0.0                 !
 ! A12   A(5,4,11)             118.9987         -DE/DX =    0.0                 !
 ! A13   A(4,5,6)              118.7414         -DE/DX =    0.0                 !
 ! A14   A(4,5,12)             121.2076         -DE/DX =    0.0                 !
 ! A15   A(6,5,12)             120.0509         -DE/DX =    0.0                 !
 ! A16   A(1,6,5)              120.9442         -DE/DX =    0.0                 !
 ! A17   A(1,6,7)              119.5279         -DE/DX =    0.0                 !
 ! A18   A(5,6,7)              119.5279         -DE/DX =    0.0                 !
 ! D1    D(6,1,2,3)              0.0            -DE/DX =    0.0                 !
 ! D2    D(6,1,2,9)            180.0            -DE/DX =    0.0                 !
 ! D3    D(8,1,2,3)            180.0            -DE/DX =    0.0                 !
 ! D4    D(8,1,2,9)              0.0            -DE/DX =    0.0                 !
 ! D5    D(2,1,6,5)              0.0            -DE/DX =    0.0                 !
 ! D6    D(2,1,6,7)            180.0            -DE/DX =    0.0                 !
 ! D7    D(8,1,6,5)            180.0            -DE/DX =    0.0                 !
 ! D8    D(8,1,6,7)              0.0            -DE/DX =    0.0                 !
 ! D9    D(1,2,3,4)              0.0            -DE/DX =    0.0                 !
 ! D10   D(1,2,3,10)           180.0            -DE/DX =    0.0                 !
 ! D11   D(9,2,3,4)            180.0            -DE/DX =    0.0                 !
 ! D12   D(9,2,3,10)             0.0            -DE/DX =    0.0                 !
 ! D13   D(2,3,4,5)              0.0            -DE/DX =    0.0                 !
 ! D14   D(2,3,4,11)           180.0            -DE/DX =    0.0                 !
 ! D15   D(10,3,4,5)           180.0            -DE/DX =    0.0                 !
 ! D16   D(10,3,4,11)            0.0            -DE/DX =    0.0                 !
 ! D17   D(3,4,5,6)              0.0            -DE/DX =    0.0                 !
 ! D18   D(3,4,5,12)           180.0            -DE/DX =    0.0                 !
 ! D19   D(11,4,5,6)           180.0            -DE/DX =    0.0                 !
 ! D20   D(11,4,5,12)            0.0            -DE/DX =    0.0                 !
 ! D21   D(4,5,6,1)              0.0            -DE/DX =    0.0                 !
 ! D22   D(4,5,6,7)            180.0            -DE/DX =    0.0                 !
 ! D23   D(12,5,6,1)           180.0            -DE/DX =    0.0                 !
 ! D24   D(12,5,6,7)             0.0            -DE/DX =    0.0                 !
 --------------------------------------------------------------------------------
 GradGradGradGradGradGradGradGradGradGradGradGradGradGradGradGradGradGrad

                          Input orientation:                          
 ---------------------------------------------------------------------
 Center     Atomic      Atomic             Coordinates (Angstroms)
 Number     Number       Type             X           Y           Z
 ---------------------------------------------------------------------
      1          6           0       -3.184188    0.213522    0.000000
      2          6           0       -1.984734    0.928177    0.000000
      3          6           0       -0.741244    0.287134    0.000000
      4          6           0       -0.731006   -1.111830   -0.000000
      5          6           0       -1.910397   -1.859139   -0.000000
      6          6           0       -3.134286   -1.183556    0.000000
      7         17           0       -4.604101   -2.086855    0.000000
      8          1           0       -4.153816    0.729194    0.000000
      9          1           0       -2.019022    2.026247    0.000000
     10          1           0        0.443124    1.015012    0.000000
     11          1           0        0.233278   -1.638476   -0.000000
     12          1           0       -1.888308   -2.957260   -0.000000
 ---------------------------------------------------------------------
                    Distance matrix (angstroms):
                    1          2          3          4          5
     1  C    0.000000
     2  C    1.396217   0.000000
     3  C    2.444052   1.399000   0.000000
     4  C    2.788308   2.394465   1.399002   0.000000
     5  C    2.432790   2.788308   2.444056   1.396221   0.000000
     6  C    1.397968   2.404347   2.808839   2.404351   1.397970
     7  Cl   2.703311   3.993934   4.534037   3.993938   2.703313
     8  H    1.098225   2.178190   3.441085   3.886515   3.425260
     9  H    2.154897   1.098605   2.158061   3.392125   3.886904
    10  H    3.714805   2.429410   1.390156   2.429411   3.714809
    11  H    3.887026   3.392239   2.158164   1.098726   2.155002
    12  H    3.425370   3.886633   3.441199   2.178293   1.098343
                    6          7          8          9         10
     6  C    0.000000
     7  Cl   1.725198   0.000000
     8  H    2.167499   2.851823   0.000000
     9  H    3.398035   4.858008   2.497937   0.000000
    10  H    4.198995   5.924193   4.605817   2.661721   0.000000
    11  H    3.398153   4.858115   4.985224   4.301517   2.661773
    12  H    2.167600   2.851865   4.326947   4.985220   4.605922
                   11         12
    11  H    0.000000
    12  H    2.498063   0.000000
 Stoichiometry    C6H5Cl(1-,2)
 Framework group  CS[SG(C6H5Cl)]
 Deg. of freedom    21
 Full point group                 CS      NOp   2
 Largest Abelian subgroup         CS      NOp   2
 Largest concise Abelian subgroup C1      NOp   1
                         Standard orientation:                         
 ---------------------------------------------------------------------
 Center     Atomic      Atomic             Coordinates (Angstroms)
 Number     Number       Type             X           Y           Z
 ---------------------------------------------------------------------
      1          6           0       -1.216398   -0.162430    0.000000
      2          6           0       -1.197245   -1.558516    0.000000
      3          6           0       -0.000019   -2.282292    0.000000
      4          6           0        1.197220   -1.558534    0.000000
      5          6           0        1.216392   -0.162444    0.000000
      6          6           0        0.000000    0.526548    0.000000
      7         17           0        0.000009    2.251745    0.000000
      8          1           0       -2.163422    0.393666    0.000000
      9          1           0       -2.150722   -2.104239    0.000000
     10          1           0       -0.000029   -3.672448    0.000000
     11          1           0        2.150795   -2.104331    0.000000
     12          1           0        2.163525    0.393699    0.000000
 ---------------------------------------------------------------------
 Rotational constants (GHZ):           5.6995495           1.5591460           1.2242461

 **********************************************************************

            Population analysis using the SCF Density.

 **********************************************************************

 Orbital symmetries:
 Alpha Orbitals:
       Occupied  (A') (A') (A') (A') (A') (A') (A') (A') (A') (A")
                 (A') (A') (A') (A") (A') (A') (A") (A") (A')
       Virtual   (A") (A") (A') (A") (A') (A') (A') (A') (A') (A')
                 (A') (A') (A') (A')
 Beta  Orbitals:
       Occupied  (A') (A') (A') (A') (A') (A') (A') (A') (A') (A")
                 (A') (A') (A') (A") (A') (A") (A') (A")
       Virtual   (A") (A') (A") (A') (A") (A') (A') (A') (A') (A')
                 (A') (A') (A') (A') (A')
 The electronic state is 2-A'.
 Alpha  occ. eigenvalues --   -1.26547  -1.20994  -0.98177  -0.94068  -0.67628
 Alpha  occ. eigenvalues --   -0.65674  -0.49065  -0.41638  -0.40126  -0.36209
 Alpha  occ. eigenvalues --   -0.35503  -0.34355  -0.29977  -0.28694  -0.25601
 Alpha  occ. eigenvalues --   -0.20946  -0.19040  -0.15709   0.01554
 Alpha virt. eigenvalues --    0.19291   0.19538   0.20726   0.29441   0.30024
 Alpha virt. eigenvalues --    0.30655   0.33181   0.33647   0.35259   0.35920
 Alpha virt. eigenvalues --    0.36589   0.37084   0.40633   0.41775
  Beta  occ. eigenvalues --   -1.26494  -1.20858  -0.98007  -0.93678  -0.67622
  Beta  occ. eigenvalues --   -0.64971  -0.49069  -0.41035  -0.39956  -0.36459
  Beta  occ. eigenvalues --   -0.35435  -0.33978  -0.29880  -0.28534  -0.25432
  Beta  occ. eigenvalues --   -0.18790  -0.16566  -0.16170
  Beta virt. eigenvalues --    0.19182   0.20265   0.20582   0.30301   0.30706
  Beta virt. eigenvalues --    0.31006   0.33242   0.33363   0.34705   0.36263
  Beta virt. eigenvalues --    0.36540   0.37031   0.40203   0.42866   0.44629
          Condensed to atoms (all electrons):
               1          2          3          4          5          6
     1  C    4.154401   0.000000   0.000000   0.000000   0.000000   0.000000
     2  C    0.000000   4.172458   0.000000   0.000000   0.000000   0.000000
     3  C    0.000000   0.000000   4.114629   0.000000   0.000000   0.000000
     4  C    0.000000   0.000000   0.000000   4.172455   0.000000   0.000000
     5  C    0.000000   0.000000   0.000000   0.000000   4.154400   0.000000
     6  C    0.000000   0.000000   0.000000   0.000000   0.000000   4.126188
     7  Cl   0.000000   0.000000   0.000000   0.000000   0.000000   0.000000
     8  H    0.000000   0.000000   0.000000   0.000000   0.000000   0.000000
     9  H    0.000000   0.000000   0.000000   0.000000   0.000000   0.000000
    10  H    0.000000   0.000000   0.000000   0.000000   0.000000   0.000000
    11  H    0.000000   0.000000   0.000000   0.000000   0.000000   0.000000
    12  H    0.000000   0.000000   0.000000   0.000000   0.000000   0.000000
               7          8          9         10         11         12
     1  C    0.000000   0.000000   0.000000   0.000000   0.000000   0.000000
     2  C    0.000000   0.000000   0.000000   0.000000   0.000000   0.000000
     3  C    0.000000   0.000000   0.000000   0.000000   0.000000   0.000000
     4  C    0.000000   0.000000   0.000000   0.000000   0.000000   0.000000
     5  C    0.000000   0.000000   0.000000   0.000000   0.000000   0.000000
     6  C    0.000000   0.000000   0.000000   0.000000   0.000000   0.000000
     7  Cl   7.139237   0.000000   0.000000   0.000000   0.000000   0.000000
     8  H    0.000000   0.906890   0.000000   0.000000   0.000000   0.000000
     9  H    0.000000   0.000000   0.905671   0.000000   0.000000   0.000000
    10  H    0.000000   0.000000   0.000000   1.341107   0.000000   0.000000
    11  H    0.000000   0.000000   0.000000   0.000000   0.905673   0.000000
    12  H    0.000000   0.000000   0.000000   0.000000   0.000000   0.906891
          Atomic-Atomic Spin Densities.
               1          2          3          4          5          6
     1  C    0.216755   0.000000   0.000000   0.000000   0.000000   0.000000
     2  C    0.000000  -0.192637   0.000000   0.000000   0.000000   0.000000
     3  C    0.000000   0.000000   0.516091   0.000000   0.000000   0.000000
     4  C    0.000000   0.000000   0.000000  -0.192642   0.000000   0.000000
     5  C    0.000000   0.000000   0.000000   0.000000   0.216756   0.000000
     6  C    0.000000   0.000000   0.000000   0.000000   0.000000  -0.217298
     7  Cl   0.000000   0.000000   0.000000   0.000000   0.000000   0.000000
     8  H    0.000000   0.000000   0.000000   0.000000   0.000000   0.000000
     9  H    0.000000   0.000000   0.000000   0.000000   0.000000   0.000000
    10  H    0.000000   0.000000   0.000000   0.000000   0.000000   0.000000
    11  H    0.000000   0.000000   0.000000   0.000000   0.000000   0.000000
    12  H    0.000000   0.000000   0.000000   0.000000   0.000000   0.000000
               7          8          9         10         11         12
     1  C    0.000000   0.000000   0.000000   0.000000   0.000000   0.000000
     2  C    0.000000   0.000000   0.000000   0.000000   0.000000   0.000000
     3  C    0.000000   0.000000   0.000000   0.000000   0.000000   0.000000
     4  C    0.000000   0.000000   0.000000   0.000000   0.000000   0.000000
     5  C    0.000000   0.000000   0.000000   0.000000   0.000000   0.000000
     6  C    0.000000   0.000000   0.000000   0.000000   0.000000   0.000000
     7  Cl   0.006538   0.000000   0.000000   0.000000   0.000000   0.000000
     8  H    0.000000  -0.009395   0.000000   0.000000   0.000000   0.000000
     9  H    0.000000   0.000000   0.011637   0.000000   0.000000   0.000000
    10  H    0.000000   0.000000   0.000000   0.641950   0.000000   0.000000
    11  H    0.000000   0.000000   0.000000   0.000000   0.011640   0.000000
    12  H    0.000000   0.000000   0.000000   0.000000   0.000000  -0.009396
 Mulliken charges and spin densities:
               1          2
     1  C   -0.154401   0.216755
     2  C   -0.172458  -0.192637
     3  C   -0.114629   0.516091
     4  C   -0.172455  -0.192642
     5  C   -0.154400   0.216756
     6  C   -0.126188  -0.217298
     7  Cl  -0.139237   0.006538
     8  H    0.093110  -0.009395
     9  H    0.094329   0.011637
    10  H   -0.341107   0.641950
    11  H    0.094327   0.011640
    12  H    0.093109  -0.009396
 Sum of Mulliken charges =  -1.00000   1.00000
 Mulliken charges and spin densities with hydrogens summed into heavy atoms:
               1          2
     1  C   -0.061291   0.207360
     2  C   -0.078129  -0.180999
     3  C   -0.455736   1.158041
     4  C   -0.078129  -0.181002
     5  C   -0.061291   0.207361
     6  C   -0.126188  -0.217298
     7  Cl  -0.139237   0.006538
 Charge=             -1.0000 electrons
 Dipole moment (field-independent basis, Debye):
    X=              0.0001    Y=              8.2492    Z=              0.0000  Tot=              8.2492
 N-N= 1.591542746669D+02 E-N=-2.287981303905D+02  KE=-7.037484212716D+01
 Symmetry A'   KE=-5.553880294189D+01
 Symmetry A"   KE=-1.483603918527D+01
 Symmetry A'   SP= 1.000000000000D+00
 Symmetry A"   SP=-2.331468351713D-15
 1\1\GINC-SH04-01N18\FOpt\UAM1\ZDO\C6H5Cl1(1-,2)\JLAPIER\09-Dec-2025\0\
 \# opt am1 SCF=XQC\\1-Chloro-Benzene Anion Radical (1)\\-1,2\C,-3.1841
 878839,0.213521636,0.\C,-1.9847336459,0.9281772126,0.\C,-0.7412442898,
 0.2871344248,0.\C,-0.7310057298,-1.1118300121,0.\C,-1.9103965454,-1.85
 9139341,0.\C,-3.1342861976,-1.1835555036,0.\Cl,-4.6041011473,-2.086855
 4665,0.\H,-4.153816205,0.7291943225,0.\H,-2.0190223318,2.0262465747,0.
 \H,0.4431238086,1.0150120182,0.\H,0.2332781989,-1.6384760808,0.\H,-1.8
 883080303,-2.957259786,0.\\Version=ES64L-G16RevB.01\State=2-A'\HF=0.11
 11288\S2=0.85342\S2-1=0.\S2A=0.757496\RMSD=9.647e-09\RMSF=4.512e-05\Di
 pole=-2.765046,-1.6993369,0.\PG=CS [SG(C6H5Cl1)]\\@


 EVERYBODY NEEDS BEAUTY AS WELL AS BREAD, PLACES TO PLAY IN AND PRAY IN,
 WHERE NATURE MAY HEAL AND CHEER AND GIVE STRENGTH TO BODY AND SOUL ALIKE.

                                    -- JOHN MUIR
 Job cpu time:       0 days  0 hours  0 minutes  3.9 seconds.
 Elapsed time:       0 days  0 hours  0 minutes 17.0 seconds.
 File lengths (MBytes):  RWF=     10 Int=      0 D2E=      0 Chk=      2 Scr=      1
 Normal termination of Gaussian 16 at Tue Dec  9 09:58:58 2025.
