 Entering Gaussian System, Link 0=g16
 Initial command:
 /share/software/user/restricted/gaussian/g16.B01/l1.exe "/home/users/jlapier/Chloroaromatics/Gau-15115.inp" -scrdir="/home/users/jlapier/Chloroaromatics/"
 Entering Link 1 = /share/software/user/restricted/gaussian/g16.B01/l1.exe PID=     15122.
  
 Copyright (c) 1988-2017, Gaussian, Inc.  All Rights Reserved.
  
 This is part of the Gaussian(R) 16 program.  It is based on
 the Gaussian(R) 09 system (copyright 2009, Gaussian, Inc.),
 the Gaussian(R) 03 system (copyright 2003, Gaussian, Inc.),
 the Gaussian(R) 98 system (copyright 1998, Gaussian, Inc.),
 the Gaussian(R) 94 system (copyright 1995, Gaussian, Inc.),
 the Gaussian 92(TM) system (copyright 1992, Gaussian, Inc.),
 the Gaussian 90(TM) system (copyright 1990, Gaussian, Inc.),
 the Gaussian 88(TM) system (copyright 1988, Gaussian, Inc.),
 the Gaussian 86(TM) system (copyright 1986, Carnegie Mellon
 University), and the Gaussian 82(TM) system (copyright 1983,
 Carnegie Mellon University). Gaussian is a federally registered
 trademark of Gaussian, Inc.
  
 This software contains proprietary and confidential information,
 including trade secrets, belonging to Gaussian, Inc.
  
 This software is provided under written license and may be
 used, copied, transmitted, or stored only in accord with that
 written license.
  
 The following legend is applicable only to US Government
 contracts under FAR:
  
                    RESTRICTED RIGHTS LEGEND
  
 Use, reproduction and disclosure by the US Government is
 subject to restrictions as set forth in subparagraphs (a)
 and (c) of the Commercial Computer Software - Restricted
 Rights clause in FAR 52.227-19.
  
 Gaussian, Inc.
 340 Quinnipiac St., Bldg. 40, Wallingford CT 06492
  
  
 ---------------------------------------------------------------
 Warning -- This program may not be used in any manner that
 competes with the business of Gaussian, Inc. or will provide
 assistance to any competitor of Gaussian, Inc.  The licensee
 of this program is prohibited from giving any competitor of
 Gaussian, Inc. access to this program.  By using this program,
 the user acknowledges that Gaussian, Inc. is engaged in the
 business of creating and licensing software in the field of
 computational chemistry and represents and warrants to the
 licensee that it is not a competitor of Gaussian, Inc. and that
 it will not use this program in any manner prohibited above.
 ---------------------------------------------------------------
  

 Cite this work as:
 Gaussian 16, Revision B.01,
 M. J. Frisch, G. W. Trucks, H. B. Schlegel, G. E. Scuseria, 
 M. A. Robb, J. R. Cheeseman, G. Scalmani, V. Barone, 
 G. A. Petersson, H. Nakatsuji, X. Li, M. Caricato, A. V. Marenich, 
 J. Bloino, B. G. Janesko, R. Gomperts, B. Mennucci, H. P. Hratchian, 
 J. V. Ortiz, A. F. Izmaylov, J. L. Sonnenberg, D. Williams-Young, 
 F. Ding, F. Lipparini, F. Egidi, J. Goings, B. Peng, A. Petrone, 
 T. Henderson, D. Ranasinghe, V. G. Zakrzewski, J. Gao, N. Rega, 
 G. Zheng, W. Liang, M. Hada, M. Ehara, K. Toyota, R. Fukuda, 
 J. Hasegawa, M. Ishida, T. Nakajima, Y. Honda, O. Kitao, H. Nakai, 
 T. Vreven, K. Throssell, J. A. Montgomery, Jr., J. E. Peralta, 
 F. Ogliaro, M. J. Bearpark, J. J. Heyd, E. N. Brothers, K. N. Kudin, 
 V. N. Staroverov, T. A. Keith, R. Kobayashi, J. Normand, 
 K. Raghavachari, A. P. Rendell, J. C. Burant, S. S. Iyengar, 
 J. Tomasi, M. Cossi, J. M. Millam, M. Klene, C. Adamo, R. Cammi, 
 J. W. Ochterski, R. L. Martin, K. Morokuma, O. Farkas, 
 J. B. Foresman, and D. J. Fox, Gaussian, Inc., Wallingford CT, 2016.
 
 ******************************************
 Gaussian 16:  ES64L-G16RevB.01 20-Dec-2017
                 8-Dec-2025 
 ******************************************
 %mem=2GB
 %nprocshare=1
 Will use up to    1 processors via shared memory.
 %chk=geometry_chks/_23456ClBzAnionIntermediate.chk
 ---------------------------
 # opt am1 SCF(maxcyc=10000)
 ---------------------------
 1/18=20,19=15,26=1,38=1/1,3;
 2/9=110,12=2,17=6,18=5,40=1/2;
 3/5=2,25=1,41=700000,71=1/1,2,3;
 4/35=1/1;
 5/5=2,7=10000,35=1,38=5/2;
 6/7=2,8=2,9=2,10=2,28=1/1;
 7//1,2,3,16;
 1/18=20,19=15,26=1/3(2);
 2/9=110/2;
 99//99;
 2/9=110/2;
 3/5=2,25=1,41=700000,71=1,135=20/1,2,3;
 4/5=5,16=3,35=1/1;
 5/5=2,7=10000,35=1,38=5/2;
 7//1,2,3,16;
 1/18=20,19=15,26=1/3(-5);
 2/9=110/2;
 6/7=2,8=2,9=2,10=2,19=2,28=1/1;
 99/9=1/99;
 -------------------------------------
 Anion Intermediate (removed 1) _23456
 -------------------------------------
 Symbolic Z-matrix:
 Charge = -1 Multiplicity = 1
 C                    -3.20928   0.19943   0. 
 C                    -2.0115    0.93555   0. 
 C                    -0.77511   0.2663    0. 
 C                    -0.7365   -1.13907   0. 
 C                    -1.93429  -1.87519   0. 
 C                    -3.17067  -1.20594   0. 
 Cl                   -4.76193   1.03987   0. 
 Cl                    0.81614  -1.97951   0. 
 Cl                   -1.8858   -3.64003   0. 
 Cl                   -2.05998   2.7004    0. 
 Cl                    0.72905   1.19071   0. 
 

 GradGradGradGradGradGradGradGradGradGradGradGradGradGradGradGradGradGrad
 Berny optimization.
 Initialization pass.
                           ----------------------------
                           !    Initial Parameters    !
                           ! (Angstroms and Degrees)  !
 --------------------------                            --------------------------
 ! Name  Definition              Value          Derivative Info.                !
 --------------------------------------------------------------------------------
 ! R1    R(1,2)                  1.4059         estimate D2E/DX2                !
 ! R2    R(1,6)                  1.4059         estimate D2E/DX2                !
 ! R3    R(1,7)                  1.7655         estimate D2E/DX2                !
 ! R4    R(2,3)                  1.4059         estimate D2E/DX2                !
 ! R5    R(2,10)                 1.7655         estimate D2E/DX2                !
 ! R6    R(3,4)                  1.4059         estimate D2E/DX2                !
 ! R7    R(3,11)                 1.7655         estimate D2E/DX2                !
 ! R8    R(4,5)                  1.4059         estimate D2E/DX2                !
 ! R9    R(4,8)                  1.7655         estimate D2E/DX2                !
 ! R10   R(5,6)                  1.4059         estimate D2E/DX2                !
 ! R11   R(5,9)                  1.7655         estimate D2E/DX2                !
 ! A1    A(2,1,6)              119.9999         estimate D2E/DX2                !
 ! A2    A(2,1,7)              119.9999         estimate D2E/DX2                !
 ! A3    A(6,1,7)              120.0001         estimate D2E/DX2                !
 ! A4    A(1,2,3)              120.0            estimate D2E/DX2                !
 ! A5    A(1,2,10)             120.0001         estimate D2E/DX2                !
 ! A6    A(3,2,10)             119.9999         estimate D2E/DX2                !
 ! A7    A(2,3,4)              120.0001         estimate D2E/DX2                !
 ! A8    A(2,3,11)             120.0            estimate D2E/DX2                !
 ! A9    A(4,3,11)             119.9999         estimate D2E/DX2                !
 ! A10   A(3,4,5)              119.9997         estimate D2E/DX2                !
 ! A11   A(3,4,8)              120.0003         estimate D2E/DX2                !
 ! A12   A(5,4,8)              120.0            estimate D2E/DX2                !
 ! A13   A(4,5,6)              120.0            estimate D2E/DX2                !
 ! A14   A(4,5,9)              119.9996         estimate D2E/DX2                !
 ! A15   A(6,5,9)              120.0004         estimate D2E/DX2                !
 ! A16   A(1,6,5)              120.0003         estimate D2E/DX2                !
 ! D1    D(6,1,2,3)              0.0            estimate D2E/DX2                !
 ! D2    D(6,1,2,10)           180.0            estimate D2E/DX2                !
 ! D3    D(7,1,2,3)            180.0            estimate D2E/DX2                !
 ! D4    D(7,1,2,10)             0.0            estimate D2E/DX2                !
 ! D5    D(2,1,6,5)              0.0            estimate D2E/DX2                !
 ! D6    D(7,1,6,5)            180.0            estimate D2E/DX2                !
 ! D7    D(1,2,3,4)              0.0            estimate D2E/DX2                !
 ! D8    D(1,2,3,11)           180.0            estimate D2E/DX2                !
 ! D9    D(10,2,3,4)           180.0            estimate D2E/DX2                !
 ! D10   D(10,2,3,11)            0.0            estimate D2E/DX2                !
 ! D11   D(2,3,4,5)              0.0            estimate D2E/DX2                !
 ! D12   D(2,3,4,8)            180.0            estimate D2E/DX2                !
 ! D13   D(11,3,4,5)           180.0            estimate D2E/DX2                !
 ! D14   D(11,3,4,8)             0.0            estimate D2E/DX2                !
 ! D15   D(3,4,5,6)              0.0            estimate D2E/DX2                !
 ! D16   D(3,4,5,9)            180.0            estimate D2E/DX2                !
 ! D17   D(8,4,5,6)            180.0            estimate D2E/DX2                !
 ! D18   D(8,4,5,9)              0.0            estimate D2E/DX2                !
 ! D19   D(4,5,6,1)              0.0            estimate D2E/DX2                !
 ! D20   D(9,5,6,1)            180.0            estimate D2E/DX2                !
 --------------------------------------------------------------------------------
 Trust Radius=3.00D-01 FncErr=1.00D-07 GrdErr=1.00D-07 EigMax=2.50D+02 EigMin=1.00D-04
 Number of steps in this run=     57 maximum allowed number of steps=    100.
 GradGradGradGradGradGradGradGradGradGradGradGradGradGradGradGradGradGrad

                          Input orientation:                          
 ---------------------------------------------------------------------
 Center     Atomic      Atomic             Coordinates (Angstroms)
 Number     Number       Type             X           Y           Z
 ---------------------------------------------------------------------
      1          6           0       -3.209280    0.199430    0.000000
      2          6           0       -2.011500    0.935550    0.000000
      3          6           0       -0.775110    0.266300    0.000000
      4          6           0       -0.736500   -1.139070    0.000000
      5          6           0       -1.934290   -1.875190    0.000000
      6          6           0       -3.170670   -1.205940    0.000000
      7         17           0       -4.761930    1.039870    0.000000
      8         17           0        0.816140   -1.979510    0.000000
      9         17           0       -1.885800   -3.640030    0.000000
     10         17           0       -2.059980    2.700400    0.000000
     11         17           0        0.729050    1.190710    0.000000
 ---------------------------------------------------------------------
                    Distance matrix (angstroms):
                    1          2          3          4          5
     1  C    0.000000
     2  C    1.405898   0.000000
     3  C    2.435088   1.405900   0.000000
     4  C    2.811801   2.435092   1.405900   0.000000
     5  C    2.435087   2.811800   2.435093   1.405907   0.000000
     6  C    1.405900   2.435088   2.811796   2.435088   1.405892
     7  Cl   1.765520   2.752408   4.061175   4.577321   4.061173
     8  Cl   4.577312   4.061173   2.752406   1.765511   2.752408
     9  Cl   4.061164   4.577306   4.061163   2.752397   1.765506
    10  Cl   2.752406   1.765516   2.752405   4.061173   4.577316
    11  Cl   4.061167   2.752403   1.765512   2.752401   4.061173
                    6          7          8          9         10
     6  C    0.000000
     7  Cl   2.752412   0.000000
     8  Cl   4.061165   6.342832   0.000000
     9  Cl   2.752396   5.493049   3.171404   0.000000
    10  Cl   4.061173   3.171418   5.493052   6.342822   0.000000
    11  Cl   4.577308   5.493051   3.171416   5.493040   3.171412
                   11
    11  Cl   0.000000
 Stoichiometry    C6Cl5(1-)
 Framework group  CS[SG(C6Cl5)]
 Deg. of freedom    19
 Full point group                 CS      NOp   2
 Largest Abelian subgroup         CS      NOp   2
 Largest concise Abelian subgroup C1      NOp   1
                         Standard orientation:                         
 ---------------------------------------------------------------------
 Center     Atomic      Atomic             Coordinates (Angstroms)
 Number     Number       Type             X           Y           Z
 ---------------------------------------------------------------------
      1          6           0       -0.385875    1.628683    0.000000
      2          6           0        0.831669    0.925735    0.000000
      3          6           0        0.831669   -0.480166    0.000000
      4          6           0       -0.385875   -1.183118    0.000000
      5          6           0       -1.603424   -0.480161    0.000000
      6          6           0       -1.603419    0.925731    0.000000
      7         17           0       -0.385875    3.394203    0.000000
      8         17           0       -0.385880   -2.948629    0.000000
      9         17           0       -3.132394   -1.362920    0.000000
     10         17           0        2.360652    1.808490    0.000000
     11         17           0        2.360647   -1.362922    0.000000
 ---------------------------------------------------------------------
 Rotational constants (GHZ):           0.6973111           0.4487103           0.2730234
 Standard basis: VSTO-6G (5D, 7F)
 There are    33 symmetry adapted cartesian basis functions of A'  symmetry.
 There are    11 symmetry adapted cartesian basis functions of A"  symmetry.
 There are    33 symmetry adapted basis functions of A'  symmetry.
 There are    11 symmetry adapted basis functions of A"  symmetry.
    44 basis functions,   264 primitive gaussians,    44 cartesian basis functions
    30 alpha electrons       30 beta electrons
       nuclear repulsion energy       349.2652422331 Hartrees.
 Integral buffers will be    131072 words long.
 Regular integral format.
 Two-electron integral symmetry is turned off.
 Do NDO integrals.
 One-electron integrals computed using PRISM.
 NBasis=    44 RedAO= T EigKep=  1.00D+00  NBF=    33    11
 NBsUse=    44 1.00D-06 EigRej= -1.00D+00 NBFU=    33    11
 Simple Huckel Guess.
 Initial guess orbital symmetries:
       Occupied  (A') (A') (A') (A') (A') (A') (A') (A') (A') (A')
                 (A') (A") (A') (A') (A') (A") (A') (A") (A') (A")
                 (A") (A') (A') (A') (A") (A') (A') (A") (A") (A')
       Virtual   (A") (A") (A") (A') (A') (A') (A') (A') (A') (A')
                 (A') (A') (A') (A')
 The electronic state of the initial guess is 1-A'.
 Keep J ints in memory in canonical form, NReq=865421.
 Overlap will be assumed to be unity.
 Requested convergence on RMS density matrix=1.00D-08 within**** cycles.
 Requested convergence on MAX density matrix=1.00D-06.
 Requested convergence on             energy=1.00D-06.
 No special actions if energy rises.
 Fock symm off for IB=2 I1=    1 I=   34 J=   33 Cut=1.00D-07 Err=9.57D-03
 Fock matrix is not symmetric: symmetry in diagonalization turned off.
 SCF Done:  E(RAM1) =  0.625880274981E-02 A.U. after   15 cycles
            NFock= 14  Conv=0.71D-08     -V/T= 1.0000

 **********************************************************************

            Population analysis using the SCF Density.

 **********************************************************************

 Orbital symmetries:
       Occupied  (A') (A') (A') (A') (A') (A') (A') (A') (A') (A')
                 (A') (A') (A') (A') (A") (A') (A") (A') (A") (A")
                 (A") (A') (A') (A') (A') (A') (A") (A") (A") (A')
       Virtual   (A") (A') (A") (A') (A') (A') (A') (A") (A') (A')
                 (A') (A') (A') (A')
 The electronic state is 1-A'.
 Alpha  occ. eigenvalues --   -1.30054  -1.24842  -1.24262  -1.22973  -1.22327
 Alpha  occ. eigenvalues --   -1.19879  -0.98612  -0.96170  -0.71384  -0.69846
 Alpha  occ. eigenvalues --   -0.53133  -0.48334  -0.47437  -0.43239  -0.42247
 Alpha  occ. eigenvalues --   -0.40059  -0.36425  -0.35627  -0.34815  -0.33014
 Alpha  occ. eigenvalues --   -0.32555  -0.32510  -0.31820  -0.30651  -0.29825
 Alpha  occ. eigenvalues --   -0.28439  -0.27816  -0.20613  -0.19048  -0.14688
 Alpha virt. eigenvalues --    0.13717   0.14922   0.15251   0.16389   0.16999
 Alpha virt. eigenvalues --    0.19258   0.20126   0.24972   0.28978   0.29019
 Alpha virt. eigenvalues --    0.30499   0.31216   0.34482   0.36930
          Condensed to atoms (all electrons):
               1          2          3          4          5          6
     1  C    4.041523   0.000000   0.000000   0.000000   0.000000   0.000000
     2  C    0.000000   4.033094   0.000000   0.000000   0.000000   0.000000
     3  C    0.000000   0.000000   4.109125   0.000000   0.000000   0.000000
     4  C    0.000000   0.000000   0.000000   4.033095   0.000000   0.000000
     5  C    0.000000   0.000000   0.000000   0.000000   4.041531   0.000000
     6  C    0.000000   0.000000   0.000000   0.000000   0.000000   4.314224
     7  Cl   0.000000   0.000000   0.000000   0.000000   0.000000   0.000000
     8  Cl   0.000000   0.000000   0.000000   0.000000   0.000000   0.000000
     9  Cl   0.000000   0.000000   0.000000   0.000000   0.000000   0.000000
    10  Cl   0.000000   0.000000   0.000000   0.000000   0.000000   0.000000
    11  Cl   0.000000   0.000000   0.000000   0.000000   0.000000   0.000000
               7          8          9         10         11
     1  C    0.000000   0.000000   0.000000   0.000000   0.000000
     2  C    0.000000   0.000000   0.000000   0.000000   0.000000
     3  C    0.000000   0.000000   0.000000   0.000000   0.000000
     4  C    0.000000   0.000000   0.000000   0.000000   0.000000
     5  C    0.000000   0.000000   0.000000   0.000000   0.000000
     6  C    0.000000   0.000000   0.000000   0.000000   0.000000
     7  Cl   7.090260   0.000000   0.000000   0.000000   0.000000
     8  Cl   0.000000   7.087748   0.000000   0.000000   0.000000
     9  Cl   0.000000   0.000000   7.090254   0.000000   0.000000
    10  Cl   0.000000   0.000000   0.000000   7.087751   0.000000
    11  Cl   0.000000   0.000000   0.000000   0.000000   7.071396
 Mulliken charges:
               1
     1  C   -0.041523
     2  C   -0.033094
     3  C   -0.109125
     4  C   -0.033095
     5  C   -0.041531
     6  C   -0.314224
     7  Cl  -0.090260
     8  Cl  -0.087748
     9  Cl  -0.090254
    10  Cl  -0.087751
    11  Cl  -0.071396
 Sum of Mulliken charges =  -1.00000
 Mulliken charges with hydrogens summed into heavy atoms:
               1
     1  C   -0.041523
     2  C   -0.033094
     3  C   -0.109125
     4  C   -0.033095
     5  C   -0.041531
     6  C   -0.314224
     7  Cl  -0.090260
     8  Cl  -0.087748
     9  Cl  -0.090254
    10  Cl  -0.087751
    11  Cl  -0.071396
 Charge=             -1.0000 electrons
 Dipole moment (field-independent basis, Debye):
    X=              3.9652    Y=             -2.2894    Z=              0.0000  Tot=              4.5786
 N-N= 3.492652422331D+02 E-N=-5.056583161961D+02  KE=-1.576067548954D+02
 Symmetry A'   KE=-1.203412824555D+02
 Symmetry A"   KE=-3.726547243992D+01
 Calling FoFJK, ICntrl=      2127 FMM=F ISym2X=1 I1Cent= 0 IOpClX= 0 NMat=1 NMatS=1 NMatT=0.
 ***** Axes restored to original set *****
 -------------------------------------------------------------------
 Center     Atomic                   Forces (Hartrees/Bohr)
 Number     Number              X              Y              Z
 -------------------------------------------------------------------
      1        6          -0.000216688   -0.014354720    0.000000000
      2        6          -0.006122437    0.020572176    0.000000000
      3        6           0.015095119    0.009274157   -0.000000000
      4        6           0.015582478   -0.014753975    0.000000000
      5        6          -0.012895020    0.006295426    0.000000000
      6        6           0.009412547    0.005791272   -0.000000000
      7       17           0.026801746   -0.015743533   -0.000000000
      8       17          -0.022705244    0.015141089   -0.000000000
      9       17          -0.001939785    0.031016761   -0.000000000
     10       17           0.003251935   -0.027097304   -0.000000000
     11       17          -0.026264649   -0.016141350   -0.000000000
 -------------------------------------------------------------------
 Cartesian Forces:  Max     0.031016761 RMS     0.013641745

 GradGradGradGradGradGradGradGradGradGradGradGradGradGradGradGradGradGrad
 Berny optimization.
 FormGI is forming the generalized inverse of G from B-inverse, IUseBI=4.
 Internal  Forces:  Max     0.031064627 RMS     0.012523555
 Search for a local minimum.
 Step number   1 out of a maximum of   57
 All quantities printed in internal units (Hartrees-Bohrs-Radians)
 Mixed Optimization -- RFO/linear search
 Second derivative matrix not updated -- first step.
 ITU=  0
     Eigenvalues ---    0.02011   0.02011   0.02011   0.02011   0.02011
     Eigenvalues ---    0.02011   0.02011   0.02011   0.25000   0.25000
     Eigenvalues ---    0.25000   0.25000   0.25000   0.25000   0.25000
     Eigenvalues ---    0.25000   0.29033   0.29033   0.29033   0.29033
     Eigenvalues ---    0.29034   0.41211   0.41600   0.44656   0.44657
     Eigenvalues ---    0.44657   0.44657
 RFO step:  Lambda=-2.13186256D-02 EMin= 2.01065650D-02
 Linear search not attempted -- first point.
 Iteration  1 RMS(Cart)=  0.05167659 RMS(Int)=  0.00028725
 Iteration  2 RMS(Cart)=  0.00033248 RMS(Int)=  0.00002330
 Iteration  3 RMS(Cart)=  0.00000013 RMS(Int)=  0.00002330
 ClnCor:  largest displacement from symmetrization is 7.04D-11 for atom     7.
 Variable       Old X    -DE/DX   Delta X   Delta X   Delta X     New X
                                 (Linear)    (Quad)   (Total)
    R1        2.65676  -0.01242   0.00000  -0.02654  -0.02654   2.63022
    R2        2.65677  -0.02888   0.00000  -0.06277  -0.06273   2.59403
    R3        3.33635  -0.03106   0.00000  -0.09968  -0.09968   3.23667
    R4        2.65677  -0.01494   0.00000  -0.03088  -0.03091   2.62585
    R5        3.33634  -0.02718   0.00000  -0.08720  -0.08720   3.24914
    R6        2.65677  -0.01494   0.00000  -0.03089  -0.03092   2.62585
    R7        3.33633  -0.03083   0.00000  -0.09892  -0.09892   3.23742
    R8        2.65678  -0.01242   0.00000  -0.02655  -0.02655   2.63023
    R9        3.33633  -0.02718   0.00000  -0.08720  -0.08720   3.24914
   R10        2.65675  -0.02887   0.00000  -0.06275  -0.06272   2.59403
   R11        3.33632  -0.03106   0.00000  -0.09966  -0.09966   3.23667
    A1        2.09439   0.01075   0.00000   0.03805   0.03808   2.13248
    A2        2.09439  -0.00356   0.00000  -0.01234  -0.01236   2.08204
    A3        2.09440  -0.00719   0.00000  -0.02571  -0.02572   2.06867
    A4        2.09439  -0.00434   0.00000  -0.01386  -0.01390   2.08050
    A5        2.09440   0.00635   0.00000   0.02234   0.02236   2.11676
    A6        2.09439  -0.00201   0.00000  -0.00848  -0.00846   2.08593
    A7        2.09440  -0.00341   0.00000  -0.00863  -0.00870   2.08570
    A8        2.09440   0.00171   0.00000   0.00431   0.00435   2.09874
    A9        2.09439   0.00171   0.00000   0.00432   0.00435   2.09874
   A10        2.09439  -0.00433   0.00000  -0.01386  -0.01389   2.08050
   A11        2.09440  -0.00202   0.00000  -0.00849  -0.00847   2.08593
   A12        2.09440   0.00635   0.00000   0.02234   0.02236   2.11676
   A13        2.09439   0.01075   0.00000   0.03805   0.03808   2.13247
   A14        2.09439  -0.00356   0.00000  -0.01234  -0.01236   2.08203
   A15        2.09440  -0.00719   0.00000  -0.02571  -0.02572   2.06868
   A16        2.09440  -0.00941   0.00000  -0.03976  -0.03967   2.05473
    D1        0.00000  -0.00000   0.00000  -0.00000   0.00000   0.00000
    D2        3.14159  -0.00000   0.00000  -0.00000   0.00000   3.14159
    D3        3.14159   0.00000   0.00000   0.00000   0.00000   3.14159
    D4        0.00000   0.00000   0.00000  -0.00000   0.00000   0.00000
    D5        0.00000   0.00000   0.00000   0.00000   0.00000   0.00000
    D6        3.14159  -0.00000   0.00000  -0.00000   0.00000   3.14159
    D7        0.00000  -0.00000   0.00000  -0.00000   0.00000   0.00000
    D8        3.14159  -0.00000   0.00000  -0.00000   0.00000   3.14159
    D9        3.14159   0.00000   0.00000   0.00000   0.00000   3.14159
   D10        0.00000   0.00000   0.00000   0.00000   0.00000   0.00000
   D11        0.00000   0.00000   0.00000   0.00000   0.00000   0.00000
   D12        3.14159  -0.00000   0.00000  -0.00000   0.00000   3.14159
   D13        3.14159   0.00000   0.00000   0.00000   0.00000   3.14159
   D14        0.00000  -0.00000   0.00000  -0.00000   0.00000   0.00000
   D15        0.00000  -0.00000   0.00000  -0.00000   0.00000   0.00000
   D16        3.14159  -0.00000   0.00000  -0.00000   0.00000   3.14159
   D17        3.14159   0.00000   0.00000   0.00000   0.00000   3.14159
   D18        0.00000   0.00000   0.00000   0.00000   0.00000   0.00000
   D19        0.00000  -0.00000   0.00000  -0.00000   0.00000   0.00000
   D20        3.14159   0.00000   0.00000   0.00000   0.00000   3.14159
         Item               Value     Threshold  Converged?
 Maximum Force            0.031065     0.000450     NO 
 RMS     Force            0.012524     0.000300     NO 
 Maximum Displacement     0.181164     0.001800     NO 
 RMS     Displacement     0.051682     0.001200     NO 
 Predicted change in Energy=-1.133972D-02
 GradGradGradGradGradGradGradGradGradGradGradGradGradGradGradGradGradGrad

                          Input orientation:                          
 ---------------------------------------------------------------------
 Center     Atomic      Atomic             Coordinates (Angstroms)
 Number     Number       Type             X           Y           Z
 ---------------------------------------------------------------------
      1          6           0       -3.175412    0.170251    0.000000
      2          6           0       -2.003089    0.920530    0.000000
      3          6           0       -0.778222    0.264387    0.000000
      4          6           0       -0.746104   -1.124780    0.000000
      5          6           0       -1.945022   -1.831790    0.000000
      6          6           0       -3.164938   -1.202412    0.000000
      7         17           0       -4.686447    0.976700    0.000000
      8         17           0        0.769314   -1.937022    0.000000
      9         17           0       -1.908063   -3.544162    0.000000
     10         17           0       -2.043229    2.639432    0.000000
     11         17           0        0.681342    1.161388    0.000000
 ---------------------------------------------------------------------
                    Distance matrix (angstroms):
                    1          2          3          4          5
     1  C    0.000000
     2  C    1.391854   0.000000
     3  C    2.399038   1.389541   0.000000
     4  C    2.752933   2.400689   1.389539   0.000000
     5  C    2.349899   2.752933   2.399038   1.391858   0.000000
     6  C    1.372703   2.420077   2.801413   2.420080   1.372703
     7  Cl   1.712772   2.683945   3.972608   4.465705   3.924669
     8  Cl   4.472299   3.981435   2.690923   1.719369   2.716375
     9  Cl   3.924670   4.465703   3.972605   2.683944   1.712771
    10  Cl   2.716375   1.719370   2.690926   3.981435   4.472300
    11  Cl   3.982073   2.695216   1.713166   2.695213   3.982074
                    6          7          8          9         10
     6  C    0.000000
     7  Cl   2.657728   0.000000
     8  Cl   4.002248   6.185071   0.000000
     9  Cl   2.657730   5.306375   3.122698   0.000000
    10  Cl   4.002249   3.122704   5.371622   6.185071   0.000000
    11  Cl   4.514579   5.370966   3.099659   5.370961   3.099661
                   11
    11  Cl   0.000000
 Stoichiometry    C6Cl5(1-)
 Framework group  CS[SG(C6Cl5)]
 Deg. of freedom    19
 Full point group                 CS      NOp   2
 Largest Abelian subgroup         CS      NOp   2
 Largest concise Abelian subgroup C1      NOp   1
                         Standard orientation:                         
 ---------------------------------------------------------------------
 Center     Atomic      Atomic             Coordinates (Angstroms)
 Number     Number       Type             X           Y           Z
 ---------------------------------------------------------------------
      1          6           0        1.174950    1.132322    0.000000
      2          6           0        1.200345   -0.259300    0.000000
      3          6           0       -0.000000   -0.959298    0.000000
      4          6           0       -1.200344   -0.259303   -0.000000
      5          6           0       -1.174950    1.132323   -0.000000
      6          6           0       -0.000000    1.842115   -0.000000
      7         17           0        2.653186    1.997426    0.000000
      8         17           0       -2.685810   -1.125108   -0.000000
      9         17           0       -2.653189    1.997420   -0.000000
     10         17           0        2.685812   -1.125107    0.000000
     11         17           0        0.000000   -2.672464    0.000000
 ---------------------------------------------------------------------
 Rotational constants (GHZ):           0.7204696           0.4747424           0.2861731
 Standard basis: VSTO-6G (5D, 7F)
 There are    33 symmetry adapted cartesian basis functions of A'  symmetry.
 There are    11 symmetry adapted cartesian basis functions of A"  symmetry.
 There are    33 symmetry adapted basis functions of A'  symmetry.
 There are    11 symmetry adapted basis functions of A"  symmetry.
    44 basis functions,   264 primitive gaussians,    44 cartesian basis functions
    30 alpha electrons       30 beta electrons
       nuclear repulsion energy       354.1618864298 Hartrees.
 Integral buffers will be    131072 words long.
 Regular integral format.
 Two-electron integral symmetry is turned off.
 Do NDO integrals.
 One-electron integrals computed using PRISM.
 NBasis=    44 RedAO= T EigKep=  1.00D+00  NBF=    33    11
 NBsUse=    44 1.00D-06 EigRej= -1.00D+00 NBFU=    33    11
 Initial guess from the checkpoint file:  "geometry_chks/_23456ClBzAnionIntermediate.chk"
 B after Tr=     0.000000   -0.000000    0.000000
         Rot=    0.866026    0.000000   -0.000000    0.500000 Ang=  60.00 deg.
 Initial guess orbital symmetries:
       Occupied  (A') (A') (A') (A') (A') (A') (A') (A') (A') (A')
                 (A') (A') (A') (A') (A") (A') (A") (A') (A") (A")
                 (A") (A') (A') (A') (A') (A') (A") (A") (A") (A')
       Virtual   (A") (A') (A") (A') (A') (A') (A') (A") (A') (A')
                 (A') (A') (A') (A')
 Keep J ints in memory in canonical form, NReq=865421.
 Overlap will be assumed to be unity.
 Requested convergence on RMS density matrix=1.00D-08 within**** cycles.
 Requested convergence on MAX density matrix=1.00D-06.
 Requested convergence on             energy=1.00D-06.
 No special actions if energy rises.
 Fock symm off for IB=2 I1=    1 I=   34 J=    4 Cut=1.00D-07 Err=1.86D-03
 Fock matrix is not symmetric: symmetry in diagonalization turned off.
 SCF Done:  E(RAM1) = -0.225057950314E-02 A.U. after   13 cycles
            NFock= 12  Conv=0.72D-08     -V/T= 1.0000
 Calling FoFJK, ICntrl=      2127 FMM=F ISym2X=1 I1Cent= 0 IOpClX= 0 NMat=1 NMatS=1 NMatT=0.
 ***** Axes restored to original set *****
 -------------------------------------------------------------------
 Center     Atomic                   Forces (Hartrees/Bohr)
 Number     Number              X              Y              Z
 -------------------------------------------------------------------
      1        6          -0.015601206    0.007948494    0.000000000
      2        6          -0.004452221    0.022613931    0.000000000
      3        6           0.017399170    0.010694638    0.000000000
      4        6           0.018161007   -0.014189537    0.000000000
      5        6           0.000046327   -0.017507150   -0.000000000
      6        6          -0.009784351   -0.006014167   -0.000000000
      7       17          -0.003145134    0.001674766   -0.000000000
      8       17          -0.002188352    0.001205304   -0.000000000
      9       17           0.000073121   -0.003562966   -0.000000000
     10       17           0.000086834   -0.002497764   -0.000000000
     11       17          -0.000595195   -0.000365548   -0.000000000
 -------------------------------------------------------------------
 Cartesian Forces:  Max     0.022613931 RMS     0.008280753

 GradGradGradGradGradGradGradGradGradGradGradGradGradGradGradGradGradGrad
 Berny optimization.
 Using GEDIIS/GDIIS optimizer.
 FormGI is forming the generalized inverse of G from B-inverse, IUseBI=4.
 Internal  Forces:  Max     0.022328050 RMS     0.006990364
 Search for a local minimum.
 Step number   2 out of a maximum of   57
 All quantities printed in internal units (Hartrees-Bohrs-Radians)
 Mixed Optimization -- RFO/linear search
 Update second derivatives using D2CorX and points    1    2
 DE= -8.51D-03 DEPred=-1.13D-02 R= 7.50D-01
 TightC=F SS=  1.41D+00  RLast= 2.53D-01 DXNew= 5.0454D-01 7.5773D-01
 Trust test= 7.50D-01 RLast= 2.53D-01 DXMaxT set to 5.05D-01
 ITU=  1  0
 Use linear search instead of GDIIS.
     Eigenvalues ---    0.02011   0.02011   0.02011   0.02011   0.02011
     Eigenvalues ---    0.02011   0.02011   0.02011   0.23527   0.25000
     Eigenvalues ---    0.25000   0.25000   0.25000   0.25000   0.25000
     Eigenvalues ---    0.25458   0.25554   0.29033   0.29033   0.29033
     Eigenvalues ---    0.29280   0.41027   0.41189   0.44603   0.44656
     Eigenvalues ---    0.44657   0.70689
 RFO step:  Lambda=-2.67718790D-03 EMin= 2.01065588D-02
 Quartic linear search produced a step of -0.18150.
 Iteration  1 RMS(Cart)=  0.01300011 RMS(Int)=  0.00003517
 Iteration  2 RMS(Cart)=  0.00003827 RMS(Int)=  0.00000783
 Iteration  3 RMS(Cart)=  0.00000000 RMS(Int)=  0.00000783
 ClnCor:  largest displacement from symmetrization is 3.44D-11 for atom     9.
 Variable       Old X    -DE/DX   Delta X   Delta X   Delta X     New X
                                 (Linear)    (Quad)   (Total)
    R1        2.63022   0.01666   0.00482   0.02175   0.02656   2.65679
    R2        2.59403   0.01781   0.01139   0.01188   0.02326   2.61729
    R3        3.23667   0.00356   0.01809  -0.02336  -0.00526   3.23141
    R4        2.62585   0.02233   0.00561   0.03097   0.03659   2.66244
    R5        3.24914  -0.00250   0.01583  -0.03610  -0.02027   3.22887
    R6        2.62585   0.02233   0.00561   0.03097   0.03659   2.66244
    R7        3.23742  -0.00070   0.01795  -0.03499  -0.01704   3.22038
    R8        2.63023   0.01666   0.00482   0.02174   0.02656   2.65679
    R9        3.24914  -0.00250   0.01583  -0.03610  -0.02027   3.22887
   R10        2.59403   0.01781   0.01138   0.01189   0.02326   2.61729
   R11        3.23667   0.00356   0.01809  -0.02335  -0.00526   3.23141
    A1        2.13248  -0.00286  -0.00691   0.00322  -0.00370   2.12877
    A2        2.08204   0.00143   0.00224   0.00068   0.00292   2.08496
    A3        2.06867   0.00142   0.00467  -0.00390   0.00078   2.06945
    A4        2.08050  -0.00112   0.00252  -0.00770  -0.00516   2.07533
    A5        2.11676   0.00061  -0.00406   0.00923   0.00517   2.12192
    A6        2.08593   0.00051   0.00154  -0.00153  -0.00000   2.08593
    A7        2.08570   0.00172   0.00158   0.00380   0.00541   2.09111
    A8        2.09874  -0.00086  -0.00079  -0.00190  -0.00270   2.09604
    A9        2.09874  -0.00086  -0.00079  -0.00190  -0.00270   2.09604
   A10        2.08050  -0.00112   0.00252  -0.00770  -0.00516   2.07533
   A11        2.08593   0.00051   0.00154  -0.00153  -0.00000   2.08593
   A12        2.11676   0.00061  -0.00406   0.00923   0.00517   2.12192
   A13        2.13247  -0.00286  -0.00691   0.00322  -0.00370   2.12877
   A14        2.08203   0.00143   0.00224   0.00068   0.00293   2.08496
   A15        2.06868   0.00142   0.00467  -0.00390   0.00078   2.06945
   A16        2.05473   0.00624   0.00720   0.00515   0.01232   2.06705
    D1        0.00000  -0.00000   0.00000  -0.00000  -0.00000   0.00000
    D2        3.14159  -0.00000   0.00000  -0.00000   0.00000   3.14159
    D3        3.14159   0.00000   0.00000   0.00000   0.00000   3.14159
    D4        0.00000   0.00000   0.00000   0.00000   0.00000   0.00000
    D5       -0.00000   0.00000   0.00000   0.00000   0.00000   0.00000
    D6        3.14159  -0.00000   0.00000  -0.00000   0.00000   3.14159
    D7        0.00000  -0.00000   0.00000  -0.00000   0.00000   0.00000
    D8        3.14159  -0.00000   0.00000  -0.00000   0.00000   3.14159
    D9        3.14159   0.00000   0.00000   0.00000   0.00000   3.14159
   D10       -0.00000  -0.00000   0.00000  -0.00000   0.00000   0.00000
   D11       -0.00000   0.00000   0.00000   0.00000   0.00000   0.00000
   D12        3.14159  -0.00000   0.00000  -0.00000   0.00000   3.14159
   D13        3.14159   0.00000   0.00000   0.00000   0.00000   3.14159
   D14        0.00000   0.00000   0.00000   0.00000   0.00000   0.00000
   D15       -0.00000   0.00000   0.00000   0.00000   0.00000   0.00000
   D16        3.14159  -0.00000   0.00000  -0.00000   0.00000   3.14159
   D17        3.14159   0.00000   0.00000   0.00000   0.00000   3.14159
   D18        0.00000   0.00000   0.00000   0.00000   0.00000   0.00000
   D19        0.00000  -0.00000   0.00000  -0.00000  -0.00000   0.00000
   D20        3.14159   0.00000   0.00000   0.00000   0.00000   3.14159
         Item               Value     Threshold  Converged?
 Maximum Force            0.022328     0.000450     NO 
 RMS     Force            0.006990     0.000300     NO 
 Maximum Displacement     0.037294     0.001800     NO 
 RMS     Displacement     0.012994     0.001200     NO 
 Predicted change in Energy=-1.793570D-03
 GradGradGradGradGradGradGradGradGradGradGradGradGradGradGradGradGradGrad

                          Input orientation:                          
 ---------------------------------------------------------------------
 Center     Atomic      Atomic             Coordinates (Angstroms)
 Number     Number       Type             X           Y           Z
 ---------------------------------------------------------------------
      1          6           0       -3.188873    0.179497   -0.000000
      2          6           0       -2.006579    0.940265   -0.000000
      3          6           0       -0.766447    0.271624    0.000000
      4          6           0       -0.730075   -1.136809    0.000000
      5          6           0       -1.942853   -1.847977    0.000000
      6          6           0       -3.169772   -1.205383   -0.000000
      7         17           0       -4.701764    0.976501   -0.000000
      8         17           0        0.778067   -1.939907    0.000000
      9         17           0       -1.915162   -3.557740    0.000000
     10         17           0       -2.041849    2.648544   -0.000000
     11         17           0        0.685435    1.163906    0.000000
 ---------------------------------------------------------------------
                    Distance matrix (angstroms):
                    1          2          3          4          5
     1  C    0.000000
     2  C    1.405911   0.000000
     3  C    2.424177   1.408903   0.000000
     4  C    2.788969   2.437971   1.408903   0.000000
     5  C    2.379751   2.788970   2.424177   1.405912   0.000000
     6  C    1.385012   2.440661   2.820908   2.440661   1.385011
     7  Cl   1.709987   2.695428   3.997946   4.498932   3.948324
     8  Cl   4.497609   4.006201   2.697479   1.708642   2.722472
     9  Cl   3.948326   4.498934   3.997946   2.695429   1.709988
    10  Cl   2.722472   1.708642   2.697480   4.006201   4.497610
    11  Cl   3.997415   2.701288   1.704151   2.701288   3.997416
                    6          7          8          9         10
     6  C    0.000000
     7  Cl   2.666011   0.000000
     8  Cl   4.015589   6.207575   0.000000
     9  Cl   2.666014   5.322076   3.141793   0.000000
    10  Cl   4.015590   3.141795   5.385704   6.207577   0.000000
    11  Cl   4.525058   5.390458   3.105196   5.390459   3.105193
                   11
    11  Cl   0.000000
 Stoichiometry    C6Cl5(1-)
 Framework group  CS[SG(C6Cl5)]
 Deg. of freedom    19
 Full point group                 CS      NOp   2
 Largest Abelian subgroup         CS      NOp   2
 Largest concise Abelian subgroup C1      NOp   1
                         Standard orientation:                         
 ---------------------------------------------------------------------
 Center     Atomic      Atomic             Coordinates (Angstroms)
 Number     Number       Type             X           Y           Z
 ---------------------------------------------------------------------
      1          6           0       -1.138075    1.189876    0.000000
      2          6           0        0.267535    1.218986    0.000000
      3          6           0        0.973992   -0.000000    0.000000
      4          6           0        0.267535   -1.218985    0.000000
      5          6           0       -1.138076   -1.189875    0.000000
      6          6           0       -1.846915    0.000001    0.000000
      7         17           0       -2.009705    2.661037    0.000000
      8         17           0        1.131927   -2.692852    0.000000
      9         17           0       -2.009705   -2.661039    0.000000
     10         17           0        1.131929    2.692852    0.000000
     11         17           0        2.678143    0.000001    0.000000
 ---------------------------------------------------------------------
 Rotational constants (GHZ):           0.7138021           0.4714229           0.2839146
 Standard basis: VSTO-6G (5D, 7F)
 There are    33 symmetry adapted cartesian basis functions of A'  symmetry.
 There are    11 symmetry adapted cartesian basis functions of A"  symmetry.
 There are    33 symmetry adapted basis functions of A'  symmetry.
 There are    11 symmetry adapted basis functions of A"  symmetry.
    44 basis functions,   264 primitive gaussians,    44 cartesian basis functions
    30 alpha electrons       30 beta electrons
       nuclear repulsion energy       353.2085897658 Hartrees.
 Integral buffers will be    131072 words long.
 Regular integral format.
 Two-electron integral symmetry is turned off.
 Do NDO integrals.
 One-electron integrals computed using PRISM.
 NBasis=    44 RedAO= T EigKep=  1.00D+00  NBF=    33    11
 NBsUse=    44 1.00D-06 EigRej= -1.00D+00 NBFU=    33    11
 Initial guess from the checkpoint file:  "geometry_chks/_23456ClBzAnionIntermediate.chk"
 B after Tr=    -0.000000   -0.000000   -0.000000
         Rot=    0.707107   -0.000000    0.000000   -0.707107 Ang= -90.00 deg.
 Initial guess orbital symmetries:
       Occupied  (A') (A') (A') (A') (A') (A') (A') (A') (A') (A')
                 (A') (A') (A') (A') (A") (A') (A") (A') (A") (A")
                 (A") (A') (A') (A') (A') (A') (A") (A") (A") (A')
       Virtual   (A") (A") (A') (A') (A') (A') (A') (A") (A') (A')
                 (A') (A') (A') (A')
 Keep J ints in memory in canonical form, NReq=865421.
 Overlap will be assumed to be unity.
 Requested convergence on RMS density matrix=1.00D-08 within**** cycles.
 Requested convergence on MAX density matrix=1.00D-06.
 Requested convergence on             energy=1.00D-06.
 No special actions if energy rises.
 Fock symm off for IB=2 I1=    1 I=   34 J=   13 Cut=1.00D-07 Err=6.42D-04
 Fock matrix is not symmetric: symmetry in diagonalization turned off.
 SCF Done:  E(RAM1) = -0.367703874554E-02 A.U. after   13 cycles
            NFock= 12  Conv=0.22D-08     -V/T= 1.0000
 Calling FoFJK, ICntrl=      2127 FMM=F ISym2X=1 I1Cent= 0 IOpClX= 0 NMat=1 NMatS=1 NMatT=0.
 ***** Axes restored to original set *****
 -------------------------------------------------------------------
 Center     Atomic                   Forces (Hartrees/Bohr)
 Number     Number              X              Y              Z
 -------------------------------------------------------------------
      1        6           0.004315696   -0.000133417    0.000000000
      2        6           0.001128868   -0.004846216    0.000000000
      3        6          -0.006016724   -0.003697256    0.000000000
      4        6          -0.003814317    0.003195239   -0.000000000
      5        6           0.001831101    0.003910597    0.000000000
      6        6           0.001805643    0.001109450   -0.000000000
      7       17          -0.001958389    0.001501795   -0.000000000
      8       17           0.000538198   -0.000491928   -0.000000000
      9       17           0.000455081   -0.002424796   -0.000000000
     10       17          -0.000195925    0.000702320   -0.000000000
     11       17           0.001910769    0.001174211   -0.000000000
 -------------------------------------------------------------------
 Cartesian Forces:  Max     0.006016724 RMS     0.002198070

 GradGradGradGradGradGradGradGradGradGradGradGradGradGradGradGradGradGrad
 Berny optimization.
 Using GEDIIS/GDIIS optimizer.
 FormGI is forming the generalized inverse of G from B-inverse, IUseBI=4.
 Internal  Forces:  Max     0.004218719 RMS     0.001379824
 Search for a local minimum.
 Step number   3 out of a maximum of   57
 All quantities printed in internal units (Hartrees-Bohrs-Radians)
 Mixed Optimization -- RFO/linear search
 Update second derivatives using D2CorX and points    1    2    3
 DE= -1.43D-03 DEPred=-1.79D-03 R= 7.95D-01
 TightC=F SS=  1.41D+00  RLast= 8.18D-02 DXNew= 8.4853D-01 2.4531D-01
 Trust test= 7.95D-01 RLast= 8.18D-02 DXMaxT set to 5.05D-01
 ITU=  1  1  0
 Use linear search instead of GDIIS.
     Eigenvalues ---    0.02011   0.02011   0.02011   0.02011   0.02011
     Eigenvalues ---    0.02011   0.02011   0.02011   0.24132   0.25000
     Eigenvalues ---    0.25000   0.25000   0.25000   0.25000   0.25065
     Eigenvalues ---    0.25369   0.26503   0.29033   0.29033   0.29047
     Eigenvalues ---    0.30171   0.41125   0.41907   0.44656   0.44657
     Eigenvalues ---    0.44865   0.78924
 RFO step:  Lambda=-9.39375581D-05 EMin= 2.01065580D-02
 Quartic linear search produced a step of -0.16024.
 Iteration  1 RMS(Cart)=  0.00369736 RMS(Int)=  0.00000476
 Iteration  2 RMS(Cart)=  0.00000844 RMS(Int)=  0.00000052
 Iteration  3 RMS(Cart)=  0.00000000 RMS(Int)=  0.00000052
 ClnCor:  largest displacement from symmetrization is 9.35D-12 for atom    10.
 Variable       Old X    -DE/DX   Delta X   Delta X   Delta X     New X
                                 (Linear)    (Quad)   (Total)
    R1        2.65679  -0.00379  -0.00426  -0.00205  -0.00631   2.65048
    R2        2.61729  -0.00106  -0.00373   0.00334  -0.00039   2.61690
    R3        3.23141   0.00243   0.00084   0.00835   0.00919   3.24060
    R4        2.66244  -0.00422  -0.00586  -0.00140  -0.00726   2.65518
    R5        3.22887   0.00071   0.00325   0.00118   0.00443   3.23329
    R6        2.66244  -0.00422  -0.00586  -0.00140  -0.00726   2.65518
    R7        3.22038   0.00224   0.00273   0.00610   0.00883   3.22921
    R8        2.65679  -0.00380  -0.00426  -0.00205  -0.00631   2.65048
    R9        3.22887   0.00071   0.00325   0.00118   0.00443   3.23329
   R10        2.61729  -0.00106  -0.00373   0.00334  -0.00039   2.61690
   R11        3.23141   0.00243   0.00084   0.00835   0.00919   3.24060
    A1        2.12877  -0.00069   0.00059  -0.00339  -0.00280   2.12598
    A2        2.08496  -0.00032  -0.00047  -0.00043  -0.00090   2.08406
    A3        2.06945   0.00102  -0.00012   0.00382   0.00370   2.07315
    A4        2.07533   0.00037   0.00083   0.00037   0.00120   2.07653
    A5        2.12192  -0.00048  -0.00083  -0.00113  -0.00196   2.11996
    A6        2.08593   0.00011   0.00000   0.00076   0.00076   2.08669
    A7        2.09111   0.00078  -0.00087   0.00267   0.00180   2.09291
    A8        2.09604  -0.00039   0.00043  -0.00133  -0.00090   2.09514
    A9        2.09604  -0.00039   0.00043  -0.00133  -0.00090   2.09514
   A10        2.07533   0.00037   0.00083   0.00037   0.00120   2.07653
   A11        2.08593   0.00011   0.00000   0.00076   0.00076   2.08669
   A12        2.12192  -0.00048  -0.00083  -0.00113  -0.00196   2.11996
   A13        2.12877  -0.00069   0.00059  -0.00339  -0.00280   2.12598
   A14        2.08496  -0.00032  -0.00047  -0.00043  -0.00090   2.08406
   A15        2.06945   0.00102  -0.00012   0.00382   0.00370   2.07315
   A16        2.06705  -0.00015  -0.00197   0.00338   0.00140   2.06845
    D1        0.00000  -0.00000   0.00000  -0.00000   0.00000   0.00000
    D2        3.14159  -0.00000   0.00000  -0.00000   0.00000   3.14159
    D3        3.14159   0.00000   0.00000   0.00000   0.00000   3.14159
    D4        0.00000   0.00000   0.00000   0.00000   0.00000   0.00000
    D5        0.00000   0.00000   0.00000   0.00000   0.00000   0.00000
    D6        3.14159  -0.00000   0.00000  -0.00000   0.00000   3.14159
    D7        0.00000   0.00000   0.00000   0.00000   0.00000   0.00000
    D8        3.14159  -0.00000   0.00000  -0.00000   0.00000   3.14159
    D9        3.14159   0.00000   0.00000   0.00000   0.00000   3.14159
   D10        0.00000   0.00000   0.00000   0.00000   0.00000   0.00000
   D11        0.00000  -0.00000   0.00000  -0.00000   0.00000   0.00000
   D12        3.14159  -0.00000   0.00000  -0.00000   0.00000   3.14159
   D13        3.14159   0.00000   0.00000   0.00000   0.00000   3.14159
   D14        0.00000   0.00000   0.00000   0.00000   0.00000   0.00000
   D15        0.00000   0.00000   0.00000   0.00000   0.00000   0.00000
   D16        3.14159  -0.00000   0.00000  -0.00000   0.00000   3.14159
   D17        3.14159   0.00000   0.00000   0.00000   0.00000   3.14159
   D18        0.00000   0.00000   0.00000   0.00000   0.00000   0.00000
   D19        0.00000  -0.00000   0.00000  -0.00000   0.00000   0.00000
   D20        3.14159   0.00000   0.00000   0.00000   0.00000   3.14159
         Item               Value     Threshold  Converged?
 Maximum Force            0.004219     0.000450     NO 
 RMS     Force            0.001380     0.000300     NO 
 Maximum Displacement     0.014599     0.001800     NO 
 RMS     Displacement     0.003702     0.001200     NO 
 Predicted change in Energy=-9.652226D-05
 GradGradGradGradGradGradGradGradGradGradGradGradGradGradGradGradGradGrad

                          Input orientation:                          
 ---------------------------------------------------------------------
 Center     Atomic      Atomic             Coordinates (Angstroms)
 Number     Number       Type             X           Y           Z
 ---------------------------------------------------------------------
      1          6           0       -3.188000    0.180409   -0.000000
      2          6           0       -2.006924    0.936896   -0.000000
      3          6           0       -0.770775    0.268964   -0.000000
      4          6           0       -0.733236   -1.135595   -0.000000
      5          6           0       -1.941644   -1.847610   -0.000000
      6          6           0       -3.167931   -1.204252   -0.000000
      7         17           0       -4.702793    0.984226   -0.000000
      8         17           0        0.777084   -1.939586   -0.000000
      9         17           0       -1.908734   -3.562146   -0.000000
     10         17           0       -2.042007    2.647521   -0.000000
     11         17           0        0.685090    1.163693   -0.000000
 ---------------------------------------------------------------------
                    Distance matrix (angstroms):
                    1          2          3          4          5
     1  C    0.000000
     2  C    1.402574   0.000000
     3  C    2.418847   1.405062   0.000000
     4  C    2.785271   2.432592   1.405061   0.000000
     5  C    2.380391   2.785271   2.418847   1.402575   0.000000
     6  C    1.384806   2.435663   2.813667   2.435663   1.384806
     7  Cl   1.714852   2.696284   3.996544   4.500114   3.955153
     8  Cl   4.496251   4.003106   2.696955   1.710985   2.720284
     9  Cl   3.955153   4.500114   3.996543   2.696283   1.714852
    10  Cl   2.720284   1.710985   2.696955   4.003106   4.496251
    11  Cl   3.995957   2.701551   1.708825   2.701551   3.995958
                    6          7          8          9         10
     6  C    0.000000
     7  Cl   2.673058   0.000000
     8  Cl   4.012961   6.211098   0.000000
     9  Cl   2.673058   5.336315   3.137885   0.000000
    10  Cl   4.012962   3.137887   5.384128   6.211097   0.000000
    11  Cl   4.522492   5.390871   3.104643   5.390870   3.104642
                   11
    11  Cl   0.000000
 Stoichiometry    C6Cl5(1-)
 Framework group  CS[SG(C6Cl5)]
 Deg. of freedom    19
 Full point group                 CS      NOp   2
 Largest Abelian subgroup         CS      NOp   2
 Largest concise Abelian subgroup C1      NOp   1
                         Standard orientation:                         
 ---------------------------------------------------------------------
 Center     Atomic      Atomic             Coordinates (Angstroms)
 Number     Number       Type             X           Y           Z
 ---------------------------------------------------------------------
      1          6           0       -1.190196   -1.137272    0.000000
      2          6           0       -1.216296    0.265059    0.000000
      3          6           0        0.000000    0.968495    0.000000
      4          6           0        1.216296    0.265060    0.000000
      5          6           0        1.190195   -1.137272    0.000000
      6          6           0        0.000000   -1.845172    0.000000
      7         17           0       -2.668158   -2.006954    0.000000
      8         17           0        2.692064    1.130841    0.000000
      9         17           0        2.668158   -2.006953    0.000000
     10         17           0       -2.692064    1.130842    0.000000
     11         17           0       -0.000000    2.677320    0.000000
 ---------------------------------------------------------------------
 Rotational constants (GHZ):           0.7151960           0.4704496           0.2837810
 Standard basis: VSTO-6G (5D, 7F)
 There are    33 symmetry adapted cartesian basis functions of A'  symmetry.
 There are    11 symmetry adapted cartesian basis functions of A"  symmetry.
 There are    33 symmetry adapted basis functions of A'  symmetry.
 There are    11 symmetry adapted basis functions of A"  symmetry.
    44 basis functions,   264 primitive gaussians,    44 cartesian basis functions
    30 alpha electrons       30 beta electrons
       nuclear repulsion energy       353.2079354031 Hartrees.
 Integral buffers will be    131072 words long.
 Regular integral format.
 Two-electron integral symmetry is turned off.
 Do NDO integrals.
 One-electron integrals computed using PRISM.
 NBasis=    44 RedAO= T EigKep=  1.00D+00  NBF=    33    11
 NBsUse=    44 1.00D-06 EigRej= -1.00D+00 NBFU=    33    11
 Initial guess from the checkpoint file:  "geometry_chks/_23456ClBzAnionIntermediate.chk"
 B after Tr=    -0.000000   -0.000000    0.000000
         Rot=    0.707107    0.000000   -0.000000   -0.707107 Ang= -90.00 deg.
 Initial guess orbital symmetries:
       Occupied  (A') (A') (A') (A') (A') (A') (A') (A') (A') (A')
                 (A') (A') (A') (A') (A") (A') (A") (A') (A") (A")
                 (A") (A') (A') (A') (A') (A') (A") (A") (A") (A')
       Virtual   (A") (A") (A') (A') (A') (A') (A') (A") (A') (A')
                 (A') (A') (A') (A')
 Keep J ints in memory in canonical form, NReq=865421.
 Overlap will be assumed to be unity.
 Requested convergence on RMS density matrix=1.00D-08 within**** cycles.
 Requested convergence on MAX density matrix=1.00D-06.
 Requested convergence on             energy=1.00D-06.
 No special actions if energy rises.
 Fock symm off for IB=2 I1=    1 I=   34 J=   16 Cut=1.00D-07 Err=1.85D-04
 Fock matrix is not symmetric: symmetry in diagonalization turned off.
 SCF Done:  E(RAM1) = -0.376780934789E-02 A.U. after   12 cycles
            NFock= 11  Conv=0.50D-08     -V/T= 1.0000
 Calling FoFJK, ICntrl=      2127 FMM=F ISym2X=1 I1Cent= 0 IOpClX= 0 NMat=1 NMatS=1 NMatT=0.
 ***** Axes restored to original set *****
 -------------------------------------------------------------------
 Center     Atomic                   Forces (Hartrees/Bohr)
 Number     Number              X              Y              Z
 -------------------------------------------------------------------
      1        6          -0.000243350   -0.001076533    0.000000000
      2        6           0.000146314    0.000689480   -0.000000000
      3        6          -0.000149648   -0.000091688    0.000000000
      4        6           0.000681028   -0.000181223    0.000000000
      5        6          -0.001069739    0.000269263   -0.000000000
      6        6           0.000393276    0.000242173    0.000000000
      7       17           0.000223249   -0.000187019   -0.000000000
      8       17          -0.000041663    0.000032739   -0.000000000
      9       17          -0.000066099    0.000283371   -0.000000000
     10       17           0.000010329   -0.000052033   -0.000000000
     11       17           0.000116303    0.000071471   -0.000000000
 -------------------------------------------------------------------
 Cartesian Forces:  Max     0.001076533 RMS     0.000342286

 GradGradGradGradGradGradGradGradGradGradGradGradGradGradGradGradGradGrad
 Berny optimization.
 Using GEDIIS/GDIIS optimizer.
 FormGI is forming the generalized inverse of G from B-inverse, IUseBI=4.
 Internal  Forces:  Max     0.000790552 RMS     0.000224702
 Search for a local minimum.
 Step number   4 out of a maximum of   57
 All quantities printed in internal units (Hartrees-Bohrs-Radians)
 Mixed Optimization -- En-DIIS/RFO-DIIS
 Update second derivatives using D2CorX and points    1    2    3    4
 DE= -9.08D-05 DEPred=-9.65D-05 R= 9.40D-01
 TightC=F SS=  1.41D+00  RLast= 2.31D-02 DXNew= 8.4853D-01 6.9369D-02
 Trust test= 9.40D-01 RLast= 2.31D-02 DXMaxT set to 5.05D-01
 ITU=  1  1  1  0
 Use linear search instead of GDIIS.
     Eigenvalues ---    0.02011   0.02011   0.02011   0.02011   0.02011
     Eigenvalues ---    0.02011   0.02011   0.02011   0.23984   0.24805
     Eigenvalues ---    0.25000   0.25000   0.25000   0.25000   0.25118
     Eigenvalues ---    0.25332   0.26355   0.28774   0.29033   0.29033
     Eigenvalues ---    0.30548   0.41122   0.43027   0.44656   0.44657
     Eigenvalues ---    0.50124   0.76213
 RFO step:  Lambda=-3.91726833D-06 EMin= 2.01065588D-02
 Quartic linear search produced a step of -0.07543.
 Iteration  1 RMS(Cart)=  0.00080392 RMS(Int)=  0.00000021
 Iteration  2 RMS(Cart)=  0.00000028 RMS(Int)=  0.00000004
 ClnCor:  largest displacement from symmetrization is 2.15D-11 for atom     9.
 Variable       Old X    -DE/DX   Delta X   Delta X   Delta X     New X
                                 (Linear)    (Quad)   (Total)
    R1        2.65048   0.00045   0.00048   0.00040   0.00087   2.65136
    R2        2.61690  -0.00079   0.00003  -0.00157  -0.00154   2.61537
    R3        3.24060  -0.00028  -0.00069   0.00011  -0.00058   3.24002
    R4        2.65518   0.00014   0.00055  -0.00020   0.00035   2.65553
    R5        3.23329  -0.00005  -0.00033   0.00019  -0.00014   3.23315
    R6        2.65518   0.00014   0.00055  -0.00020   0.00035   2.65553
    R7        3.22921   0.00014  -0.00067   0.00131   0.00064   3.22985
    R8        2.65048   0.00045   0.00048   0.00040   0.00087   2.65136
    R9        3.23329  -0.00005  -0.00033   0.00019  -0.00014   3.23315
   R10        2.61690  -0.00079   0.00003  -0.00157  -0.00154   2.61537
   R11        3.24060  -0.00028  -0.00069   0.00011  -0.00058   3.24002
    A1        2.12598   0.00029   0.00021   0.00059   0.00080   2.12677
    A2        2.08406  -0.00004   0.00007  -0.00019  -0.00012   2.08394
    A3        2.07315  -0.00024  -0.00028  -0.00040  -0.00068   2.07247
    A4        2.07653  -0.00026  -0.00009  -0.00069  -0.00078   2.07575
    A5        2.11996   0.00014   0.00015   0.00026   0.00041   2.12037
    A6        2.08669   0.00011  -0.00006   0.00043   0.00037   2.08706
    A7        2.09291  -0.00006  -0.00014   0.00030   0.00017   2.09307
    A8        2.09514   0.00003   0.00007  -0.00015  -0.00008   2.09506
    A9        2.09514   0.00003   0.00007  -0.00015  -0.00008   2.09506
   A10        2.07653  -0.00026  -0.00009  -0.00069  -0.00078   2.07575
   A11        2.08669   0.00011  -0.00006   0.00043   0.00037   2.08706
   A12        2.11996   0.00014   0.00015   0.00026   0.00041   2.12037
   A13        2.12598   0.00029   0.00021   0.00059   0.00080   2.12677
   A14        2.08406  -0.00004   0.00007  -0.00019  -0.00012   2.08394
   A15        2.07315  -0.00024  -0.00028  -0.00040  -0.00068   2.07247
   A16        2.06845  -0.00000  -0.00011  -0.00009  -0.00020   2.06825
    D1        0.00000  -0.00000   0.00000  -0.00000   0.00000   0.00000
    D2        3.14159  -0.00000   0.00000  -0.00000   0.00000   3.14159
    D3        3.14159   0.00000   0.00000   0.00000   0.00000   3.14159
    D4        0.00000   0.00000   0.00000   0.00000   0.00000   0.00000
    D5        0.00000   0.00000   0.00000   0.00000   0.00000   0.00000
    D6        3.14159  -0.00000   0.00000  -0.00000   0.00000   3.14159
    D7        0.00000   0.00000   0.00000   0.00000   0.00000   0.00000
    D8        3.14159  -0.00000   0.00000  -0.00000   0.00000   3.14159
    D9        3.14159   0.00000   0.00000   0.00000   0.00000   3.14159
   D10        0.00000   0.00000   0.00000   0.00000   0.00000   0.00000
   D11        0.00000   0.00000   0.00000   0.00000   0.00000   0.00000
   D12        3.14159  -0.00000   0.00000  -0.00000   0.00000   3.14159
   D13        3.14159   0.00000   0.00000   0.00000   0.00000   3.14159
   D14        0.00000  -0.00000   0.00000  -0.00000   0.00000   0.00000
   D15        0.00000  -0.00000   0.00000  -0.00000   0.00000   0.00000
   D16        3.14159  -0.00000   0.00000  -0.00000   0.00000   3.14159
   D17        3.14159   0.00000   0.00000   0.00000   0.00000   3.14159
   D18        0.00000  -0.00000   0.00000  -0.00000   0.00000   0.00000
   D19        0.00000   0.00000   0.00000   0.00000   0.00000   0.00000
   D20        3.14159   0.00000   0.00000   0.00000   0.00000   3.14159
         Item               Value     Threshold  Converged?
 Maximum Force            0.000791     0.000450     NO 
 RMS     Force            0.000225     0.000300     YES
 Maximum Displacement     0.003256     0.001800     NO 
 RMS     Displacement     0.000804     0.001200     YES
 Predicted change in Energy=-2.567831D-06
 GradGradGradGradGradGradGradGradGradGradGradGradGradGradGradGradGradGrad

                          Input orientation:                          
 ---------------------------------------------------------------------
 Center     Atomic      Atomic             Coordinates (Angstroms)
 Number     Number       Type             X           Y           Z
 ---------------------------------------------------------------------
      1          6           0       -3.187672    0.179707   -0.000000
      2          6           0       -2.006735    0.937268   -0.000000
      3          6           0       -0.770479    0.269146   -0.000000
      4          6           0       -0.732818   -1.135595   -0.000000
      5          6           0       -1.942122   -1.847000   -0.000000
      6          6           0       -3.167752   -1.204142   -0.000000
      7         17           0       -4.702657    0.982503   -0.000000
      8         17           0        0.777207   -1.939982   -0.000000
      9         17           0       -1.910211   -3.561247   -0.000000
     10         17           0       -2.042306    2.647809   -0.000000
     11         17           0        0.685674    1.164052   -0.000000
 ---------------------------------------------------------------------
                    Distance matrix (angstroms):
                    1          2          3          4          5
     1  C    0.000000
     2  C    1.403037   0.000000
     3  C    2.418847   1.405246   0.000000
     4  C    2.785018   2.433028   1.405246   0.000000
     5  C    2.378852   2.785018   2.418848   1.403037   0.000000
     6  C    1.383993   2.435898   2.813805   2.435898   1.383993
     7  Cl   1.714544   2.696302   3.996361   4.499551   3.953055
     8  Cl   4.495926   4.003611   2.697328   1.710911   2.720918
     9  Cl   3.953055   4.499551   3.996361   2.696302   1.714544
    10  Cl   2.720917   1.710911   2.697328   4.003611   4.495926
    11  Cl   3.996467   2.701943   1.709163   2.701943   3.996467
                    6          7          8          9         10
     6  C    0.000000
     7  Cl   2.671582   0.000000
     8  Cl   4.012999   6.210461   0.000000
     9  Cl   2.671582   5.333237   3.138585   0.000000
    10  Cl   4.012999   3.138585   5.384931   6.210461   0.000000
    11  Cl   4.522968   5.391389   3.105384   5.391389   3.105384
                   11
    11  Cl   0.000000
 Stoichiometry    C6Cl5(1-)
 Framework group  CS[SG(C6Cl5)]
 Deg. of freedom    19
 Full point group                 CS      NOp   2
 Largest Abelian subgroup         CS      NOp   2
 Largest concise Abelian subgroup C1      NOp   1
                         Standard orientation:                         
 ---------------------------------------------------------------------
 Center     Atomic      Atomic             Coordinates (Angstroms)
 Number     Number       Type             X           Y           Z
 ---------------------------------------------------------------------
      1          6           0       -1.137260    1.189426    0.000000
      2          6           0        0.265515    1.216514    0.000000
      3          6           0        0.968942   -0.000000   -0.000000
      4          6           0        0.265515   -1.216514   -0.000000
      5          6           0       -1.137260   -1.189426   -0.000000
      6          6           0       -1.844863    0.000000    0.000000
      7         17           0       -2.007641    2.666619    0.000000
      8         17           0        1.130837   -2.692466   -0.000000
      9         17           0       -2.007641   -2.666618   -0.000000
     10         17           0        1.130837    2.692465    0.000000
     11         17           0        2.678105    0.000000   -0.000000
 ---------------------------------------------------------------------
 Rotational constants (GHZ):           0.7148507           0.4706487           0.2837990
 Standard basis: VSTO-6G (5D, 7F)
 There are    33 symmetry adapted cartesian basis functions of A'  symmetry.
 There are    11 symmetry adapted cartesian basis functions of A"  symmetry.
 There are    33 symmetry adapted basis functions of A'  symmetry.
 There are    11 symmetry adapted basis functions of A"  symmetry.
    44 basis functions,   264 primitive gaussians,    44 cartesian basis functions
    30 alpha electrons       30 beta electrons
       nuclear repulsion energy       353.2100117788 Hartrees.
 Integral buffers will be    131072 words long.
 Regular integral format.
 Two-electron integral symmetry is turned off.
 Do NDO integrals.
 One-electron integrals computed using PRISM.
 NBasis=    44 RedAO= T EigKep=  1.00D+00  NBF=    33    11
 NBsUse=    44 1.00D-06 EigRej= -1.00D+00 NBFU=    33    11
 Initial guess from the checkpoint file:  "geometry_chks/_23456ClBzAnionIntermediate.chk"
 B after Tr=    -0.000000    0.000000    0.000000
         Rot=    0.707107   -0.000000    0.000000    0.707107 Ang=  90.00 deg.
 Initial guess orbital symmetries:
       Occupied  (A') (A') (A') (A') (A') (A') (A') (A') (A') (A')
                 (A') (A') (A') (A') (A") (A') (A") (A') (A") (A")
                 (A") (A') (A') (A') (A') (A') (A") (A") (A") (A')
       Virtual   (A") (A") (A') (A') (A') (A') (A') (A") (A') (A')
                 (A') (A') (A') (A')
 Keep J ints in memory in canonical form, NReq=865421.
 Overlap will be assumed to be unity.
 Requested convergence on RMS density matrix=1.00D-08 within**** cycles.
 Requested convergence on MAX density matrix=1.00D-06.
 Requested convergence on             energy=1.00D-06.
 No special actions if energy rises.
 Fock symm off for IB=2 I1=    1 I=   34 J=   22 Cut=1.00D-07 Err=3.10D-05
 Fock matrix is not symmetric: symmetry in diagonalization turned off.
 SCF Done:  E(RAM1) = -0.377028884009E-02 A.U. after   10 cycles
            NFock=  9  Conv=0.41D-08     -V/T= 1.0000
 Calling FoFJK, ICntrl=      2127 FMM=F ISym2X=1 I1Cent= 0 IOpClX= 0 NMat=1 NMatS=1 NMatT=0.
 ***** Axes restored to original set *****
 -------------------------------------------------------------------
 Center     Atomic                   Forces (Hartrees/Bohr)
 Number     Number              X              Y              Z
 -------------------------------------------------------------------
      1        6          -0.000093148   -0.000034724    0.000000000
      2        6           0.000090627    0.000248750    0.000000000
      3        6          -0.000151786   -0.000093187    0.000000000
      4        6           0.000262659   -0.000031735    0.000000000
      5        6          -0.000072770   -0.000067296    0.000000000
      6        6           0.000077506    0.000047635   -0.000000000
      7       17           0.000017791    0.000039172   -0.000000000
      8       17          -0.000120711    0.000066062   -0.000000000
      9       17           0.000042970   -0.000001791   -0.000000000
     10       17           0.000004416   -0.000137501   -0.000000000
     11       17          -0.000057555   -0.000035384   -0.000000000
 -------------------------------------------------------------------
 Cartesian Forces:  Max     0.000262659 RMS     0.000086326

 GradGradGradGradGradGradGradGradGradGradGradGradGradGradGradGradGradGrad
 Berny optimization.
 Using GEDIIS/GDIIS optimizer.
 FormGI is forming the generalized inverse of G from B-inverse, IUseBI=4.
 Internal  Forces:  Max     0.000141437 RMS     0.000051071
 Search for a local minimum.
 Step number   5 out of a maximum of   57
 All quantities printed in internal units (Hartrees-Bohrs-Radians)
 Mixed Optimization -- En-DIIS/RFO-DIIS
 Swapping is turned off.
 Update second derivatives using D2CorX and points    1    2    3    4    5
 DE= -2.48D-06 DEPred=-2.57D-06 R= 9.66D-01
 TightC=F SS=  1.41D+00  RLast= 3.43D-03 DXNew= 8.4853D-01 1.0285D-02
 Trust test= 9.66D-01 RLast= 3.43D-03 DXMaxT set to 5.05D-01
 ITU=  1  1  1  1  0
     Eigenvalues ---    0.02011   0.02011   0.02011   0.02011   0.02011
     Eigenvalues ---    0.02011   0.02011   0.02011   0.20947   0.24903
     Eigenvalues ---    0.25000   0.25000   0.25000   0.25000   0.25129
     Eigenvalues ---    0.26527   0.26828   0.28597   0.29033   0.29033
     Eigenvalues ---    0.30534   0.41120   0.43268   0.44656   0.44657
     Eigenvalues ---    0.55955   0.75497
 En-DIIS/RFO-DIIS/Sim-DIIS IScMMF=       -3 using points:     5    4
 RFO step:  Lambda=-4.40049430D-07.
 DidBck=F Rises=F RFO-DIIS coefs:    1.06570   -0.06570
 Iteration  1 RMS(Cart)=  0.00021476 RMS(Int)=  0.00000002
 Iteration  2 RMS(Cart)=  0.00000003 RMS(Int)=  0.00000001
 ClnCor:  largest displacement from symmetrization is 8.37D-12 for atom     9.
 Variable       Old X    -DE/DX   Delta X   Delta X   Delta X     New X
                                 (Linear)    (Quad)   (Total)
    R1        2.65136   0.00002   0.00006   0.00007   0.00012   2.65148
    R2        2.61537   0.00004  -0.00010   0.00005  -0.00005   2.61532
    R3        3.24002   0.00000  -0.00004  -0.00002  -0.00006   3.23996
    R4        2.65553  -0.00005   0.00002  -0.00010  -0.00008   2.65545
    R5        3.23315  -0.00014  -0.00001  -0.00052  -0.00053   3.23263
    R6        2.65553  -0.00005   0.00002  -0.00010  -0.00008   2.65545
    R7        3.22985  -0.00007   0.00004  -0.00023  -0.00019   3.22966
    R8        2.65136   0.00002   0.00006   0.00007   0.00012   2.65148
    R9        3.23315  -0.00014  -0.00001  -0.00052  -0.00053   3.23263
   R10        2.61537   0.00004  -0.00010   0.00005  -0.00005   2.61532
   R11        3.24002   0.00000  -0.00004  -0.00002  -0.00006   3.23996
    A1        2.12677  -0.00005   0.00005  -0.00014  -0.00009   2.12669
    A2        2.08394  -0.00005  -0.00001  -0.00020  -0.00020   2.08373
    A3        2.07247   0.00009  -0.00004   0.00034   0.00029   2.07277
    A4        2.07575  -0.00006  -0.00005  -0.00028  -0.00033   2.07542
    A5        2.12037   0.00003   0.00003   0.00015   0.00018   2.12056
    A6        2.08706   0.00003   0.00002   0.00012   0.00015   2.08721
    A7        2.09307   0.00014   0.00001   0.00054   0.00055   2.09362
    A8        2.09506  -0.00007  -0.00001  -0.00027  -0.00027   2.09478
    A9        2.09506  -0.00007  -0.00001  -0.00027  -0.00027   2.09478
   A10        2.07575  -0.00006  -0.00005  -0.00028  -0.00033   2.07542
   A11        2.08706   0.00003   0.00002   0.00012   0.00015   2.08721
   A12        2.12037   0.00003   0.00003   0.00015   0.00018   2.12056
   A13        2.12677  -0.00005   0.00005  -0.00014  -0.00009   2.12669
   A14        2.08394  -0.00005  -0.00001  -0.00020  -0.00020   2.08373
   A15        2.07247   0.00009  -0.00004   0.00034   0.00029   2.07277
   A16        2.06825   0.00007  -0.00001   0.00030   0.00029   2.06854
    D1        0.00000  -0.00000   0.00000  -0.00000   0.00000   0.00000
    D2        3.14159  -0.00000   0.00000  -0.00000   0.00000   3.14159
    D3        3.14159   0.00000   0.00000   0.00000   0.00000   3.14159
    D4        0.00000   0.00000   0.00000   0.00000  -0.00000   0.00000
    D5       -0.00000   0.00000   0.00000   0.00000   0.00000   0.00000
    D6        3.14159  -0.00000   0.00000  -0.00000   0.00000   3.14159
    D7       -0.00000   0.00000   0.00000   0.00000   0.00000   0.00000
    D8        3.14159  -0.00000   0.00000  -0.00000   0.00000   3.14159
    D9        3.14159   0.00000   0.00000   0.00000   0.00000   3.14159
   D10       -0.00000   0.00000   0.00000   0.00000   0.00000   0.00000
   D11       -0.00000  -0.00000   0.00000  -0.00000   0.00000   0.00000
   D12        3.14159  -0.00000   0.00000  -0.00000   0.00000   3.14159
   D13        3.14159   0.00000   0.00000   0.00000   0.00000   3.14159
   D14       -0.00000  -0.00000   0.00000  -0.00000   0.00000   0.00000
   D15        0.00000   0.00000   0.00000   0.00000  -0.00000   0.00000
   D16        3.14159  -0.00000   0.00000  -0.00000   0.00000   3.14159
   D17        3.14159   0.00000   0.00000   0.00000   0.00000   3.14159
   D18        0.00000   0.00000   0.00000   0.00000   0.00000   0.00000
   D19        0.00000  -0.00000   0.00000  -0.00000  -0.00000   0.00000
   D20        3.14159   0.00000   0.00000   0.00000   0.00000   3.14159
         Item               Value     Threshold  Converged?
 Maximum Force            0.000141     0.000450     YES
 RMS     Force            0.000051     0.000300     YES
 Maximum Displacement     0.000674     0.001800     YES
 RMS     Displacement     0.000215     0.001200     YES
 Predicted change in Energy=-2.200256D-07
 Optimization completed.
    -- Stationary point found.
                           ----------------------------
                           !   Optimized Parameters   !
                           ! (Angstroms and Degrees)  !
 --------------------------                            --------------------------
 ! Name  Definition              Value          Derivative Info.                !
 --------------------------------------------------------------------------------
 ! R1    R(1,2)                  1.403          -DE/DX =    0.0                 !
 ! R2    R(1,6)                  1.384          -DE/DX =    0.0                 !
 ! R3    R(1,7)                  1.7145         -DE/DX =    0.0                 !
 ! R4    R(2,3)                  1.4052         -DE/DX =   -0.0001              !
 ! R5    R(2,10)                 1.7109         -DE/DX =   -0.0001              !
 ! R6    R(3,4)                  1.4052         -DE/DX =   -0.0001              !
 ! R7    R(3,11)                 1.7092         -DE/DX =   -0.0001              !
 ! R8    R(4,5)                  1.403          -DE/DX =    0.0                 !
 ! R9    R(4,8)                  1.7109         -DE/DX =   -0.0001              !
 ! R10   R(5,6)                  1.384          -DE/DX =    0.0                 !
 ! R11   R(5,9)                  1.7145         -DE/DX =    0.0                 !
 ! A1    A(2,1,6)              121.8551         -DE/DX =    0.0                 !
 ! A2    A(2,1,7)              119.4009         -DE/DX =    0.0                 !
 ! A3    A(6,1,7)              118.744          -DE/DX =    0.0001              !
 ! A4    A(1,2,3)              118.9316         -DE/DX =   -0.0001              !
 ! A5    A(1,2,10)             121.4885         -DE/DX =    0.0                 !
 ! A6    A(3,2,10)             119.5799         -DE/DX =    0.0                 !
 ! A7    A(2,3,4)              119.9243         -DE/DX =    0.0001              !
 ! A8    A(2,3,11)             120.0379         -DE/DX =   -0.0001              !
 ! A9    A(4,3,11)             120.0379         -DE/DX =   -0.0001              !
 ! A10   A(3,4,5)              118.9316         -DE/DX =   -0.0001              !
 ! A11   A(3,4,8)              119.5799         -DE/DX =    0.0                 !
 ! A12   A(5,4,8)              121.4885         -DE/DX =    0.0                 !
 ! A13   A(4,5,6)              121.8551         -DE/DX =    0.0                 !
 ! A14   A(4,5,9)              119.4009         -DE/DX =    0.0                 !
 ! A15   A(6,5,9)              118.744          -DE/DX =    0.0001              !
 ! A16   A(1,6,5)              118.5023         -DE/DX =    0.0001              !
 ! D1    D(6,1,2,3)              0.0            -DE/DX =    0.0                 !
 ! D2    D(6,1,2,10)           180.0            -DE/DX =    0.0                 !
 ! D3    D(7,1,2,3)            180.0            -DE/DX =    0.0                 !
 ! D4    D(7,1,2,10)             0.0            -DE/DX =    0.0                 !
 ! D5    D(2,1,6,5)              0.0            -DE/DX =    0.0                 !
 ! D6    D(7,1,6,5)            180.0            -DE/DX =    0.0                 !
 ! D7    D(1,2,3,4)              0.0            -DE/DX =    0.0                 !
 ! D8    D(1,2,3,11)           180.0            -DE/DX =    0.0                 !
 ! D9    D(10,2,3,4)           180.0            -DE/DX =    0.0                 !
 ! D10   D(10,2,3,11)            0.0            -DE/DX =    0.0                 !
 ! D11   D(2,3,4,5)              0.0            -DE/DX =    0.0                 !
 ! D12   D(2,3,4,8)            180.0            -DE/DX =    0.0                 !
 ! D13   D(11,3,4,5)           180.0            -DE/DX =    0.0                 !
 ! D14   D(11,3,4,8)             0.0            -DE/DX =    0.0                 !
 ! D15   D(3,4,5,6)              0.0            -DE/DX =    0.0                 !
 ! D16   D(3,4,5,9)            180.0            -DE/DX =    0.0                 !
 ! D17   D(8,4,5,6)            180.0            -DE/DX =    0.0                 !
 ! D18   D(8,4,5,9)              0.0            -DE/DX =    0.0                 !
 ! D19   D(4,5,6,1)              0.0            -DE/DX =    0.0                 !
 ! D20   D(9,5,6,1)            180.0            -DE/DX =    0.0                 !
 --------------------------------------------------------------------------------
 GradGradGradGradGradGradGradGradGradGradGradGradGradGradGradGradGradGrad

                          Input orientation:                          
 ---------------------------------------------------------------------
 Center     Atomic      Atomic             Coordinates (Angstroms)
 Number     Number       Type             X           Y           Z
 ---------------------------------------------------------------------
      1          6           0       -3.187672    0.179707    0.000000
      2          6           0       -2.006735    0.937268    0.000000
      3          6           0       -0.770479    0.269146   -0.000000
      4          6           0       -0.732818   -1.135595   -0.000000
      5          6           0       -1.942122   -1.847000   -0.000000
      6          6           0       -3.167752   -1.204142   -0.000000
      7         17           0       -4.702657    0.982503    0.000000
      8         17           0        0.777207   -1.939982   -0.000000
      9         17           0       -1.910211   -3.561247   -0.000000
     10         17           0       -2.042306    2.647809    0.000000
     11         17           0        0.685674    1.164052    0.000000
 ---------------------------------------------------------------------
                    Distance matrix (angstroms):
                    1          2          3          4          5
     1  C    0.000000
     2  C    1.403037   0.000000
     3  C    2.418847   1.405246   0.000000
     4  C    2.785018   2.433028   1.405246   0.000000
     5  C    2.378852   2.785018   2.418848   1.403037   0.000000
     6  C    1.383993   2.435898   2.813805   2.435898   1.383993
     7  Cl   1.714544   2.696302   3.996361   4.499551   3.953055
     8  Cl   4.495926   4.003611   2.697328   1.710911   2.720918
     9  Cl   3.953055   4.499551   3.996361   2.696302   1.714544
    10  Cl   2.720917   1.710911   2.697328   4.003611   4.495926
    11  Cl   3.996467   2.701943   1.709163   2.701943   3.996467
                    6          7          8          9         10
     6  C    0.000000
     7  Cl   2.671582   0.000000
     8  Cl   4.012999   6.210461   0.000000
     9  Cl   2.671582   5.333237   3.138585   0.000000
    10  Cl   4.012999   3.138585   5.384931   6.210461   0.000000
    11  Cl   4.522968   5.391389   3.105384   5.391389   3.105384
                   11
    11  Cl   0.000000
 Stoichiometry    C6Cl5(1-)
 Framework group  CS[SG(C6Cl5)]
 Deg. of freedom    19
 Full point group                 CS      NOp   2
 Largest Abelian subgroup         CS      NOp   2
 Largest concise Abelian subgroup C1      NOp   1
                         Standard orientation:                         
 ---------------------------------------------------------------------
 Center     Atomic      Atomic             Coordinates (Angstroms)
 Number     Number       Type             X           Y           Z
 ---------------------------------------------------------------------
      1          6           0       -1.137260    1.189426    0.000000
      2          6           0        0.265515    1.216514    0.000000
      3          6           0        0.968942   -0.000000   -0.000000
      4          6           0        0.265515   -1.216514   -0.000000
      5          6           0       -1.137260   -1.189426   -0.000000
      6          6           0       -1.844863    0.000000    0.000000
      7         17           0       -2.007641    2.666619    0.000000
      8         17           0        1.130837   -2.692466   -0.000000
      9         17           0       -2.007641   -2.666618   -0.000000
     10         17           0        1.130837    2.692465    0.000000
     11         17           0        2.678105    0.000000   -0.000000
 ---------------------------------------------------------------------
 Rotational constants (GHZ):           0.7148507           0.4706487           0.2837990

 **********************************************************************

            Population analysis using the SCF Density.

 **********************************************************************

 Orbital symmetries:
       Occupied  (A') (A') (A') (A') (A') (A') (A') (A') (A') (A')
                 (A') (A') (A') (A') (A") (A') (A") (A') (A") (A")
                 (A") (A') (A') (A') (A') (A') (A") (A") (A") (A')
       Virtual   (A") (A") (A') (A') (A') (A') (A') (A") (A') (A')
                 (A') (A') (A') (A')
 The electronic state is 1-A'.
 Alpha  occ. eigenvalues --   -1.31536  -1.26000  -1.25168  -1.23766  -1.22923
 Alpha  occ. eigenvalues --   -1.19836  -0.98545  -0.96878  -0.72248  -0.70553
 Alpha  occ. eigenvalues --   -0.54028  -0.49088  -0.48369  -0.43484  -0.42980
 Alpha  occ. eigenvalues --   -0.40421  -0.37026  -0.35825  -0.35260  -0.33214
 Alpha  occ. eigenvalues --   -0.32664  -0.32376  -0.31314  -0.30405  -0.29474
 Alpha  occ. eigenvalues --   -0.27745  -0.27040  -0.19685  -0.18500  -0.14221
 Alpha virt. eigenvalues --    0.14325   0.15769   0.16355   0.17832   0.18220
 Alpha virt. eigenvalues --    0.20678   0.21426   0.25818   0.29598   0.29721
 Alpha virt. eigenvalues --    0.30829   0.31988   0.35691   0.37665
          Condensed to atoms (all electrons):
               1          2          3          4          5          6
     1  C    4.044812   0.000000   0.000000   0.000000   0.000000   0.000000
     2  C    0.000000   4.061231   0.000000   0.000000   0.000000   0.000000
     3  C    0.000000   0.000000   4.121555   0.000000   0.000000   0.000000
     4  C    0.000000   0.000000   0.000000   4.061231   0.000000   0.000000
     5  C    0.000000   0.000000   0.000000   0.000000   4.044812   0.000000
     6  C    0.000000   0.000000   0.000000   0.000000   0.000000   4.331252
     7  Cl   0.000000   0.000000   0.000000   0.000000   0.000000   0.000000
     8  Cl   0.000000   0.000000   0.000000   0.000000   0.000000   0.000000
     9  Cl   0.000000   0.000000   0.000000   0.000000   0.000000   0.000000
    10  Cl   0.000000   0.000000   0.000000   0.000000   0.000000   0.000000
    11  Cl   0.000000   0.000000   0.000000   0.000000   0.000000   0.000000
               7          8          9         10         11
     1  C    0.000000   0.000000   0.000000   0.000000   0.000000
     2  C    0.000000   0.000000   0.000000   0.000000   0.000000
     3  C    0.000000   0.000000   0.000000   0.000000   0.000000
     4  C    0.000000   0.000000   0.000000   0.000000   0.000000
     5  C    0.000000   0.000000   0.000000   0.000000   0.000000
     6  C    0.000000   0.000000   0.000000   0.000000   0.000000
     7  Cl   7.079050   0.000000   0.000000   0.000000   0.000000
     8  Cl   0.000000   7.062087   0.000000   0.000000   0.000000
     9  Cl   0.000000   0.000000   7.079050   0.000000   0.000000
    10  Cl   0.000000   0.000000   0.000000   7.062087   0.000000
    11  Cl   0.000000   0.000000   0.000000   0.000000   7.052832
 Mulliken charges:
               1
     1  C   -0.044812
     2  C   -0.061231
     3  C   -0.121555
     4  C   -0.061231
     5  C   -0.044812
     6  C   -0.331252
     7  Cl  -0.079050
     8  Cl  -0.062087
     9  Cl  -0.079050
    10  Cl  -0.062087
    11  Cl  -0.052832
 Sum of Mulliken charges =  -1.00000
 Mulliken charges with hydrogens summed into heavy atoms:
               1
     1  C   -0.044812
     2  C   -0.061231
     3  C   -0.121555
     4  C   -0.061231
     5  C   -0.044812
     6  C   -0.331252
     7  Cl  -0.079050
     8  Cl  -0.062087
     9  Cl  -0.079050
    10  Cl  -0.062087
    11  Cl  -0.052832
 Charge=             -1.0000 electrons
 Dipole moment (field-independent basis, Debye):
    X=              4.8791    Y=              0.0000    Z=              0.0000  Tot=              4.8791
 N-N= 3.532100117788D+02 E-N=-5.133892899981D+02  KE=-1.576268640837D+02
 Symmetry A'   KE=-1.203770372971D+02
 Symmetry A"   KE=-3.724982678660D+01
 1\1\GINC-SH03-01N68\FOpt\RAM1\ZDO\C6Cl5(1-)\JLAPIER\08-Dec-2025\0\\# o
 pt am1 SCF(maxcyc=10000)\\Anion Intermediate (removed 1) _23456\\-1,1\
 C,-3.1876720485,0.1797071332,0.\C,-2.0067346955,0.9372683451,0.\C,-0.7
 704787322,0.2691463088,0.\C,-0.7328182542,-1.1355945417,0.\C,-1.942121
 8541,-1.8470001778,0.\C,-3.1677519354,-1.2041422447,0.\Cl,-4.702656860
 2,0.9825029719,0.\Cl,0.7772067017,-1.9399823893,0.\Cl,-1.9102110846,-3
 .5612469195,0.\Cl,-2.0423055668,2.6478091275,0.\Cl,0.6856743262,1.1640
 523926,0.\\Version=ES64L-G16RevB.01\State=1-A'\HF=-0.0037703\RMSD=4.08
 7e-09\RMSF=8.633e-05\Dipole=1.6354111,1.0050727,0.\PG=CS [SG(C6Cl5)]\\
 @


 A leading authority is anyone who has guessed right more than once.
 -- Frank A. Clark
 Job cpu time:       0 days  0 hours  0 minutes  2.0 seconds.
 Elapsed time:       0 days  0 hours  0 minutes 18.6 seconds.
 File lengths (MBytes):  RWF=     10 Int=      0 D2E=      0 Chk=      2 Scr=      1
 Normal termination of Gaussian 16 at Mon Dec  8 17:08:49 2025.
