 Entering Gaussian System, Link 0=g16
 Initial command:
 /share/software/user/restricted/gaussian/g16.B01/l1.exe "/home/users/jlapier/Chloroaromatics/Gau-32491.inp" -scrdir="/home/users/jlapier/Chloroaromatics/"
 Entering Link 1 = /share/software/user/restricted/gaussian/g16.B01/l1.exe PID=     32492.
  
 Copyright (c) 1988-2017, Gaussian, Inc.  All Rights Reserved.
  
 This is part of the Gaussian(R) 16 program.  It is based on
 the Gaussian(R) 09 system (copyright 2009, Gaussian, Inc.),
 the Gaussian(R) 03 system (copyright 2003, Gaussian, Inc.),
 the Gaussian(R) 98 system (copyright 1998, Gaussian, Inc.),
 the Gaussian(R) 94 system (copyright 1995, Gaussian, Inc.),
 the Gaussian 92(TM) system (copyright 1992, Gaussian, Inc.),
 the Gaussian 90(TM) system (copyright 1990, Gaussian, Inc.),
 the Gaussian 88(TM) system (copyright 1988, Gaussian, Inc.),
 the Gaussian 86(TM) system (copyright 1986, Carnegie Mellon
 University), and the Gaussian 82(TM) system (copyright 1983,
 Carnegie Mellon University). Gaussian is a federally registered
 trademark of Gaussian, Inc.
  
 This software contains proprietary and confidential information,
 including trade secrets, belonging to Gaussian, Inc.
  
 This software is provided under written license and may be
 used, copied, transmitted, or stored only in accord with that
 written license.
  
 The following legend is applicable only to US Government
 contracts under FAR:
  
                    RESTRICTED RIGHTS LEGEND
  
 Use, reproduction and disclosure by the US Government is
 subject to restrictions as set forth in subparagraphs (a)
 and (c) of the Commercial Computer Software - Restricted
 Rights clause in FAR 52.227-19.
  
 Gaussian, Inc.
 340 Quinnipiac St., Bldg. 40, Wallingford CT 06492
  
  
 ---------------------------------------------------------------
 Warning -- This program may not be used in any manner that
 competes with the business of Gaussian, Inc. or will provide
 assistance to any competitor of Gaussian, Inc.  The licensee
 of this program is prohibited from giving any competitor of
 Gaussian, Inc. access to this program.  By using this program,
 the user acknowledges that Gaussian, Inc. is engaged in the
 business of creating and licensing software in the field of
 computational chemistry and represents and warrants to the
 licensee that it is not a competitor of Gaussian, Inc. and that
 it will not use this program in any manner prohibited above.
 ---------------------------------------------------------------
  

 Cite this work as:
 Gaussian 16, Revision B.01,
 M. J. Frisch, G. W. Trucks, H. B. Schlegel, G. E. Scuseria, 
 M. A. Robb, J. R. Cheeseman, G. Scalmani, V. Barone, 
 G. A. Petersson, H. Nakatsuji, X. Li, M. Caricato, A. V. Marenich, 
 J. Bloino, B. G. Janesko, R. Gomperts, B. Mennucci, H. P. Hratchian, 
 J. V. Ortiz, A. F. Izmaylov, J. L. Sonnenberg, D. Williams-Young, 
 F. Ding, F. Lipparini, F. Egidi, J. Goings, B. Peng, A. Petrone, 
 T. Henderson, D. Ranasinghe, V. G. Zakrzewski, J. Gao, N. Rega, 
 G. Zheng, W. Liang, M. Hada, M. Ehara, K. Toyota, R. Fukuda, 
 J. Hasegawa, M. Ishida, T. Nakajima, Y. Honda, O. Kitao, H. Nakai, 
 T. Vreven, K. Throssell, J. A. Montgomery, Jr., J. E. Peralta, 
 F. Ogliaro, M. J. Bearpark, J. J. Heyd, E. N. Brothers, K. N. Kudin, 
 V. N. Staroverov, T. A. Keith, R. Kobayashi, J. Normand, 
 K. Raghavachari, A. P. Rendell, J. C. Burant, S. S. Iyengar, 
 J. Tomasi, M. Cossi, J. M. Millam, M. Klene, C. Adamo, R. Cammi, 
 J. W. Ochterski, R. L. Martin, K. Morokuma, O. Farkas, 
 J. B. Foresman, and D. J. Fox, Gaussian, Inc., Wallingford CT, 2016.
 
 ******************************************
 Gaussian 16:  ES64L-G16RevB.01 20-Dec-2017
                 9-Dec-2025 
 ******************************************
 %mem=2GB
 %nprocshare=1
 Will use up to    1 processors via shared memory.
 %chk=geometry_chks/_234ClBzNeutralRadical.chk
 -----------------
 # opt am1 SCF=XQC
 -----------------
 1/18=20,19=15,26=1,38=1/1,3;
 2/9=110,12=2,17=6,18=5,40=1/2;
 3/5=2,25=1,41=700000,71=1/1,2,3;
 4/35=1/1;
 5/5=2,8=3,13=1,35=1,38=5/2,8;
 6/7=2,8=2,9=2,10=2,28=1/1;
 7//1,2,3,16;
 1/18=20,19=15,26=1/3(2);
 2/9=110/2;
 99//99;
 2/9=110/2;
 3/5=2,25=1,41=700000,71=1,135=20/1,2,3;
 4/5=5,16=3,35=1/1;
 5/5=2,8=3,13=1,35=1,38=5/2,8;
 7//1,2,3,16;
 1/18=20,19=15,26=1/3(-5);
 2/9=110/2;
 6/7=2,8=2,9=2,10=2,19=2,28=1/1;
 99/9=1/99;
 --------------------------------
 Neutral Radical (removed 1) _234
 --------------------------------
 Symbolic Z-matrix:
 Charge =  0 Multiplicity = 2
 C                    -3.20928   0.19943   0. 
 C                    -2.0115    0.93555   0. 
 C                    -0.77511   0.2663    0. 
 C                    -0.7365   -1.13907   0. 
 C                    -1.93429  -1.87519   0. 
 C                    -3.17067  -1.20594   0. 
 Cl                   -4.76193   1.03987   0. 
 Cl                    0.81614  -1.97951   0. 
 Cl                   -1.8858   -3.64003   0. 
 H                    -2.05998   2.7004    0. 
 H                     0.72905   1.19071   0. 
 
 Add virtual bond connecting atoms H11        and C3         Dist= 3.34D+00.
 Add virtual bond connecting atoms H10        and C2         Dist= 3.34D+00.

 GradGradGradGradGradGradGradGradGradGradGradGradGradGradGradGradGradGrad
 Berny optimization.
 Initialization pass.
                           ----------------------------
                           !    Initial Parameters    !
                           ! (Angstroms and Degrees)  !
 --------------------------                            --------------------------
 ! Name  Definition              Value          Derivative Info.                !
 --------------------------------------------------------------------------------
 ! R1    R(1,2)                  1.4059         estimate D2E/DX2                !
 ! R2    R(1,6)                  1.4059         estimate D2E/DX2                !
 ! R3    R(1,7)                  1.7655         estimate D2E/DX2                !
 ! R4    R(2,3)                  1.4059         estimate D2E/DX2                !
 ! R5    R(2,10)                 1.7655         estimate D2E/DX2                !
 ! R6    R(3,4)                  1.4059         estimate D2E/DX2                !
 ! R7    R(3,11)                 1.7655         estimate D2E/DX2                !
 ! R8    R(4,5)                  1.4059         estimate D2E/DX2                !
 ! R9    R(4,8)                  1.7655         estimate D2E/DX2                !
 ! R10   R(5,6)                  1.4059         estimate D2E/DX2                !
 ! R11   R(5,9)                  1.7655         estimate D2E/DX2                !
 ! A1    A(2,1,6)              119.9999         estimate D2E/DX2                !
 ! A2    A(2,1,7)              119.9999         estimate D2E/DX2                !
 ! A3    A(6,1,7)              120.0001         estimate D2E/DX2                !
 ! A4    A(1,2,3)              120.0            estimate D2E/DX2                !
 ! A5    A(1,2,10)             120.0001         estimate D2E/DX2                !
 ! A6    A(3,2,10)             119.9999         estimate D2E/DX2                !
 ! A7    A(2,3,4)              120.0001         estimate D2E/DX2                !
 ! A8    A(2,3,11)             120.0            estimate D2E/DX2                !
 ! A9    A(4,3,11)             119.9999         estimate D2E/DX2                !
 ! A10   A(3,4,5)              119.9997         estimate D2E/DX2                !
 ! A11   A(3,4,8)              120.0003         estimate D2E/DX2                !
 ! A12   A(5,4,8)              120.0            estimate D2E/DX2                !
 ! A13   A(4,5,6)              120.0            estimate D2E/DX2                !
 ! A14   A(4,5,9)              119.9996         estimate D2E/DX2                !
 ! A15   A(6,5,9)              120.0004         estimate D2E/DX2                !
 ! A16   A(1,6,5)              120.0003         estimate D2E/DX2                !
 ! D1    D(6,1,2,3)              0.0            estimate D2E/DX2                !
 ! D2    D(6,1,2,10)           180.0            estimate D2E/DX2                !
 ! D3    D(7,1,2,3)            180.0            estimate D2E/DX2                !
 ! D4    D(7,1,2,10)             0.0            estimate D2E/DX2                !
 ! D5    D(2,1,6,5)              0.0            estimate D2E/DX2                !
 ! D6    D(7,1,6,5)            180.0            estimate D2E/DX2                !
 ! D7    D(1,2,3,4)              0.0            estimate D2E/DX2                !
 ! D8    D(1,2,3,11)           180.0            estimate D2E/DX2                !
 ! D9    D(10,2,3,4)           180.0            estimate D2E/DX2                !
 ! D10   D(10,2,3,11)            0.0            estimate D2E/DX2                !
 ! D11   D(2,3,4,5)              0.0            estimate D2E/DX2                !
 ! D12   D(2,3,4,8)            180.0            estimate D2E/DX2                !
 ! D13   D(11,3,4,5)           180.0            estimate D2E/DX2                !
 ! D14   D(11,3,4,8)             0.0            estimate D2E/DX2                !
 ! D15   D(3,4,5,6)              0.0            estimate D2E/DX2                !
 ! D16   D(3,4,5,9)            180.0            estimate D2E/DX2                !
 ! D17   D(8,4,5,6)            180.0            estimate D2E/DX2                !
 ! D18   D(8,4,5,9)              0.0            estimate D2E/DX2                !
 ! D19   D(4,5,6,1)              0.0            estimate D2E/DX2                !
 ! D20   D(9,5,6,1)            180.0            estimate D2E/DX2                !
 --------------------------------------------------------------------------------
 Trust Radius=3.00D-01 FncErr=1.00D-07 GrdErr=1.00D-07 EigMax=2.50D+02 EigMin=1.00D-04
 Number of steps in this run=     57 maximum allowed number of steps=    100.
 GradGradGradGradGradGradGradGradGradGradGradGradGradGradGradGradGradGrad

                          Input orientation:                          
 ---------------------------------------------------------------------
 Center     Atomic      Atomic             Coordinates (Angstroms)
 Number     Number       Type             X           Y           Z
 ---------------------------------------------------------------------
      1          6           0       -3.209280    0.199430    0.000000
      2          6           0       -2.011500    0.935550    0.000000
      3          6           0       -0.775110    0.266300    0.000000
      4          6           0       -0.736500   -1.139070    0.000000
      5          6           0       -1.934290   -1.875190    0.000000
      6          6           0       -3.170670   -1.205940    0.000000
      7         17           0       -4.761930    1.039870    0.000000
      8         17           0        0.816140   -1.979510    0.000000
      9         17           0       -1.885800   -3.640030    0.000000
     10          1           0       -2.059980    2.700400    0.000000
     11          1           0        0.729050    1.190710    0.000000
 ---------------------------------------------------------------------
                    Distance matrix (angstroms):
                    1          2          3          4          5
     1  C    0.000000
     2  C    1.405898   0.000000
     3  C    2.435088   1.405900   0.000000
     4  C    2.811801   2.435092   1.405900   0.000000
     5  C    2.435087   2.811800   2.435093   1.405907   0.000000
     6  C    1.405900   2.435088   2.811796   2.435088   1.405892
     7  Cl   1.765520   2.752408   4.061175   4.577321   4.061173
     8  Cl   4.577312   4.061173   2.752406   1.765511   2.752408
     9  Cl   4.061164   4.577306   4.061163   2.752397   1.765506
    10  H    2.752406   1.765516   2.752405   4.061173   4.577316
    11  H    4.061167   2.752403   1.765512   2.752401   4.061173
                    6          7          8          9         10
     6  C    0.000000
     7  Cl   2.752412   0.000000
     8  Cl   4.061165   6.342832   0.000000
     9  Cl   2.752396   5.493049   3.171404   0.000000
    10  H    4.061173   3.171418   5.493052   6.342822   0.000000
    11  H    4.577308   5.493051   3.171416   5.493040   3.171412
                   11
    11  H    0.000000
 Stoichiometry    C6H2Cl3(2)
 Framework group  CS[SG(C6H2Cl3)]
 Deg. of freedom    19
 Full point group                 CS      NOp   2
 Largest Abelian subgroup         CS      NOp   2
 Largest concise Abelian subgroup C1      NOp   1
                         Standard orientation:                         
 ---------------------------------------------------------------------
 Center     Atomic      Atomic             Coordinates (Angstroms)
 Number     Number       Type             X           Y           Z
 ---------------------------------------------------------------------
      1          6           0        0.462897    1.708785    0.000000
      2          6           0        1.680442    1.005837    0.000000
      3          6           0        1.680442   -0.400063    0.000000
      4          6           0        0.462897   -1.103016    0.000000
      5          6           0       -0.754651   -0.400059    0.000000
      6          6           0       -0.754647    1.005833    0.000000
      7         17           0        0.462898    3.474305    0.000000
      8         17           0        0.462892   -2.868527    0.000000
      9         17           0       -2.283621   -1.282818    0.000000
     10          1           0        3.209424    1.888592    0.000000
     11          1           0        3.209419   -1.282819    0.000000
 ---------------------------------------------------------------------
 Rotational constants (GHZ):           1.8217181           0.5760390           0.4376510
 Standard basis: VSTO-6G (5D, 7F)
 There are    29 symmetry adapted cartesian basis functions of A'  symmetry.
 There are     9 symmetry adapted cartesian basis functions of A"  symmetry.
 There are    29 symmetry adapted basis functions of A'  symmetry.
 There are     9 symmetry adapted basis functions of A"  symmetry.
    38 basis functions,   228 primitive gaussians,    38 cartesian basis functions
    24 alpha electrons       23 beta electrons
       nuclear repulsion energy       238.8629852235 Hartrees.
 Integral buffers will be    131072 words long.
 Regular integral format.
 Two-electron integral symmetry is turned off.
 Do NDO integrals.
 One-electron integrals computed using PRISM.
 NBasis=    38 RedAO= T EigKep=  1.00D+00  NBF=    29     9
 NBsUse=    38 1.00D-06 EigRej= -1.00D+00 NBFU=    29     9
 Simple Huckel Guess.
 Initial guess orbital symmetries:
 Alpha Orbitals:
       Occupied  (A') (A') (A') (A') (A') (A') (A') (A') (A') (A")
                 (A') (A') (A') (A") (A') (A") (A') (A") (A') (A')
                 (A') (A") (A") (A')
       Virtual   (A') (A") (A") (A') (A") (A') (A') (A') (A') (A')
                 (A') (A') (A') (A')
 Beta  Orbitals:
       Occupied  (A') (A') (A') (A') (A') (A') (A') (A') (A') (A")
                 (A') (A') (A') (A") (A') (A") (A') (A") (A') (A')
                 (A') (A") (A")
       Virtual   (A') (A') (A") (A") (A') (A") (A') (A') (A') (A')
                 (A') (A') (A') (A') (A')
 The electronic state of the initial guess is 2-A'.
 Initial guess <Sx>= 0.0000 <Sy>= 0.0000 <Sz>= 0.5000 <S**2>= 0.7500 S= 0.5000
 Keep J ints in memory in canonical form, NReq=863588.
 Overlap will be assumed to be unity.
 Requested convergence on RMS density matrix=1.00D-08 within  32 cycles.
 Requested convergence on MAX density matrix=1.00D-06.
 Requested convergence on             energy=1.00D-06.
 No special actions if energy rises.
 Fock symm off for IB=2 I1=    1 I=   30 J=   22 Cut=1.00D-07 Err=3.12D-03
 Fock matrix is not symmetric: symmetry in diagonalization turned off.
 Rare condition: small coef for last iteration:  0.000D+00
 Rare condition: small coef for last iteration:  0.000D+00
 Rare condition: small coef for last iteration:  0.000D+00
 Rare condition: small coef for last iteration:  0.000D+00
 Rare condition: small coef for last iteration:  0.000D+00
 Rare condition: small coef for last iteration:  0.000D+00
 Rare condition: small coef for last iteration:  0.000D+00
 Rare condition: small coef for last iteration:  0.000D+00
 Rare condition: small coef for last iteration:  0.000D+00
 Rare condition: small coef for last iteration:  0.000D+00
 Rare condition: small coef for last iteration:  0.000D+00
 Rare condition: small coef for last iteration:  0.000D+00
 Rare condition: small coef for last iteration:  0.000D+00
 Rare condition: small coef for last iteration:  0.000D+00
 >>>>>>>>>> Convergence criterion not met.
 SCF Done:  E(UAM1) =  0.353236399184     A.U. after   33 cycles
            NFock= 32  Conv=0.13D-02     -V/T= 1.0032
 <Sx>= 0.0000 <Sy>= 0.0000 <Sz>= 0.5000 <S**2>= 1.2095 S= 0.7081
 <L.S>=  0.00000000000    
 Annihilation of the first spin contaminant:
 S**2 before annihilation     1.2095,   after     0.9481
 Keep J ints in memory in canonical form, NReq=863988.
 LinEq1:  Iter=  0 NonCon=     1 RMS=1.73D-04 Max=1.91D-03 NDo=     1
 AX will form     1 AO Fock derivatives at one time.
 LinEq1:  Iter=  1 NonCon=     1 RMS=3.82D-05 Max=3.14D-04 NDo=     1
 LinEq1:  Iter=  2 NonCon=     1 RMS=1.02D-05 Max=1.24D-04 NDo=     1
 LinEq1:  Iter=  3 NonCon=     1 RMS=3.40D-06 Max=3.53D-05 NDo=     1
 LinEq1:  Iter=  4 NonCon=     1 RMS=9.66D-07 Max=1.25D-05 NDo=     1
 LinEq1:  Iter=  5 NonCon=     1 RMS=1.99D-07 Max=1.59D-06 NDo=     1
 LinEq1:  Iter=  6 NonCon=     1 RMS=4.47D-08 Max=3.14D-07 NDo=     1
 LinEq1:  Iter=  7 NonCon=     1 RMS=1.21D-08 Max=8.53D-08 NDo=     1
 LinEq1:  Iter=  8 NonCon=     1 RMS=3.76D-09 Max=3.68D-08 NDo=     1
 LinEq1:  Iter=  9 NonCon=     0 RMS=8.86D-10 Max=6.10D-09 NDo=     1
 Linear equations converged to 2.610D-09 2.610D-08 after     9 iterations.
 Incorrect curvature in search direction -- initial direction reversed.
 LinEq1:  Iter=  0 NonCon=     1 RMS=5.12D-04 Max=6.51D-03 NDo=     1
 LinEq1:  Iter=  1 NonCon=     1 RMS=1.18D-04 Max=1.08D-03 NDo=     1
 LinEq1:  Iter=  2 NonCon=     1 RMS=3.40D-05 Max=4.62D-04 NDo=     1
 LinEq1:  Iter=  3 NonCon=     1 RMS=8.99D-06 Max=8.53D-05 NDo=     1
 LinEq1:  Iter=  4 NonCon=     1 RMS=2.47D-06 Max=2.51D-05 NDo=     1
 LinEq1:  Iter=  5 NonCon=     1 RMS=6.72D-07 Max=4.69D-06 NDo=     1
 LinEq1:  Iter=  6 NonCon=     1 RMS=1.54D-07 Max=1.10D-06 NDo=     1
 LinEq1:  Iter=  7 NonCon=     1 RMS=3.41D-08 Max=2.45D-07 NDo=     1
 LinEq1:  Iter=  8 NonCon=     1 RMS=6.89D-09 Max=4.32D-08 NDo=     1
 LinEq1:  Iter=  9 NonCon=     0 RMS=2.00D-09 Max=1.40D-08 NDo=     1
 Linear equations converged to 2.610D-09 2.610D-08 after     9 iterations.
 Incorrect curvature in search direction -- initial direction reversed.
 LinEq1:  Iter=  0 NonCon=     1 RMS=7.83D-04 Max=6.22D-03 NDo=     1
 LinEq1:  Iter=  1 NonCon=     1 RMS=1.64D-04 Max=1.43D-03 NDo=     1
 LinEq1:  Iter=  2 NonCon=     1 RMS=4.00D-05 Max=3.92D-04 NDo=     1
 LinEq1:  Iter=  3 NonCon=     1 RMS=1.18D-05 Max=1.00D-04 NDo=     1
 LinEq1:  Iter=  4 NonCon=     1 RMS=2.89D-06 Max=3.03D-05 NDo=     1
 LinEq1:  Iter=  5 NonCon=     1 RMS=5.91D-07 Max=4.43D-06 NDo=     1
 LinEq1:  Iter=  6 NonCon=     1 RMS=1.21D-07 Max=1.02D-06 NDo=     1
 LinEq1:  Iter=  7 NonCon=     1 RMS=3.47D-08 Max=2.47D-07 NDo=     1
 LinEq1:  Iter=  8 NonCon=     1 RMS=8.36D-09 Max=6.08D-08 NDo=     1
 LinEq1:  Iter=  9 NonCon=     0 RMS=1.75D-09 Max=1.76D-08 NDo=     1
 Linear equations converged to 2.610D-09 2.610D-08 after     9 iterations.
 Incorrect curvature in search direction -- initial direction reversed.
 LinEq1:  Iter=  0 NonCon=     1 RMS=8.23D-04 Max=6.90D-03 NDo=     1
 LinEq1:  Iter=  1 NonCon=     1 RMS=1.74D-04 Max=1.50D-03 NDo=     1
 LinEq1:  Iter=  2 NonCon=     1 RMS=4.27D-05 Max=4.10D-04 NDo=     1
 LinEq1:  Iter=  3 NonCon=     1 RMS=1.24D-05 Max=8.87D-05 NDo=     1
 LinEq1:  Iter=  4 NonCon=     1 RMS=3.04D-06 Max=3.11D-05 NDo=     1
 LinEq1:  Iter=  5 NonCon=     1 RMS=5.75D-07 Max=4.21D-06 NDo=     1
 LinEq1:  Iter=  6 NonCon=     1 RMS=1.11D-07 Max=8.08D-07 NDo=     1
 LinEq1:  Iter=  7 NonCon=     1 RMS=3.29D-08 Max=2.52D-07 NDo=     1
 LinEq1:  Iter=  8 NonCon=     1 RMS=1.06D-08 Max=1.10D-07 NDo=     1
 LinEq1:  Iter=  9 NonCon=     0 RMS=2.07D-09 Max=2.11D-08 NDo=     1
 Linear equations converged to 2.610D-09 2.610D-08 after     9 iterations.
 Incorrect curvature in search direction -- initial direction reversed.
 LinEq1:  Iter=  0 NonCon=     1 RMS=7.83D-04 Max=9.00D-03 NDo=     1
 LinEq1:  Iter=  1 NonCon=     1 RMS=1.82D-04 Max=1.57D-03 NDo=     1
 LinEq1:  Iter=  2 NonCon=     1 RMS=4.37D-05 Max=5.34D-04 NDo=     1
 LinEq1:  Iter=  3 NonCon=     1 RMS=1.42D-05 Max=1.46D-04 NDo=     1
 LinEq1:  Iter=  4 NonCon=     1 RMS=3.53D-06 Max=4.91D-05 NDo=     1
 LinEq1:  Iter=  5 NonCon=     1 RMS=6.26D-07 Max=4.78D-06 NDo=     1
 LinEq1:  Iter=  6 NonCon=     1 RMS=1.39D-07 Max=7.85D-07 NDo=     1
 LinEq1:  Iter=  7 NonCon=     1 RMS=4.17D-08 Max=3.16D-07 NDo=     1
 LinEq1:  Iter=  8 NonCon=     1 RMS=9.24D-09 Max=5.58D-08 NDo=     1
 LinEq1:  Iter=  9 NonCon=     0 RMS=1.40D-09 Max=1.37D-08 NDo=     1
 Linear equations converged to 2.610D-09 2.610D-08 after     9 iterations.
 LinEq1:  Iter=  0 NonCon=     1 RMS=7.55D-04 Max=9.43D-03 NDo=     1
 LinEq1:  Iter=  1 NonCon=     1 RMS=1.53D-04 Max=1.57D-03 NDo=     1
 LinEq1:  Iter=  2 NonCon=     1 RMS=3.06D-05 Max=2.70D-04 NDo=     1
 LinEq1:  Iter=  3 NonCon=     1 RMS=7.45D-06 Max=7.23D-05 NDo=     1
 LinEq1:  Iter=  4 NonCon=     1 RMS=1.61D-06 Max=1.36D-05 NDo=     1
 LinEq1:  Iter=  5 NonCon=     1 RMS=3.37D-07 Max=2.79D-06 NDo=     1
 LinEq1:  Iter=  6 NonCon=     1 RMS=6.32D-08 Max=3.81D-07 NDo=     1
 LinEq1:  Iter=  7 NonCon=     1 RMS=1.37D-08 Max=1.41D-07 NDo=     1
 LinEq1:  Iter=  8 NonCon=     1 RMS=3.10D-09 Max=2.61D-08 NDo=     1
 LinEq1:  Iter=  9 NonCon=     0 RMS=7.49D-10 Max=5.51D-09 NDo=     1
 Linear equations converged to 2.610D-09 2.610D-08 after     9 iterations.
     Minimum is close to point  2 DX=  9.77D-02 DF= -4.73D-06 DXR=  8.90D-02 DFR=  7.99D-03 which will be used.
 LinEq1:  Iter=  0 NonCon=     1 RMS=4.77D-05 Max=6.61D-04 NDo=     1
 LinEq1:  Iter=  1 NonCon=     1 RMS=6.23D-06 Max=6.30D-05 NDo=     1
 LinEq1:  Iter=  2 NonCon=     1 RMS=1.27D-06 Max=1.07D-05 NDo=     1
 LinEq1:  Iter=  3 NonCon=     1 RMS=4.06D-07 Max=3.06D-06 NDo=     1
 LinEq1:  Iter=  4 NonCon=     1 RMS=8.41D-08 Max=7.37D-07 NDo=     1
 LinEq1:  Iter=  5 NonCon=     1 RMS=1.19D-08 Max=6.35D-08 NDo=     1
 LinEq1:  Iter=  6 NonCon=     1 RMS=3.24D-09 Max=3.16D-08 NDo=     1
 LinEq1:  Iter=  7 NonCon=     0 RMS=7.59D-10 Max=6.21D-09 NDo=     1
 Linear equations converged to 2.610D-09 2.610D-08 after     7 iterations.
     Minimum is close to point  2 DX=  1.70D-02 DF= -1.19D-09 DXR=  1.68D-02 DFR=  2.81D-04 which will be used.
 LinEq1:  Iter=  0 NonCon=     1 RMS=9.28D-07 Max=1.08D-05 NDo=     1
 LinEq1:  Iter=  1 NonCon=     1 RMS=2.79D-07 Max=1.88D-06 NDo=     1
 LinEq1:  Iter=  2 NonCon=     1 RMS=6.42D-08 Max=3.32D-07 NDo=     1
 LinEq1:  Iter=  3 NonCon=     1 RMS=1.24D-08 Max=7.75D-08 NDo=     1
 LinEq1:  Iter=  4 NonCon=     1 RMS=3.20D-09 Max=2.92D-08 NDo=     1
 LinEq1:  Iter=  5 NonCon=     1 RMS=6.10D-10 Max=6.13D-09 NDo=     1
 LinEq1:  Iter=  6 NonCon=     1 RMS=1.37D-10 Max=1.41D-09 NDo=     1
 LinEq1:  Iter=  7 NonCon=     0 RMS=2.41D-11 Max=2.14D-10 NDo=     1
 Linear equations converged to 1.213D-10 1.213D-09 after     7 iterations.
 SCF Done:  E(UAM1) =  0.342641913050     a.u. after    9 cycles
            Convg  =    0.1899D-06                    98 Fock formations.
              S**2 =  1.8719                  -V/T =  1.0031
 <Sx>= 0.0000 <Sy>= 0.0000 <Sz>= 0.5000 <S**2>= 1.8719 S= 0.9567
 <L.S>=  0.00000000000    
 Annihilation of the first spin contaminant:
 S**2 before annihilation     1.8719,   after     2.5334

 **********************************************************************

            Population analysis using the SCF Density.

 **********************************************************************

 Orbital symmetries:
 Alpha Orbitals:
       Occupied  (A') (A') (A') (A') (A') (A') (A') (A') (A') (A')
                 (A') (A") (A') (A") (A") (A') (A') (A') (A') (A")
                 (A') (A') (A") (A")
       Virtual   (A') (A") (A") (A') (A') (A') (A') (A") (A') (A')
                 (A') (A') (A') (A')
 Beta  Orbitals:
       Occupied  (A') (A') (A') (A') (A') (A') (A') (A') (A') (A')
                 (A') (A") (A') (A") (A") (A') (A') (A') (A") (A')
                 (A') (A") (A")
       Virtual   (A') (A") (A') (A') (A") (A') (A') (A') (A") (A')
                 (A') (A') (A') (A') (A')
 The electronic state is 2-A'.
 Alpha  occ. eigenvalues --   -1.44622  -1.38798  -1.37801  -1.36035  -1.13985
 Alpha  occ. eigenvalues --   -1.12379  -0.85928  -0.84007  -0.64443  -0.62492
 Alpha  occ. eigenvalues --   -0.60982  -0.55788  -0.54867  -0.49750  -0.47220
 Alpha  occ. eigenvalues --   -0.46761  -0.46116  -0.45777  -0.44450  -0.43918
 Alpha  occ. eigenvalues --   -0.43407  -0.39903  -0.39149  -0.37247
 Alpha virt. eigenvalues --   -0.01086  -0.00779   0.00283   0.01108   0.01843
 Alpha virt. eigenvalues --    0.03302   0.04577   0.07467   0.12721   0.12983
 Alpha virt. eigenvalues --    0.14873   0.15126   0.16380   0.17952
  Beta  occ. eigenvalues --   -1.44081  -1.38771  -1.37750  -1.35761  -1.13477
  Beta  occ. eigenvalues --   -1.11074  -0.85270  -0.81986  -0.64760  -0.62046
  Beta  occ. eigenvalues --   -0.59871  -0.55625  -0.53893  -0.50215  -0.47445
  Beta  occ. eigenvalues --   -0.46776  -0.45387  -0.44267  -0.43844  -0.43376
  Beta  occ. eigenvalues --   -0.42129  -0.37972  -0.37109
  Beta virt. eigenvalues --   -0.03844  -0.00411   0.00296   0.00847   0.01719
  Beta virt. eigenvalues --    0.02219   0.03379   0.04466   0.08169   0.13179
  Beta virt. eigenvalues --    0.13551   0.15412   0.16568   0.16962   0.18367
          Condensed to atoms (all electrons):
               1          2          3          4          5          6
     1  C    4.044023   0.000000   0.000000   0.000000   0.000000   0.000000
     2  C    0.000000   4.128068   0.000000   0.000000   0.000000   0.000000
     3  C    0.000000   0.000000   4.122767   0.000000   0.000000   0.000000
     4  C    0.000000   0.000000   0.000000   4.033320   0.000000   0.000000
     5  C    0.000000   0.000000   0.000000   0.000000   4.049112   0.000000
     6  C    0.000000   0.000000   0.000000   0.000000   0.000000   3.989435
     7  Cl   0.000000   0.000000   0.000000   0.000000   0.000000   0.000000
     8  Cl   0.000000   0.000000   0.000000   0.000000   0.000000   0.000000
     9  Cl   0.000000   0.000000   0.000000   0.000000   0.000000   0.000000
    10  H    0.000000   0.000000   0.000000   0.000000   0.000000   0.000000
    11  H    0.000000   0.000000   0.000000   0.000000   0.000000   0.000000
               7          8          9         10         11
     1  C    0.000000   0.000000   0.000000   0.000000   0.000000
     2  C    0.000000   0.000000   0.000000   0.000000   0.000000
     3  C    0.000000   0.000000   0.000000   0.000000   0.000000
     4  C    0.000000   0.000000   0.000000   0.000000   0.000000
     5  C    0.000000   0.000000   0.000000   0.000000   0.000000
     6  C    0.000000   0.000000   0.000000   0.000000   0.000000
     7  Cl   7.010194   0.000000   0.000000   0.000000   0.000000
     8  Cl   0.000000   7.003411   0.000000   0.000000   0.000000
     9  Cl   0.000000   0.000000   6.991146   0.000000   0.000000
    10  H    0.000000   0.000000   0.000000   0.806152   0.000000
    11  H    0.000000   0.000000   0.000000   0.000000   0.822372
          Atomic-Atomic Spin Densities.
               1          2          3          4          5          6
     1  C   -0.572095   0.000000   0.000000   0.000000   0.000000   0.000000
     2  C    0.000000   0.949565   0.000000   0.000000   0.000000   0.000000
     3  C    0.000000   0.000000  -0.970149   0.000000   0.000000   0.000000
     4  C    0.000000   0.000000   0.000000   0.571805   0.000000   0.000000
     5  C    0.000000   0.000000   0.000000   0.000000  -0.563529   0.000000
     6  C    0.000000   0.000000   0.000000   0.000000   0.000000   1.501683
     7  Cl   0.000000   0.000000   0.000000   0.000000   0.000000   0.000000
     8  Cl   0.000000   0.000000   0.000000   0.000000   0.000000   0.000000
     9  Cl   0.000000   0.000000   0.000000   0.000000   0.000000   0.000000
    10  H    0.000000   0.000000   0.000000   0.000000   0.000000   0.000000
    11  H    0.000000   0.000000   0.000000   0.000000   0.000000   0.000000
               7          8          9         10         11
     1  C    0.000000   0.000000   0.000000   0.000000   0.000000
     2  C    0.000000   0.000000   0.000000   0.000000   0.000000
     3  C    0.000000   0.000000   0.000000   0.000000   0.000000
     4  C    0.000000   0.000000   0.000000   0.000000   0.000000
     5  C    0.000000   0.000000   0.000000   0.000000   0.000000
     6  C    0.000000   0.000000   0.000000   0.000000   0.000000
     7  Cl   0.010555   0.000000   0.000000   0.000000   0.000000
     8  Cl   0.000000   0.005035   0.000000   0.000000   0.000000
     9  Cl   0.000000   0.000000   0.008960   0.000000   0.000000
    10  H    0.000000   0.000000   0.000000  -0.400253   0.000000
    11  H    0.000000   0.000000   0.000000   0.000000   0.458424
 Mulliken charges and spin densities:
               1          2
     1  C   -0.044023  -0.572095
     2  C   -0.128068   0.949565
     3  C   -0.122767  -0.970149
     4  C   -0.033320   0.571805
     5  C   -0.049112  -0.563529
     6  C    0.010565   1.501683
     7  Cl  -0.010194   0.010555
     8  Cl  -0.003411   0.005035
     9  Cl   0.008854   0.008960
    10  H    0.193848  -0.400253
    11  H    0.177628   0.458424
 Sum of Mulliken charges =  -0.00000   1.00000
 Mulliken charges and spin densities with hydrogens summed into heavy atoms:
               1          2
     1  C   -0.044023  -0.572095
     2  C    0.065779   0.549311
     3  C    0.054861  -0.511725
     4  C   -0.033320   0.571805
     5  C   -0.049112  -0.563529
     6  C    0.010565   1.501683
     7  Cl  -0.010194   0.010555
     8  Cl  -0.003411   0.005035
     9  Cl   0.008854   0.008960
 Charge=             -0.0000 electrons
 Dipole moment (field-independent basis, Debye):
    X=              3.1468    Y=              0.0599    Z=              0.0000  Tot=              3.1474
 N-N= 2.388629852235D+02 E-N=-3.310879399546D+02  KE=-1.117656576703D+02
 Symmetry A'   KE=-8.578483144124D+01
 Symmetry A"   KE=-2.598082622902D+01
 Symmetry A'   SP= 1.000000000000D+00
 Symmetry A"   SP= 2.220446049250D-16
 Calling FoFJK, ICntrl=      2127 FMM=F ISym2X=1 I1Cent= 0 IOpClX= 1 NMat=1 NMatS=1 NMatT=0.
 ***** Axes restored to original set *****
 -------------------------------------------------------------------
 Center     Atomic                   Forces (Hartrees/Bohr)
 Number     Number              X              Y              Z
 -------------------------------------------------------------------
      1        6          -0.037375196    0.011302703    0.000000000
      2        6           0.019906998    0.062870956    0.000000000
      3        6           0.038554557    0.047103013    0.000000000
      4        6           0.037705878    0.003158741    0.000000000
      5        6          -0.025486239   -0.043102760    0.000000000
      6        6           0.050013431    0.030166035    0.000000000
      7       17           0.035381068   -0.018927107   -0.000000000
      8       17          -0.034142412    0.020983624    0.000000000
      9       17          -0.003730437    0.040342725    0.000000000
     10        1           0.001823320   -0.102294687   -0.000000000
     11        1          -0.082650967   -0.051603244   -0.000000000
 -------------------------------------------------------------------
 Cartesian Forces:  Max     0.102294687 RMS     0.035568295

 GradGradGradGradGradGradGradGradGradGradGradGradGradGradGradGradGradGrad
 Berny optimization.
 FormGI is forming the generalized inverse of G from B-inverse, IUseBI=4.
 Internal  Forces:  Max     0.102306180 RMS     0.025575497
 Search for a local minimum.
 Step number   1 out of a maximum of   57
 All quantities printed in internal units (Hartrees-Bohrs-Radians)
 Mixed Optimization -- RFO/linear search
 Second derivative matrix not updated -- first step.
 ITU=  0
     Eigenvalues ---    0.02011   0.02011   0.02011   0.02011   0.02011
     Eigenvalues ---    0.02011   0.02011   0.02011   0.06524   0.06524
     Eigenvalues ---    0.16000   0.16000   0.22472   0.24476   0.25000
     Eigenvalues ---    0.25000   0.25000   0.25000   0.29033   0.29033
     Eigenvalues ---    0.29034   0.41073   0.41424   0.44656   0.44657
     Eigenvalues ---    0.44657   0.44657
 RFO step:  Lambda=-1.27146252D-01 EMin= 2.01065650D-02
 Linear search not attempted -- first point.
 Maximum step size (   0.300) exceeded in Quadratic search.
    -- Step size scaled by   0.390
 Iteration  1 RMS(Cart)=  0.04601954 RMS(Int)=  0.00108872
 Iteration  2 RMS(Cart)=  0.00105076 RMS(Int)=  0.00001069
 Iteration  3 RMS(Cart)=  0.00000012 RMS(Int)=  0.00001069
 ClnCor:  largest displacement from symmetrization is 3.32D-09 for atom    11.
 Variable       Old X    -DE/DX   Delta X   Delta X   Delta X     New X
                                 (Linear)    (Quad)   (Total)
    R1        2.65676  -0.02413   0.00000  -0.01689  -0.01689   2.63987
    R2        2.65677  -0.02989   0.00000  -0.02047  -0.02045   2.63632
    R3        3.33635  -0.04013   0.00000  -0.03749  -0.03749   3.29886
    R4        2.65677  -0.03969   0.00000  -0.02733  -0.02734   2.62943
    R5        3.33634  -0.10231   0.00000  -0.20744  -0.20744   3.12890
    R6        2.65677  -0.02097   0.00000  -0.01412  -0.01413   2.64264
    R7        3.33633  -0.09744   0.00000  -0.19756  -0.19756   3.13877
    R8        2.65678  -0.00225   0.00000  -0.00104  -0.00105   2.65573
    R9        3.33633  -0.04001   0.00000  -0.03739  -0.03739   3.29894
   R10        2.65675  -0.02969   0.00000  -0.01985  -0.01983   2.63692
   R11        3.33632  -0.04043   0.00000  -0.03778  -0.03778   3.29855
    A1        2.09439  -0.01478   0.00000  -0.01647  -0.01645   2.07794
    A2        2.09439   0.00706   0.00000   0.00789   0.00788   2.10228
    A3        2.09440   0.00772   0.00000   0.00857   0.00857   2.10296
    A4        2.09439   0.00532   0.00000   0.00436   0.00435   2.09874
    A5        2.09440  -0.00430   0.00000  -0.00442  -0.00441   2.08999
    A6        2.09439  -0.00101   0.00000   0.00005   0.00006   2.09445
    A7        2.09440   0.00940   0.00000   0.01001   0.00998   2.10438
    A8        2.09440  -0.00355   0.00000  -0.00345  -0.00343   2.09096
    A9        2.09439  -0.00585   0.00000  -0.00657  -0.00655   2.08784
   A10        2.09439  -0.00749   0.00000  -0.00697  -0.00699   2.08740
   A11        2.09440   0.00008   0.00000  -0.00031  -0.00030   2.09410
   A12        2.09440   0.00742   0.00000   0.00728   0.00729   2.10169
   A13        2.09439  -0.01559   0.00000  -0.01503  -0.01503   2.07937
   A14        2.09439   0.01217   0.00000   0.01204   0.01204   2.10642
   A15        2.09440   0.00342   0.00000   0.00299   0.00299   2.09739
   A16        2.09440   0.02314   0.00000   0.02409   0.02413   2.11853
    D1        0.00000  -0.00000   0.00000  -0.00000   0.00000   0.00000
    D2        3.14159  -0.00000   0.00000  -0.00000   0.00000   3.14159
    D3        3.14159   0.00000   0.00000   0.00000   0.00000   3.14159
    D4        0.00000  -0.00000   0.00000  -0.00000   0.00000   0.00000
    D5        0.00000   0.00000   0.00000   0.00000   0.00000   0.00000
    D6        3.14159  -0.00000   0.00000  -0.00000   0.00000   3.14159
    D7        0.00000   0.00000   0.00000  -0.00000   0.00000   0.00000
    D8        3.14159  -0.00000   0.00000  -0.00000   0.00000   3.14159
    D9        3.14159   0.00000   0.00000   0.00000   0.00000   3.14159
   D10        0.00000   0.00000   0.00000   0.00000   0.00000   0.00000
   D11        0.00000   0.00000   0.00000   0.00000   0.00000   0.00000
   D12        3.14159   0.00000   0.00000   0.00000   0.00000   3.14159
   D13        3.14159   0.00000   0.00000   0.00000   0.00000   3.14159
   D14        0.00000   0.00000   0.00000   0.00000   0.00000   0.00000
   D15        0.00000  -0.00000   0.00000  -0.00000   0.00000   0.00000
   D16        3.14159  -0.00000   0.00000  -0.00000   0.00000   3.14159
   D17        3.14159  -0.00000   0.00000  -0.00000   0.00000   3.14159
   D18        0.00000  -0.00000   0.00000  -0.00000   0.00000   0.00000
   D19        0.00000   0.00000   0.00000   0.00000   0.00000   0.00000
   D20        3.14159   0.00000   0.00000   0.00000   0.00000   3.14159
         Item               Value     Threshold  Converged?
 Maximum Force            0.102306     0.000450     NO 
 RMS     Force            0.025575     0.000300     NO 
 Maximum Displacement     0.202395     0.001800     NO 
 RMS     Displacement     0.046704     0.001200     NO 
 Predicted change in Energy=-4.564568D-02
 GradGradGradGradGradGradGradGradGradGradGradGradGradGradGradGradGradGrad

                          Input orientation:                          
 ---------------------------------------------------------------------
 Center     Atomic      Atomic             Coordinates (Angstroms)
 Number     Number       Type             X           Y           Z
 ---------------------------------------------------------------------
      1          6           0       -3.196002    0.214129    0.000000
      2          6           0       -2.001275    0.938096    0.000000
      3          6           0       -0.778880    0.273387    0.000000
      4          6           0       -0.729202   -1.124153    0.000000
      5          6           0       -1.925728   -1.861270    0.000000
      6          6           0       -3.143492   -1.179961    0.000000
      7         17           0       -4.732545    1.042642    0.000000
      8         17           0        0.812938   -1.942299    0.000000
      9         17           0       -1.896914   -3.606548    0.000000
     10          1           0       -2.043666    2.593297    0.000000
     11          1           0        0.634894    1.145198    0.000000
 ---------------------------------------------------------------------
                    Distance matrix (angstroms):
                    1          2          3          4          5
     1  C    0.000000
     2  C    1.396961   0.000000
     3  C    2.417848   1.391434   0.000000
     4  C    2.806439   2.423023   1.398422   0.000000
     5  C    2.433285   2.800386   2.423226   1.405353   0.000000
     6  C    1.395079   2.406413   2.775538   2.414935   1.395396
     7  Cl   1.745680   2.733270   4.027806   4.552115   4.038679
     8  Cl   4.552118   4.026968   2.728213   1.745726   2.739865
     9  Cl   4.035493   4.545842   4.037808   2.743326   1.745516
    10  H    2.643543   1.655744   2.642285   3.943000   4.456129
    11  H    3.942417   2.644292   1.660967   2.647774   3.949131
                    6          7          8          9         10
     6  C    0.000000
     7  Cl   2.732225   0.000000
     8  Cl   4.029206   6.297798   0.000000
     9  Cl   2.728055   5.445711   3.180098   0.000000
    10  H    3.930279   3.103965   5.360207   6.201582   0.000000
    11  H    4.436503   5.368419   3.092626   5.384156   3.044943
                   11
    11  H    0.000000
 Stoichiometry    C6H2Cl3(2)
 Framework group  CS[SG(C6H2Cl3)]
 Deg. of freedom    19
 Full point group                 CS      NOp   2
 Largest Abelian subgroup         CS      NOp   2
 Largest concise Abelian subgroup C1      NOp   1
                         Standard orientation:                         
 ---------------------------------------------------------------------
 Center     Atomic      Atomic             Coordinates (Angstroms)
 Number     Number       Type             X           Y           Z
 ---------------------------------------------------------------------
      1          6           0       -1.282558    1.209979    0.000000
      2          6           0       -0.092145    1.941018    0.000000
      3          6           0        1.134171    1.283569    0.000000
      4          6           0        1.192135   -0.113652    0.000000
      5          6           0        0.000000   -0.857851    0.000000
      6          6           0       -1.221782   -0.183775    0.000000
      7         17           0       -2.823987    2.029366    0.000000
      8         17           0        2.739099   -0.922639    0.000000
      9         17           0        0.039163   -2.602928    0.000000
     10          1           0       -0.144350    3.595938    0.000000
     11          1           0        2.542750    2.163747    0.000000
 ---------------------------------------------------------------------
 Rotational constants (GHZ):           1.8356398           0.5857240           0.4440383
 Standard basis: VSTO-6G (5D, 7F)
 There are    29 symmetry adapted cartesian basis functions of A'  symmetry.
 There are     9 symmetry adapted cartesian basis functions of A"  symmetry.
 There are    29 symmetry adapted basis functions of A'  symmetry.
 There are     9 symmetry adapted basis functions of A"  symmetry.
    38 basis functions,   228 primitive gaussians,    38 cartesian basis functions
    24 alpha electrons       23 beta electrons
       nuclear repulsion energy       240.1626382509 Hartrees.
 Integral buffers will be    131072 words long.
 Regular integral format.
 Two-electron integral symmetry is turned off.
 Do NDO integrals.
 One-electron integrals computed using PRISM.
 NBasis=    38 RedAO= T EigKep=  1.00D+00  NBF=    29     9
 NBsUse=    38 1.00D-06 EigRej= -1.00D+00 NBFU=    29     9
 Initial guess from the checkpoint file:  "geometry_chks/_234ClBzNeutralRadical.chk"
 B after Tr=     0.000000   -0.000000    0.000000
         Rot=    0.857634   -0.000000   -0.000000   -0.514260 Ang= -61.90 deg.
 Initial guess orbital symmetries:
 Alpha Orbitals:
       Occupied  (A') (A') (A') (A') (A') (A') (A') (A') (A') (A')
                 (A') (A") (A') (A") (A") (A') (A') (A') (A') (A")
                 (A') (A') (A") (A")
       Virtual   (A') (A") (A") (A') (A') (A') (A') (A") (A') (A')
                 (A') (A') (A') (A')
 Beta  Orbitals:
       Occupied  (A') (A') (A') (A') (A') (A') (A') (A') (A') (A')
                 (A') (A") (A') (A") (A") (A') (A') (A') (A") (A')
                 (A') (A") (A")
       Virtual   (A') (A") (A') (A') (A") (A') (A') (A') (A") (A')
                 (A') (A') (A') (A') (A')
 Initial guess <Sx>= 0.0000 <Sy>= 0.0000 <Sz>= 0.5000 <S**2>= 1.8719 S= 0.9567
 Keep J ints in memory in canonical form, NReq=863588.
 Overlap will be assumed to be unity.
 Requested convergence on RMS density matrix=1.00D-08 within  32 cycles.
 Requested convergence on MAX density matrix=1.00D-06.
 Requested convergence on             energy=1.00D-06.
 No special actions if energy rises.
 Fock symm off for IB=2 I1=    1 I=   30 J=   16 Cut=1.00D-07 Err=4.25D-03
 Fock matrix is not symmetric: symmetry in diagonalization turned off.
 SCF Done:  E(UAM1) =  0.289707766981     A.U. after   20 cycles
            NFock= 19  Conv=0.98D-08     -V/T= 1.0026
 <Sx>= 0.0000 <Sy>= 0.0000 <Sz>= 0.5000 <S**2>= 1.3870 S= 0.7795
 <L.S>=  0.00000000000    
 Annihilation of the first spin contaminant:
 S**2 before annihilation     1.3870,   after     1.1688
 QCSCF skips out because SCF is already converged.
 Calling FoFJK, ICntrl=      2127 FMM=F ISym2X=1 I1Cent= 0 IOpClX= 1 NMat=1 NMatS=1 NMatT=0.
 ***** Axes restored to original set *****
 -------------------------------------------------------------------
 Center     Atomic                   Forces (Hartrees/Bohr)
 Number     Number              X              Y              Z
 -------------------------------------------------------------------
      1        6          -0.038163094    0.009766981    0.000000000
      2        6           0.014121336    0.098707101   -0.000000000
      3        6           0.073849410    0.061192472   -0.000000000
      4        6           0.032496217   -0.000958869   -0.000000000
      5        6          -0.020487871   -0.039677362    0.000000000
      6        6           0.037550479    0.021405694    0.000000000
      7       17           0.026912597   -0.014440363    0.000000000
      8       17          -0.026117848    0.015561246    0.000000000
      9       17          -0.002435568    0.031248595    0.000000000
     10        1           0.002091000   -0.120285385    0.000000000
     11        1          -0.099816659   -0.062520110    0.000000000
 -------------------------------------------------------------------
 Cartesian Forces:  Max     0.120285385 RMS     0.041486169

 GradGradGradGradGradGradGradGradGradGradGradGradGradGradGradGradGradGrad
 Berny optimization.
 Using GEDIIS/GDIIS optimizer.
 FormGI is forming the generalized inverse of G from B-inverse, IUseBI=4.
 Internal  Forces:  Max     0.120299491 RMS     0.026726004
 Search for a local minimum.
 Step number   2 out of a maximum of   57
 All quantities printed in internal units (Hartrees-Bohrs-Radians)
 Mixed Optimization -- RFO/linear search
 Update second derivatives using D2CorX and points    1    2
 DE= -5.29D-02 DEPred=-4.56D-02 R= 1.16D+00
 TightC=F SS=  1.41D+00  RLast= 3.00D-01 DXNew= 5.0454D-01 9.0000D-01
 Trust test= 1.16D+00 RLast= 3.00D-01 DXMaxT set to 5.05D-01
 ITU=  1  0
 Use linear search instead of GDIIS.
     Eigenvalues ---   -0.19551   0.02011   0.02011   0.02011   0.02011
     Eigenvalues ---    0.02011   0.02011   0.02011   0.02011   0.06172
     Eigenvalues ---    0.07997   0.15999   0.16005   0.22489   0.24630
     Eigenvalues ---    0.24983   0.25000   0.25000   0.25460   0.29032
     Eigenvalues ---    0.29033   0.35311   0.41311   0.41460   0.44579
     Eigenvalues ---    0.44656   0.44657
 RFO step:  Lambda=-2.62100534D-01 EMin=-1.95508753D-01
 Skip linear search -- no minimum in search direction.
 Maximum step size (   0.505) exceeded in Quadratic search.
    -- Step size scaled by   0.465
 Iteration  1 RMS(Cart)=  0.03378859 RMS(Int)=  0.03134628
 Iteration  2 RMS(Cart)=  0.02914857 RMS(Int)=  0.00001646
 Iteration  3 RMS(Cart)=  0.00000865 RMS(Int)=  0.00001576
 Iteration  4 RMS(Cart)=  0.00000000 RMS(Int)=  0.00001576
 ClnCor:  largest displacement from symmetrization is 5.41D-09 for atom    10.
 Variable       Old X    -DE/DX   Delta X   Delta X   Delta X     New X
                                 (Linear)    (Quad)   (Total)
    R1        2.63987  -0.00999   0.00000   0.04111   0.04114   2.68101
    R2        2.63632  -0.01763   0.00000   0.02535   0.02536   2.66168
    R3        3.29886  -0.03054   0.00000   0.00323   0.00323   3.30209
    R4        2.62943  -0.02116   0.00000   0.04531   0.04532   2.67475
    R5        3.12890  -0.12030   0.00000  -0.34576  -0.34576   2.78314
    R6        2.64264  -0.00915   0.00000   0.03341   0.03340   2.67604
    R7        3.13877  -0.11778   0.00000  -0.35784  -0.35784   2.78093
    R8        2.65573   0.00283   0.00000   0.02114   0.02111   2.67685
    R9        3.29894  -0.03036   0.00000   0.00377   0.00377   3.30271
   R10        2.63692  -0.01834   0.00000   0.02087   0.02086   2.65777
   R11        3.29855  -0.03128   0.00000   0.00025   0.00025   3.29880
    A1        2.07794  -0.01308   0.00000  -0.00965  -0.00961   2.06833
    A2        2.10228   0.00644   0.00000   0.00578   0.00576   2.10804
    A3        2.10296   0.00664   0.00000   0.00387   0.00385   2.10681
    A4        2.09874   0.00313   0.00000  -0.00489  -0.00484   2.09390
    A5        2.08999  -0.00311   0.00000   0.00052   0.00050   2.09049
    A6        2.09445  -0.00002   0.00000   0.00437   0.00434   2.09880
    A7        2.10438   0.00706   0.00000  -0.00023  -0.00022   2.10416
    A8        2.09096  -0.00224   0.00000   0.00301   0.00301   2.09397
    A9        2.08784  -0.00482   0.00000  -0.00279  -0.00279   2.08505
   A10        2.08740  -0.00535   0.00000   0.00277   0.00274   2.09014
   A11        2.09410   0.00019   0.00000   0.00091   0.00093   2.09503
   A12        2.10169   0.00516   0.00000  -0.00368  -0.00367   2.09802
   A13        2.07937  -0.01267   0.00000  -0.00492  -0.00496   2.07440
   A14        2.10642   0.00950   0.00000   0.00102   0.00104   2.10747
   A15        2.09739   0.00317   0.00000   0.00390   0.00392   2.10131
   A16        2.11853   0.02091   0.00000   0.01691   0.01690   2.13543
    D1        0.00000  -0.00000   0.00000  -0.00000   0.00000   0.00000
    D2        3.14159   0.00000   0.00000   0.00000   0.00000   3.14159
    D3        3.14159  -0.00000   0.00000  -0.00000   0.00000   3.14159
    D4        0.00000   0.00000   0.00000   0.00000   0.00000   0.00000
    D5        0.00000  -0.00000   0.00000  -0.00000   0.00000   0.00000
    D6        3.14159   0.00000   0.00000   0.00000   0.00000   3.14159
    D7        0.00000   0.00000   0.00000   0.00000   0.00000   0.00000
    D8        3.14159   0.00000   0.00000   0.00000   0.00000   3.14159
    D9        3.14159  -0.00000   0.00000  -0.00000   0.00000   3.14159
   D10        0.00000   0.00000   0.00000   0.00000   0.00000   0.00000
   D11        0.00000  -0.00000   0.00000  -0.00000   0.00000   0.00000
   D12        3.14159   0.00000   0.00000   0.00000   0.00000   3.14159
   D13        3.14159  -0.00000   0.00000  -0.00000   0.00000   3.14159
   D14        0.00000  -0.00000   0.00000  -0.00000   0.00000   0.00000
   D15        0.00000   0.00000   0.00000   0.00000   0.00000   0.00000
   D16        3.14159   0.00000   0.00000   0.00000   0.00000   3.14159
   D17        3.14159  -0.00000   0.00000  -0.00000   0.00000   3.14159
   D18        0.00000  -0.00000   0.00000  -0.00000   0.00000   0.00000
   D19        0.00000   0.00000   0.00000   0.00000   0.00000   0.00000
   D20        3.14159  -0.00000   0.00000  -0.00000   0.00000   3.14159
         Item               Value     Threshold  Converged?
 Maximum Force            0.120299     0.000450     NO 
 RMS     Force            0.026726     0.000300     NO 
 Maximum Displacement     0.253537     0.001800     NO 
 RMS     Displacement     0.061040     0.001200     NO 
 Predicted change in Energy=-1.013902D-01
 GradGradGradGradGradGradGradGradGradGradGradGradGradGradGradGradGradGrad

                          Input orientation:                          
 ---------------------------------------------------------------------
 Center     Atomic      Atomic             Coordinates (Angstroms)
 Number     Number       Type             X           Y           Z
 ---------------------------------------------------------------------
      1          6           0       -3.201766    0.250186    0.000000
      2          6           0       -1.989288    0.986864    0.000000
      3          6           0       -0.748310    0.306144    0.000000
      4          6           0       -0.703497   -1.109244    0.000000
      5          6           0       -1.910386   -1.850843    0.000000
      6          6           0       -3.133564   -1.156661    0.000000
      7         17           0       -4.745535    1.068811    0.000000
      8         17           0        0.836448   -1.935740    0.000000
      9         17           0       -1.885388   -3.596312    0.000000
     10          1           0       -2.027995    2.459131    0.000000
     11          1           0        0.509413    1.070184    0.000000
 ---------------------------------------------------------------------
                    Distance matrix (angstroms):
                    1          2          3          4          5
     1  C    0.000000
     2  C    1.418731   0.000000
     3  C    2.454095   1.415418   0.000000
     4  C    2.844187   2.459050   1.416097   0.000000
     5  C    2.466168   2.838803   2.450104   1.416527   0.000000
     6  C    1.408499   2.429829   2.798078   2.430530   1.406433
     7  Cl   1.747389   2.757464   4.069333   4.591513   4.069699
     8  Cl   4.591889   4.065267   2.745451   1.747720   2.748145
     9  Cl   4.065513   4.584353   4.064740   2.753611   1.745648
    10  H    2.501436   1.472776   2.504586   3.806258   4.311578
    11  H    3.800690   2.500090   1.471606   2.494205   3.793128
                    6          7          8          9         10
     6  C    0.000000
     7  Cl   2.747940   0.000000
     8  Cl   4.045734   6.339232   0.000000
     9  Cl   2.740408   5.472094   3.188400   0.000000
    10  H    3.781037   3.052542   5.245944   6.057122   0.000000
    11  H    4.269675   5.254948   3.023662   5.245118   2.892683
                   11
    11  H    0.000000
 Stoichiometry    C6H2Cl3(2)
 Framework group  CS[SG(C6H2Cl3)]
 Deg. of freedom    19
 Full point group                 CS      NOp   2
 Largest Abelian subgroup         CS      NOp   2
 Largest concise Abelian subgroup C1      NOp   1
                         Standard orientation:                         
 ---------------------------------------------------------------------
 Center     Atomic      Atomic             Coordinates (Angstroms)
 Number     Number       Type             X           Y           Z
 ---------------------------------------------------------------------
      1          6           0       -1.288069    1.238589    0.000000
      2          6           0       -0.074432    1.973356    0.000000
      3          6           0        1.165473    1.290681    0.000000
      4          6           0        1.208055   -0.124776    0.000000
      5          6           0        0.000000   -0.864472    0.000000
      6          6           0       -1.222083   -0.168364    0.000000
      7         17           0       -2.830546    2.059645    0.000000
      8         17           0        2.746696   -0.953697    0.000000
      9         17           0        0.022247   -2.609978    0.000000
     10          1           0       -0.110819    3.445682    0.000000
     11          1           0        2.424397    2.052739    0.000000
 ---------------------------------------------------------------------
 Rotational constants (GHZ):           1.8277603           0.5782086           0.4392520
 Standard basis: VSTO-6G (5D, 7F)
 There are    29 symmetry adapted cartesian basis functions of A'  symmetry.
 There are     9 symmetry adapted cartesian basis functions of A"  symmetry.
 There are    29 symmetry adapted basis functions of A'  symmetry.
 There are     9 symmetry adapted basis functions of A"  symmetry.
    38 basis functions,   228 primitive gaussians,    38 cartesian basis functions
    24 alpha electrons       23 beta electrons
       nuclear repulsion energy       239.7551470956 Hartrees.
 Integral buffers will be    131072 words long.
 Regular integral format.
 Two-electron integral symmetry is turned off.
 Do NDO integrals.
 One-electron integrals computed using PRISM.
 NBasis=    38 RedAO= T EigKep=  1.00D+00  NBF=    29     9
 NBsUse=    38 1.00D-06 EigRej= -1.00D+00 NBFU=    29     9
 Initial guess from the checkpoint file:  "geometry_chks/_234ClBzNeutralRadical.chk"
 B after Tr=    -0.000000    0.000000    0.000000
         Rot=    0.999993    0.000000    0.000000    0.003691 Ang=   0.42 deg.
 Initial guess orbital symmetries:
 Alpha Orbitals:
       Occupied  (A') (A') (A') (A') (A') (A') (A') (A') (A') (A')
                 (A') (A") (A') (A") (A") (A') (A') (A') (A') (A")
                 (A') (A') (A") (A")
       Virtual   (A") (A") (A') (A') (A') (A') (A') (A") (A') (A')
                 (A') (A') (A') (A')
 Beta  Orbitals:
       Occupied  (A') (A') (A') (A') (A') (A') (A') (A') (A') (A')
                 (A') (A") (A') (A") (A") (A') (A') (A') (A") (A')
                 (A') (A") (A")
       Virtual   (A') (A") (A') (A') (A") (A') (A') (A') (A") (A')
                 (A') (A') (A') (A') (A')
 Initial guess <Sx>= 0.0000 <Sy>= 0.0000 <Sz>= 0.5000 <S**2>= 1.3870 S= 0.7795
 Keep J ints in memory in canonical form, NReq=863588.
 Overlap will be assumed to be unity.
 Requested convergence on RMS density matrix=1.00D-08 within  32 cycles.
 Requested convergence on MAX density matrix=1.00D-06.
 Requested convergence on             energy=1.00D-06.
 No special actions if energy rises.
 Fock symm off for IB=2 I1=    1 I=   30 J=    6 Cut=1.00D-07 Err=3.46D-03
 Fock matrix is not symmetric: symmetry in diagonalization turned off.
 SCF Done:  E(UAM1) =  0.209116293284     A.U. after   18 cycles
            NFock= 17  Conv=0.91D-08     -V/T= 1.0019
 <Sx>= 0.0000 <Sy>= 0.0000 <Sz>= 0.5000 <S**2>= 1.3927 S= 0.7817
 <L.S>=  0.00000000000    
 Annihilation of the first spin contaminant:
 S**2 before annihilation     1.3927,   after     1.1324
 QCSCF skips out because SCF is already converged.
 Calling FoFJK, ICntrl=      2127 FMM=F ISym2X=1 I1Cent= 0 IOpClX= 1 NMat=1 NMatS=1 NMatT=0.
 ***** Axes restored to original set *****
 -------------------------------------------------------------------
 Center     Atomic                   Forces (Hartrees/Bohr)
 Number     Number              X              Y              Z
 -------------------------------------------------------------------
      1        6          -0.015653348    0.000938860    0.000000000
      2        6           0.011622350    0.075729647    0.000000000
      3        6           0.058100237    0.051862405    0.000000000
      4        6           0.017195143    0.008156951    0.000000000
      5        6          -0.019640701   -0.022974472    0.000000000
      6        6           0.045963844    0.030308574    0.000000000
      7       17           0.030830370   -0.016037451   -0.000000000
      8       17          -0.028433362    0.017332238   -0.000000000
      9       17          -0.002520654    0.033495426   -0.000000000
     10        1           0.002589621   -0.117728748   -0.000000000
     11        1          -0.100053498   -0.061083430   -0.000000000
 -------------------------------------------------------------------
 Cartesian Forces:  Max     0.117728748 RMS     0.037956081

 GradGradGradGradGradGradGradGradGradGradGradGradGradGradGradGradGradGrad
 Berny optimization.
 Using GEDIIS/GDIIS optimizer.
 FormGI is forming the generalized inverse of G from B-inverse, IUseBI=4.
 Internal  Forces:  Max     0.117756142 RMS     0.028566468
 Search for a local minimum.
 Step number   3 out of a maximum of   57
 All quantities printed in internal units (Hartrees-Bohrs-Radians)
 Mixed Optimization -- RFO/linear search
 Update second derivatives using D2CorX and points    2    3
 DE= -8.06D-02 DEPred=-1.01D-01 R= 7.95D-01
 TightC=F SS=  1.41D+00  RLast= 5.05D-01 DXNew= 8.4853D-01 1.5136D+00
 Trust test= 7.95D-01 RLast= 5.05D-01 DXMaxT set to 8.49D-01
 ITU=  1  1  0
 Use linear search instead of GDIIS.
     Eigenvalues ---    0.00532   0.02011   0.02011   0.02011   0.02011
     Eigenvalues ---    0.02011   0.02011   0.02011   0.02011   0.06442
     Eigenvalues ---    0.15582   0.16001   0.16597   0.22523   0.24743
     Eigenvalues ---    0.25000   0.25000   0.25015   0.26909   0.29033
     Eigenvalues ---    0.29048   0.40607   0.41354   0.44008   0.44654
     Eigenvalues ---    0.44657   0.76581
 RFO step:  Lambda=-1.77600915D-01 EMin= 5.31855255D-03
 Skip linear search -- no minimum in search direction.
 Maximum step size (   0.849) exceeded in Quadratic search.
    -- Step size scaled by   0.886
 Iteration  1 RMS(Cart)=  0.06377951 RMS(Int)=  0.07693869
 Iteration  2 RMS(Cart)=  0.03833507 RMS(Int)=  0.03569514
 Iteration  3 RMS(Cart)=  0.03316183 RMS(Int)=  0.00014648
 Iteration  4 RMS(Cart)=  0.00001193 RMS(Int)=  0.00014617
 Iteration  5 RMS(Cart)=  0.00000000 RMS(Int)=  0.00014617
 ClnCor:  largest displacement from symmetrization is 7.07D-09 for atom     3.
 Variable       Old X    -DE/DX   Delta X   Delta X   Delta X     New X
                                 (Linear)    (Quad)   (Total)
    R1        2.68101  -0.03246   0.00000  -0.02942  -0.02942   2.65160
    R2        2.66168  -0.03707   0.00000  -0.05288  -0.05267   2.60901
    R3        3.30209  -0.03475   0.00000  -0.11153  -0.11153   3.19056
    R4        2.67475  -0.04320   0.00000  -0.05879  -0.05898   2.61577
    R5        2.78314  -0.11776   0.00000  -0.57989  -0.57989   2.20325
    R6        2.67604  -0.02864   0.00000  -0.02611  -0.02632   2.64972
    R7        2.78093  -0.11723   0.00000  -0.56587  -0.56587   2.21506
    R8        2.67685  -0.01419   0.00000   0.00600   0.00599   2.68284
    R9        3.30271  -0.03325   0.00000  -0.10983  -0.10983   3.19288
   R10        2.65777  -0.03558   0.00000  -0.05377  -0.05357   2.60420
   R11        3.29880  -0.03353   0.00000  -0.11325  -0.11325   3.18555
    A1        2.06833  -0.00837   0.00000  -0.05026  -0.05007   2.01826
    A2        2.10804   0.00373   0.00000   0.02458   0.02448   2.13252
    A3        2.10681   0.00464   0.00000   0.02569   0.02559   2.13240
    A4        2.09390   0.00318   0.00000   0.00875   0.00853   2.10243
    A5        2.09049  -0.00229   0.00000  -0.01058  -0.01047   2.08002
    A6        2.09880  -0.00089   0.00000   0.00183   0.00194   2.10073
    A7        2.10416   0.00546   0.00000   0.02608   0.02565   2.12981
    A8        2.09397  -0.00237   0.00000  -0.00810  -0.00788   2.08609
    A9        2.08505  -0.00309   0.00000  -0.01798  -0.01776   2.06728
   A10        2.09014  -0.00400   0.00000  -0.01720  -0.01745   2.07268
   A11        2.09503  -0.00102   0.00000  -0.00106  -0.00093   2.09409
   A12        2.09802   0.00501   0.00000   0.01826   0.01839   2.11641
   A13        2.07440  -0.01246   0.00000  -0.04645  -0.04629   2.02812
   A14        2.10747   0.00960   0.00000   0.03534   0.03526   2.14273
   A15        2.10131   0.00287   0.00000   0.01111   0.01102   2.11234
   A16        2.13543   0.01619   0.00000   0.07909   0.07963   2.21506
    D1        0.00000  -0.00000   0.00000   0.00000   0.00000   0.00000
    D2        3.14159  -0.00000   0.00000  -0.00000   0.00000   3.14159
    D3        3.14159   0.00000   0.00000   0.00000   0.00000   3.14159
    D4        0.00000  -0.00000   0.00000  -0.00000   0.00000   0.00000
    D5        0.00000   0.00000   0.00000   0.00000   0.00000   0.00000
    D6        3.14159  -0.00000   0.00000  -0.00000   0.00000   3.14159
    D7        0.00000   0.00000   0.00000  -0.00000   0.00000   0.00000
    D8        3.14159  -0.00000   0.00000  -0.00000   0.00000   3.14159
    D9        3.14159   0.00000   0.00000   0.00000   0.00000   3.14159
   D10        0.00000  -0.00000   0.00000  -0.00000   0.00000   0.00000
   D11        0.00000   0.00000   0.00000   0.00000   0.00000   0.00000
   D12        3.14159  -0.00000   0.00000  -0.00000   0.00000   3.14159
   D13        3.14159   0.00000   0.00000   0.00000   0.00000   3.14159
   D14        0.00000   0.00000   0.00000   0.00000   0.00000   0.00000
   D15        0.00000  -0.00000   0.00000  -0.00000   0.00000   0.00000
   D16        3.14159  -0.00000   0.00000  -0.00000   0.00000   3.14159
   D17        3.14159   0.00000   0.00000   0.00000   0.00000   3.14159
   D18        0.00000  -0.00000   0.00000   0.00000   0.00000   0.00000
   D19        0.00000   0.00000   0.00000  -0.00000   0.00000   0.00000
   D20        3.14159   0.00000   0.00000   0.00000   0.00000   3.14159
         Item               Value     Threshold  Converged?
 Maximum Force            0.117756     0.000450     NO 
 RMS     Force            0.028566     0.000300     NO 
 Maximum Displacement     0.548778     0.001800     NO 
 RMS     Displacement     0.127997     0.001200     NO 
 Predicted change in Energy=-1.515711D-01
 GradGradGradGradGradGradGradGradGradGradGradGradGradGradGradGradGradGrad

                          Input orientation:                          
 ---------------------------------------------------------------------
 Center     Atomic      Atomic             Coordinates (Angstroms)
 Number     Number       Type             X           Y           Z
 ---------------------------------------------------------------------
      1          6           0       -3.170013    0.292099    0.000000
      2          6           0       -1.960327    1.003106    0.000000
      3          6           0       -0.750776    0.330044    0.000000
      4          6           0       -0.678977   -1.070287    0.000000
      5          6           0       -1.886984   -1.816112    0.000000
      6          6           0       -3.054308   -1.083672    0.000000
      7         17           0       -4.669378    1.068306    0.000000
      8         17           0        0.825835   -1.838594    0.000000
      9         17           0       -1.918706   -3.501534    0.000000
     10          1           0       -1.986152    2.168730    0.000000
     11          1           0        0.249917    0.940434    0.000000
 ---------------------------------------------------------------------
                    Distance matrix (angstroms):
                    1          2          3          4          5
     1  C    0.000000
     2  C    1.403164   0.000000
     3  C    2.419534   1.384206   0.000000
     4  C    2.839253   2.437379   1.402171   0.000000
     5  C    2.467938   2.820172   2.428365   1.419696   0.000000
     6  C    1.380627   2.356148   2.702749   2.375369   1.378084
     7  Cl   1.688370   2.709835   3.987539   4.527348   4.007691
     8  Cl   4.528427   3.979693   2.681174   1.689602   2.712912
     9  Cl   3.994674   4.504832   4.005628   2.729083   1.685720
    10  H    2.218845   1.165911   2.215157   3.492841   3.986077
    11  H    3.480842   2.211133   1.172161   2.214913   3.487820
                    6          7          8          9         10
     6  C    0.000000
     7  Cl   2.690624   0.000000
     8  Cl   3.952900   6.216706   0.000000
     9  Cl   2.671264   5.333820   3.209030   0.000000
    10  H    3.423314   2.900110   4.895500   5.670666   0.000000
    11  H    3.874908   4.920956   2.838077   4.943076   2.551218
                   11
    11  H    0.000000
 Stoichiometry    C6H2Cl3(2)
 Framework group  CS[SG(C6H2Cl3)]
 Deg. of freedom    19
 Full point group                 CS      NOp   2
 Largest Abelian subgroup         CS      NOp   2
 Largest concise Abelian subgroup C1      NOp   1
                         Standard orientation:                         
 ---------------------------------------------------------------------
 Center     Atomic      Atomic             Coordinates (Angstroms)
 Number     Number       Type             X           Y           Z
 ---------------------------------------------------------------------
      1          6           0       -1.262409    1.243579    0.000000
      2          6           0       -0.045847    1.942755    0.000000
      3          6           0        1.157083    1.257930    0.000000
      4          6           0        1.215223   -0.143035    0.000000
      5          6           0        0.000000   -0.877044    0.000000
      6          6           0       -1.160126   -0.133255    0.000000
      7         17           0       -2.754133    2.034371    0.000000
      8         17           0        2.712470   -0.925981    0.000000
      9         17           0       -0.048157   -2.562077    0.000000
     10          1           0       -0.060302    3.108576    0.000000
     11          1           0        2.163681    1.858531    0.000000
 ---------------------------------------------------------------------
 Rotational constants (GHZ):           1.8620827           0.6054155           0.4568732
 Standard basis: VSTO-6G (5D, 7F)
 There are    29 symmetry adapted cartesian basis functions of A'  symmetry.
 There are     9 symmetry adapted cartesian basis functions of A"  symmetry.
 There are    29 symmetry adapted basis functions of A'  symmetry.
 There are     9 symmetry adapted basis functions of A"  symmetry.
    38 basis functions,   228 primitive gaussians,    38 cartesian basis functions
    24 alpha electrons       23 beta electrons
       nuclear repulsion energy       243.5149908800 Hartrees.
 Integral buffers will be    131072 words long.
 Regular integral format.
 Two-electron integral symmetry is turned off.
 Do NDO integrals.
 One-electron integrals computed using PRISM.
 NBasis=    38 RedAO= T EigKep=  1.00D+00  NBF=    29     9
 NBsUse=    38 1.00D-06 EigRej= -1.00D+00 NBFU=    29     9
 Initial guess from the checkpoint file:  "geometry_chks/_234ClBzNeutralRadical.chk"
 B after Tr=    -0.000000   -0.000000   -0.000000
         Rot=    0.999990    0.000000   -0.000000    0.004402 Ang=   0.50 deg.
 Initial guess orbital symmetries:
 Alpha Orbitals:
       Occupied  (A') (A') (A') (A') (A') (A') (A') (A') (A') (A')
                 (A') (A') (A") (A") (A') (A') (A") (A') (A') (A')
                 (A") (A') (A") (A")
       Virtual   (A") (A") (A') (A') (A') (A') (A') (A") (A') (A')
                 (A') (A') (A') (A')
 Beta  Orbitals:
       Occupied  (A') (A') (A') (A') (A') (A') (A') (A') (A') (A')
                 (A') (A") (A') (A") (A') (A") (A') (A') (A') (A')
                 (A") (A") (A")
       Virtual   (A') (A") (A") (A') (A') (A') (A') (A') (A") (A')
                 (A') (A') (A') (A') (A')
 Initial guess <Sx>= 0.0000 <Sy>= 0.0000 <Sz>= 0.5000 <S**2>= 1.3927 S= 0.7817
 Keep J ints in memory in canonical form, NReq=863588.
 Overlap will be assumed to be unity.
 Requested convergence on RMS density matrix=1.00D-08 within  32 cycles.
 Requested convergence on MAX density matrix=1.00D-06.
 Requested convergence on             energy=1.00D-06.
 No special actions if energy rises.
 Fock symm off for IB=2 I1=    1 I=   30 J=   13 Cut=1.00D-07 Err=1.67D-03
 Fock matrix is not symmetric: symmetry in diagonalization turned off.
 SCF Done:  E(UAM1) =  0.950707093401E-01 A.U. after   17 cycles
            NFock= 16  Conv=0.46D-08     -V/T= 1.0008
 <Sx>= 0.0000 <Sy>= 0.0000 <Sz>= 0.5000 <S**2>= 1.2804 S= 0.7371
 <L.S>=  0.00000000000    
 Annihilation of the first spin contaminant:
 S**2 before annihilation     1.2804,   after     0.9949
 QCSCF skips out because SCF is already converged.
 Calling FoFJK, ICntrl=      2127 FMM=F ISym2X=1 I1Cent= 0 IOpClX= 1 NMat=1 NMatS=1 NMatT=0.
 ***** Axes restored to original set *****
 -------------------------------------------------------------------
 Center     Atomic                   Forces (Hartrees/Bohr)
 Number     Number              X              Y              Z
 -------------------------------------------------------------------
      1        6          -0.012912108   -0.006627049    0.000000000
      2        6          -0.003769397    0.048607874    0.000000000
      3        6           0.043978301    0.019878944    0.000000000
      4        6          -0.001212334   -0.004187239    0.000000000
      5        6          -0.002600813   -0.007524007    0.000000000
      6        6           0.007974238    0.006637685   -0.000000000
      7       17           0.003124710   -0.001565210   -0.000000000
      8       17          -0.001977714    0.000454981   -0.000000000
      9       17           0.000392623    0.002351156   -0.000000000
     10        1           0.001579295   -0.037840872   -0.000000000
     11        1          -0.034576802   -0.020186263   -0.000000000
 -------------------------------------------------------------------
 Cartesian Forces:  Max     0.048607874 RMS     0.015731018

 GradGradGradGradGradGradGradGradGradGradGradGradGradGradGradGradGradGrad
 Berny optimization.
 Using GEDIIS/GDIIS optimizer.
 FormGI is forming the generalized inverse of G from B-inverse, IUseBI=4.
 Internal  Forces:  Max     0.040030541 RMS     0.008462505
 Search for a local minimum.
 Step number   4 out of a maximum of   57
 All quantities printed in internal units (Hartrees-Bohrs-Radians)
 Mixed Optimization -- RFO/linear search
 Update second derivatives using D2CorX and points    3    4
 DE= -1.14D-01 DEPred=-1.52D-01 R= 7.52D-01
 TightC=F SS=  1.41D+00  RLast= 8.49D-01 DXNew= 1.4270D+00 2.5456D+00
 Trust test= 7.52D-01 RLast= 8.49D-01 DXMaxT set to 1.43D+00
 ITU=  1  1  1  0
 Use linear search instead of GDIIS.
     Eigenvalues ---    0.02011   0.02011   0.02011   0.02011   0.02011
     Eigenvalues ---    0.02011   0.02011   0.02011   0.05385   0.06867
     Eigenvalues ---    0.16000   0.16048   0.18441   0.22522   0.24720
     Eigenvalues ---    0.25000   0.25001   0.25022   0.26729   0.29033
     Eigenvalues ---    0.29048   0.40598   0.41147   0.43622   0.44656
     Eigenvalues ---    0.44666   0.61827
 RFO step:  Lambda=-1.01322286D-02 EMin= 2.01065599D-02
 Quartic linear search produced a step of  0.20857.
 Iteration  1 RMS(Cart)=  0.04239208 RMS(Int)=  0.01929558
 Iteration  2 RMS(Cart)=  0.01816095 RMS(Int)=  0.00010198
 Iteration  3 RMS(Cart)=  0.00001114 RMS(Int)=  0.00010157
 Iteration  4 RMS(Cart)=  0.00000000 RMS(Int)=  0.00010157
 ClnCor:  largest displacement from symmetrization is 8.14D-09 for atom    10.
 Variable       Old X    -DE/DX   Delta X   Delta X   Delta X     New X
                                 (Linear)    (Quad)   (Total)
    R1        2.65160   0.00748  -0.00614   0.07609   0.07008   2.72168
    R2        2.60901  -0.00309  -0.01099   0.04957   0.03855   2.64756
    R3        3.19056  -0.00349  -0.02326   0.09506   0.07180   3.26236
    R4        2.61577   0.00998  -0.01230   0.12082   0.10867   2.72444
    R5        2.20325  -0.03787  -0.12095  -0.11739  -0.23834   1.96491
    R6        2.64972   0.00562  -0.00549   0.06115   0.05569   2.70541
    R7        2.21506  -0.04003  -0.11802  -0.20820  -0.32622   1.88884
    R8        2.68284  -0.00055   0.00125  -0.00460  -0.00347   2.67936
    R9        3.19288  -0.00197  -0.02291   0.10405   0.08114   3.27402
   R10        2.60420  -0.00175  -0.01117   0.05020   0.03887   2.64308
   R11        3.18555  -0.00236  -0.02362   0.10220   0.07858   3.26413
    A1        2.01826  -0.00202  -0.01044   0.04398   0.03366   2.05192
    A2        2.13252   0.00094   0.00511  -0.02139  -0.01634   2.11618
    A3        2.13240   0.00109   0.00534  -0.02260  -0.01732   2.11508
    A4        2.10243  -0.00341   0.00178  -0.02999  -0.02791   2.07453
    A5        2.08002   0.00252  -0.00218   0.02920   0.02686   2.10688
    A6        2.10073   0.00089   0.00040   0.00079   0.00104   2.10178
    A7        2.12981  -0.00113   0.00535  -0.03476  -0.02921   2.10060
    A8        2.08609  -0.00029  -0.00164   0.00534   0.00359   2.08968
    A9        2.06728   0.00142  -0.00370   0.02942   0.02562   2.09290
   A10        2.07268   0.00168  -0.00364   0.03637   0.03264   2.10533
   A11        2.09409  -0.00005  -0.00020  -0.00246  -0.00260   2.09149
   A12        2.11641  -0.00163   0.00384  -0.03392  -0.03004   2.08637
   A13        2.02812  -0.00291  -0.00965   0.02579   0.01585   2.04397
   A14        2.14273   0.00090   0.00735  -0.02987  -0.02238   2.12035
   A15        2.11234   0.00201   0.00230   0.00409   0.00652   2.11886
   A16        2.21506   0.00779   0.01661  -0.04140  -0.02503   2.19003
    D1        0.00000  -0.00000   0.00000   0.00000   0.00000   0.00000
    D2        3.14159  -0.00000   0.00000  -0.00000   0.00000   3.14159
    D3        3.14159   0.00000   0.00000   0.00000   0.00000   3.14159
    D4        0.00000   0.00000   0.00000  -0.00000   0.00000   0.00000
    D5        0.00000   0.00000   0.00000   0.00000   0.00000   0.00000
    D6        3.14159  -0.00000   0.00000  -0.00000   0.00000   3.14159
    D7        0.00000   0.00000   0.00000  -0.00000   0.00000   0.00000
    D8        3.14159  -0.00000   0.00000  -0.00000   0.00000   3.14159
    D9        3.14159   0.00000   0.00000   0.00000   0.00000   3.14159
   D10        0.00000  -0.00000   0.00000  -0.00000   0.00000   0.00000
   D11        0.00000   0.00000   0.00000   0.00000   0.00000   0.00000
   D12        3.14159  -0.00000   0.00000  -0.00000   0.00000   3.14159
   D13        3.14159   0.00000   0.00000   0.00000   0.00000   3.14159
   D14        0.00000   0.00000   0.00000   0.00000   0.00000   0.00000
   D15        0.00000  -0.00000   0.00000  -0.00000   0.00000   0.00000
   D16        3.14159  -0.00000   0.00000  -0.00000   0.00000   3.14159
   D17        3.14159   0.00000   0.00000   0.00000   0.00000   3.14159
   D18        0.00000   0.00000   0.00000   0.00000   0.00000   0.00000
   D19        0.00000  -0.00000   0.00000  -0.00000   0.00000   0.00000
   D20        3.14159   0.00000   0.00000   0.00000   0.00000   3.14159
         Item               Value     Threshold  Converged?
 Maximum Force            0.040031     0.000450     NO 
 RMS     Force            0.008463     0.000300     NO 
 Maximum Displacement     0.169948     0.001800     NO 
 RMS     Displacement     0.051873     0.001200     NO 
 Predicted change in Energy=-1.662909D-02
 GradGradGradGradGradGradGradGradGradGradGradGradGradGradGradGradGradGrad

                          Input orientation:                          
 ---------------------------------------------------------------------
 Center     Atomic      Atomic             Coordinates (Angstroms)
 Number     Number       Type             X           Y           Z
 ---------------------------------------------------------------------
      1          6           0       -3.177604    0.316190    0.000000
      2          6           0       -1.954415    1.076540    0.000000
      3          6           0       -0.696807    0.371594    0.000000
      4          6           0       -0.669754   -1.059789    0.000000
      5          6           0       -1.875965   -1.805024    0.000000
      6          6           0       -3.072576   -1.080897    0.000000
      7         17           0       -4.717362    1.096886    0.000000
      8         17           0        0.849201   -1.893136    0.000000
      9         17           0       -1.869281   -3.532313    0.000000
     10          1           0       -1.975291    2.116116    0.000000
     11          1           0        0.159984    0.886352    0.000000
 ---------------------------------------------------------------------
                    Distance matrix (angstroms):
                    1          2          3          4          5
     1  C    0.000000
     2  C    1.440251   0.000000
     3  C    2.481415   1.441710   0.000000
     4  C    2.860530   2.492841   1.431639   0.000000
     5  C    2.488737   2.882632   2.475496   1.417858   0.000000
     6  C    1.401030   2.429984   2.784602   2.402915   1.398656
     7  Cl   1.726366   2.763021   4.085451   4.586325   4.061357
     8  Cl   4.593069   4.084023   2.742106   1.732539   2.726590
     9  Cl   4.064810   4.609639   4.076173   2.748134   1.727301
    10  H    2.164553   1.039785   2.162840   3.433773   3.922398
    11  H    3.385939   2.122936   0.999534   2.115639   3.374699
                    6          7          8          9         10
     6  C    0.000000
     7  Cl   2.729114   0.000000
     8  Cl   4.005005   6.318770   0.000000
     9  Cl   2.730816   5.435168   3.174436   0.000000
    10  H    3.380078   2.925369   4.904269   5.649423   0.000000
    11  H    3.784114   4.881888   2.863664   4.862357   2.464086
                   11
    11  H    0.000000
 Stoichiometry    C6H2Cl3(2)
 Framework group  CS[SG(C6H2Cl3)]
 Deg. of freedom    19
 Full point group                 CS      NOp   2
 Largest Abelian subgroup         CS      NOp   2
 Largest concise Abelian subgroup C1      NOp   1
                         Standard orientation:                         
 ---------------------------------------------------------------------
 Center     Atomic      Atomic             Coordinates (Angstroms)
 Number     Number       Type             X           Y           Z
 ---------------------------------------------------------------------
[...]
                                 (Linear)    (Quad)   (Total)
    R1        2.67282  -0.00002  -0.00009   0.00007  -0.00002   2.67280
    R2        2.59718  -0.00003  -0.00006   0.00003  -0.00003   2.59715
    R3        3.17701  -0.00004  -0.00010  -0.00002  -0.00012   3.17689
    R4        2.64398  -0.00002  -0.00009   0.00004  -0.00006   2.64392
    R5        2.07758   0.00006   0.00023  -0.00006   0.00018   2.07776
    R6        2.66210  -0.00002  -0.00005   0.00002  -0.00003   2.66208
    R7        2.08162   0.00022   0.00021   0.00038   0.00059   2.08220
    R8        2.68349  -0.00000  -0.00004   0.00004   0.00001   2.68350
    R9        3.18924  -0.00006  -0.00014  -0.00006  -0.00019   3.18905
   R10        2.59843  -0.00005  -0.00005  -0.00004  -0.00009   2.59835
   R11        3.17263   0.00001  -0.00008   0.00013   0.00005   3.17267
    A1        2.01093  -0.00000  -0.00002  -0.00001  -0.00003   2.01090
    A2        2.13226  -0.00003   0.00003  -0.00014  -0.00011   2.13216
    A3        2.13999   0.00004  -0.00002   0.00015   0.00013   2.14013
    A4        2.08780   0.00001  -0.00000   0.00004   0.00004   2.08784
    A5        2.09677  -0.00003   0.00001  -0.00021  -0.00020   2.09657
    A6        2.09862   0.00002  -0.00001   0.00017   0.00016   2.09877
    A7        2.12756  -0.00002   0.00004  -0.00008  -0.00005   2.12751
    A8        2.07725   0.00003  -0.00003   0.00017   0.00014   2.07739
    A9        2.07838  -0.00001  -0.00001  -0.00008  -0.00009   2.07829
   A10        2.08618   0.00001  -0.00003   0.00005   0.00002   2.08620
   A11        2.08862   0.00002  -0.00002   0.00012   0.00010   2.08871
   A12        2.10839  -0.00003   0.00005  -0.00017  -0.00012   2.10827
   A13        2.00399  -0.00001  -0.00003   0.00001  -0.00001   2.00398
   A14        2.15097  -0.00004   0.00006  -0.00022  -0.00016   2.15081
   A15        2.12822   0.00005  -0.00004   0.00021   0.00017   2.12839
   A16        2.24991   0.00001   0.00004  -0.00002   0.00002   2.24993
    D1        0.00000  -0.00000   0.00000  -0.00000   0.00000   0.00000
    D2        3.14159  -0.00000   0.00000  -0.00000   0.00000   3.14159
    D3        3.14159   0.00000   0.00000   0.00000   0.00000   3.14159
    D4        0.00000  -0.00000   0.00000  -0.00000   0.00000   0.00000
    D5        0.00000   0.00000   0.00000   0.00000   0.00000   0.00000
    D6        3.14159  -0.00000   0.00000  -0.00000   0.00000   3.14159
    D7        0.00000   0.00000   0.00000   0.00000   0.00000   0.00000
    D8        3.14159  -0.00000   0.00000  -0.00000   0.00000   3.14159
    D9        3.14159   0.00000   0.00000   0.00000   0.00000   3.14159
   D10        0.00000   0.00000   0.00000   0.00000   0.00000   0.00000
   D11        0.00000   0.00000   0.00000   0.00000   0.00000   0.00000
   D12        3.14159  -0.00000   0.00000  -0.00000   0.00000   3.14159
   D13        3.14159   0.00000   0.00000   0.00000   0.00000   3.14159
   D14        0.00000   0.00000   0.00000   0.00000   0.00000   0.00000
   D15        0.00000   0.00000   0.00000   0.00000   0.00000   0.00000
   D16        3.14159  -0.00000   0.00000  -0.00000   0.00000   3.14159
   D17        3.14159   0.00000   0.00000   0.00000   0.00000   3.14159
   D18        0.00000  -0.00000   0.00000  -0.00000   0.00000   0.00000
   D19        0.00000  -0.00000   0.00000  -0.00000   0.00000   0.00000
   D20        3.14159   0.00000   0.00000   0.00000   0.00000   3.14159
         Item               Value     Threshold  Converged?
 Maximum Force            0.000216     0.000450     YES
 RMS     Force            0.000039     0.000300     YES
 Maximum Displacement     0.000560     0.001800     YES
 RMS     Displacement     0.000152     0.001200     YES
 Predicted change in Energy=-1.036034D-07
 Optimization completed.
    -- Stationary point found.
                           ----------------------------
                           !   Optimized Parameters   !
                           ! (Angstroms and Degrees)  !
 --------------------------                            --------------------------
 ! Name  Definition              Value          Derivative Info.                !
 --------------------------------------------------------------------------------
 ! R1    R(1,2)                  1.4144         -DE/DX =    0.0                 !
 ! R2    R(1,6)                  1.3744         -DE/DX =    0.0                 !
 ! R3    R(1,7)                  1.6812         -DE/DX =    0.0                 !
 ! R4    R(2,3)                  1.3991         -DE/DX =    0.0                 !
 ! R5    R(2,10)                 1.0994         -DE/DX =    0.0001              !
 ! R6    R(3,4)                  1.4087         -DE/DX =    0.0                 !
 ! R7    R(3,11)                 1.1015         -DE/DX =    0.0002              !
 ! R8    R(4,5)                  1.42           -DE/DX =    0.0                 !
 ! R9    R(4,8)                  1.6877         -DE/DX =   -0.0001              !
 ! R10   R(5,6)                  1.375          -DE/DX =    0.0                 !
 ! R11   R(5,9)                  1.6789         -DE/DX =    0.0                 !
 ! A1    A(2,1,6)              115.2178         -DE/DX =    0.0                 !
 ! A2    A(2,1,7)              122.1698         -DE/DX =    0.0                 !
 ! A3    A(6,1,7)              122.6124         -DE/DX =    0.0                 !
 ! A4    A(1,2,3)              119.622          -DE/DX =    0.0                 !
 ! A5    A(1,2,10)             120.1361         -DE/DX =    0.0                 !
 ! A6    A(3,2,10)             120.2419         -DE/DX =    0.0                 !
 ! A7    A(2,3,4)              121.9001         -DE/DX =    0.0                 !
 ! A8    A(2,3,11)             119.0176         -DE/DX =    0.0                 !
 ! A9    A(4,3,11)             119.0823         -DE/DX =    0.0                 !
 ! A10   A(3,4,5)              119.5293         -DE/DX =    0.0                 !
 ! A11   A(3,4,8)              119.6689         -DE/DX =    0.0                 !
 ! A12   A(5,4,8)              120.8018         -DE/DX =    0.0                 !
 ! A13   A(4,5,6)              114.8202         -DE/DX =    0.0                 !
 ! A14   A(4,5,9)              123.2415         -DE/DX =    0.0                 !
 ! A15   A(6,5,9)              121.9383         -DE/DX =    0.0                 !
 ! A16   A(1,6,5)              128.9106         -DE/DX =    0.0                 !
 ! D1    D(6,1,2,3)              0.0            -DE/DX =    0.0                 !
 ! D2    D(6,1,2,10)           180.0            -DE/DX =    0.0                 !
 ! D3    D(7,1,2,3)            180.0            -DE/DX =    0.0                 !
 ! D4    D(7,1,2,10)             0.0            -DE/DX =    0.0                 !
 ! D5    D(2,1,6,5)              0.0            -DE/DX =    0.0                 !
 ! D6    D(7,1,6,5)            180.0            -DE/DX =    0.0                 !
 ! D7    D(1,2,3,4)              0.0            -DE/DX =    0.0                 !
 ! D8    D(1,2,3,11)           180.0            -DE/DX =    0.0                 !
 ! D9    D(10,2,3,4)           180.0            -DE/DX =    0.0                 !
 ! D10   D(10,2,3,11)            0.0            -DE/DX =    0.0                 !
 ! D11   D(2,3,4,5)              0.0            -DE/DX =    0.0                 !
 ! D12   D(2,3,4,8)            180.0            -DE/DX =    0.0                 !
 ! D13   D(11,3,4,5)           180.0            -DE/DX =    0.0                 !
 ! D14   D(11,3,4,8)             0.0            -DE/DX =    0.0                 !
 ! D15   D(3,4,5,6)              0.0            -DE/DX =    0.0                 !
 ! D16   D(3,4,5,9)            180.0            -DE/DX =    0.0                 !
 ! D17   D(8,4,5,6)            180.0            -DE/DX =    0.0                 !
 ! D18   D(8,4,5,9)              0.0            -DE/DX =    0.0                 !
 ! D19   D(4,5,6,1)              0.0            -DE/DX =    0.0                 !
 ! D20   D(9,5,6,1)            180.0            -DE/DX =    0.0                 !
 --------------------------------------------------------------------------------
 GradGradGradGradGradGradGradGradGradGradGradGradGradGradGradGradGradGrad

                          Input orientation:                          
 ---------------------------------------------------------------------
 Center     Atomic      Atomic             Coordinates (Angstroms)
 Number     Number       Type             X           Y           Z
 ---------------------------------------------------------------------
      1          6           0       -3.170509    0.301293    0.000000
      2          6           0       -1.957495    1.028689    0.000000
      3          6           0       -0.738892    0.341243    0.000000
      4          6           0       -0.678144   -1.066172    0.000000
      5          6           0       -1.882398   -1.818697    0.000000
      6          6           0       -3.033252   -1.066204    0.000000
      7         17           0       -4.670055    1.061424    0.000000
      8         17           0        0.822937   -1.837536    0.000000
      9         17           0       -1.918748   -3.497185    0.000000
     10          1           0       -1.973101    2.127987    0.000000
     11          1           0        0.199786    0.917680    0.000000
 ---------------------------------------------------------------------
                    Distance matrix (angstroms):
                    1          2          3          4          5
     1  C    0.000000
     2  C    1.414394   0.000000
     3  C    2.431945   1.399134   0.000000
     4  C    2.842858   2.454625   1.408725   0.000000
     5  C    2.480643   2.848377   2.443961   1.420043   0.000000
     6  C    1.374368   2.354959   2.691652   2.355108   1.375031
     7  Cl   1.681201   2.712758   3.996586   4.523496   4.008258
     8  Cl   4.530144   3.993250   2.680744   1.687675   2.705400
     9  Cl   3.999418   4.526041   4.015668   2.729272   1.678881
    10  H    2.184169   1.099408   2.171572   3.446674   3.947726
    11  H    3.426197   2.160135   1.101544   2.169431   3.438496
                    6          7          8          9         10
     6  C    0.000000
     7  Cl   2.684386   0.000000
     8  Cl   3.932575   6.211033   0.000000
     9  Cl   2.674283   5.324529   3.204882   0.000000
    10  H    3.365527   2.900193   4.852133   5.625435   0.000000
    11  H    3.793196   4.871962   2.824807   4.896859   2.487224
                   11
    11  H    0.000000
 Stoichiometry    C6H2Cl3(2)
 Framework group  CS[SG(C6H2Cl3)]
 Deg. of freedom    19
 Full point group                 CS      NOp   2
 Largest Abelian subgroup         CS      NOp   2
 Largest concise Abelian subgroup C1      NOp   1
                         Standard orientation:                         
 ---------------------------------------------------------------------
 Center     Atomic      Atomic             Coordinates (Angstroms)
 Number     Number       Type             X           Y           Z
 ---------------------------------------------------------------------
      1          6           0       -1.260386    1.253543    0.000000
      2          6           0       -0.037998    1.965076    0.000000
      3          6           0        1.171545    1.261813    0.000000
      4          6           0        1.213954   -0.146274    0.000000
      5          6           0        0.000000   -0.883048    0.000000
      6          6           0       -1.140954   -0.115627    0.000000
      7         17           0       -2.749902    2.033143    0.000000
      8         17           0        2.704859   -0.937127    0.000000
      9         17           0       -0.058213   -2.560920    0.000000
     10          1           0       -0.039283    3.064483    0.000000
     11          1           0        2.117654    1.825974    0.000000
 ---------------------------------------------------------------------
 Rotational constants (GHZ):           1.8609597           0.6063690           0.4573482

 **********************************************************************

            Population analysis using the SCF Density.

 **********************************************************************

 Orbital symmetries:
 Alpha Orbitals:
       Occupied  (A') (A') (A') (A') (A') (A') (A') (A') (A') (A')
                 (A') (A') (A") (A') (A") (A') (A") (A') (A') (A')
                 (A") (A') (A") (A")
       Virtual   (A") (A") (A') (A') (A') (A") (A') (A') (A') (A')
                 (A') (A') (A') (A')
 Beta  Orbitals:
       Occupied  (A') (A') (A') (A') (A') (A') (A') (A') (A') (A')
                 (A') (A') (A") (A') (A") (A') (A") (A') (A') (A')
                 (A") (A") (A")
       Virtual   (A') (A") (A") (A') (A') (A') (A") (A') (A') (A')
                 (A') (A') (A') (A') (A')
 The electronic state is 2-A'.
 Alpha  occ. eigenvalues --   -1.48188  -1.41444  -1.40133  -1.37976  -1.17103
 Alpha  occ. eigenvalues --   -1.15618  -0.89564  -0.87510  -0.69701  -0.64360
 Alpha  occ. eigenvalues --   -0.64140  -0.59391  -0.57451  -0.53189  -0.51353
 Alpha  occ. eigenvalues --   -0.51213  -0.48712  -0.46732  -0.45183  -0.44652
 Alpha  occ. eigenvalues --   -0.44250  -0.40713  -0.39233  -0.36526
 Alpha virt. eigenvalues --   -0.01487  -0.00511   0.02710   0.03447   0.04896
 Alpha virt. eigenvalues --    0.06828   0.11488   0.12286   0.13092   0.13523
 Alpha virt. eigenvalues --    0.15509   0.15975   0.16741   0.17543
  Beta  occ. eigenvalues --   -1.47548  -1.41508  -1.40063  -1.37711  -1.16560
  Beta  occ. eigenvalues --   -1.14355  -0.89185  -0.85361  -0.69661  -0.63745
  Beta  occ. eigenvalues --   -0.62812  -0.59116  -0.57287  -0.52665  -0.51896
  Beta  occ. eigenvalues --   -0.50767  -0.48878  -0.45415  -0.45135  -0.44406
  Beta  occ. eigenvalues --   -0.44137  -0.38019  -0.36415
  Beta virt. eigenvalues --   -0.01879  -0.01439   0.01069   0.02801   0.03458
  Beta virt. eigenvalues --    0.04818   0.07657   0.12165   0.12864   0.13418
  Beta virt. eigenvalues --    0.14183   0.15795   0.16579   0.17634   0.18311
          Condensed to atoms (all electrons):
               1          2          3          4          5          6
     1  C    4.056579   0.000000   0.000000   0.000000   0.000000   0.000000
     2  C    0.000000   4.112439   0.000000   0.000000   0.000000   0.000000
     3  C    0.000000   0.000000   4.123397   0.000000   0.000000   0.000000
     4  C    0.000000   0.000000   0.000000   4.064620   0.000000   0.000000
     5  C    0.000000   0.000000   0.000000   0.000000   4.052860   0.000000
     6  C    0.000000   0.000000   0.000000   0.000000   0.000000   4.035419
     7  Cl   0.000000   0.000000   0.000000   0.000000   0.000000   0.000000
     8  Cl   0.000000   0.000000   0.000000   0.000000   0.000000   0.000000
     9  Cl   0.000000   0.000000   0.000000   0.000000   0.000000   0.000000
    10  H    0.000000   0.000000   0.000000   0.000000   0.000000   0.000000
    11  H    0.000000   0.000000   0.000000   0.000000   0.000000   0.000000
               7          8          9         10         11
     1  C    0.000000   0.000000   0.000000   0.000000   0.000000
     2  C    0.000000   0.000000   0.000000   0.000000   0.000000
     3  C    0.000000   0.000000   0.000000   0.000000   0.000000
     4  C    0.000000   0.000000   0.000000   0.000000   0.000000
     5  C    0.000000   0.000000   0.000000   0.000000   0.000000
     6  C    0.000000   0.000000   0.000000   0.000000   0.000000
     7  Cl   6.958689   0.000000   0.000000   0.000000   0.000000
     8  Cl   0.000000   6.971143   0.000000   0.000000   0.000000
     9  Cl   0.000000   0.000000   6.942805   0.000000   0.000000
    10  H    0.000000   0.000000   0.000000   0.840154   0.000000
    11  H    0.000000   0.000000   0.000000   0.000000   0.841894
          Atomic-Atomic Spin Densities.
               1          2          3          4          5          6
     1  C   -0.494493   0.000000   0.000000   0.000000   0.000000   0.000000
     2  C    0.000000   0.513180   0.000000   0.000000   0.000000   0.000000
     3  C    0.000000   0.000000  -0.473268   0.000000   0.000000   0.000000
     4  C    0.000000   0.000000   0.000000   0.513292   0.000000   0.000000
     5  C    0.000000   0.000000   0.000000   0.000000  -0.500438   0.000000
     6  C    0.000000   0.000000   0.000000   0.000000   0.000000   1.419054
     7  Cl   0.000000   0.000000   0.000000   0.000000   0.000000   0.000000
     8  Cl   0.000000   0.000000   0.000000   0.000000   0.000000   0.000000
     9  Cl   0.000000   0.000000   0.000000   0.000000   0.000000   0.000000
    10  H    0.000000   0.000000   0.000000   0.000000   0.000000   0.000000
    11  H    0.000000   0.000000   0.000000   0.000000   0.000000   0.000000
               7          8          9         10         11
     1  C    0.000000   0.000000   0.000000   0.000000   0.000000
     2  C    0.000000   0.000000   0.000000   0.000000   0.000000
     3  C    0.000000   0.000000   0.000000   0.000000   0.000000
     4  C    0.000000   0.000000   0.000000   0.000000   0.000000
     5  C    0.000000   0.000000   0.000000   0.000000   0.000000
     6  C    0.000000   0.000000   0.000000   0.000000   0.000000
     7  Cl   0.000046   0.000000   0.000000   0.000000   0.000000
     8  Cl   0.000000   0.015824   0.000000   0.000000   0.000000
     9  Cl   0.000000   0.000000  -0.000398   0.000000   0.000000
    10  H    0.000000   0.000000   0.000000  -0.020252   0.000000
    11  H    0.000000   0.000000   0.000000   0.000000   0.027453
 Mulliken charges and spin densities:
               1          2
     1  C   -0.056579  -0.494493
     2  C   -0.112439   0.513180
     3  C   -0.123397  -0.473268
     4  C   -0.064620   0.513292
     5  C   -0.052860  -0.500438
     6  C   -0.035419   1.419054
     7  Cl   0.041311   0.000046
     8  Cl   0.028857   0.015824
     9  Cl   0.057195  -0.000398
    10  H    0.159846  -0.020252
    11  H    0.158106   0.027453
 Sum of Mulliken charges =   0.00000   1.00000
 Mulliken charges and spin densities with hydrogens summed into heavy atoms:
               1          2
     1  C   -0.056579  -0.494493
     2  C    0.047407   0.492928
     3  C    0.034709  -0.445815
     4  C   -0.064620   0.513292
     5  C   -0.052860  -0.500438
     6  C   -0.035419   1.419054
     7  Cl   0.041311   0.000046
     8  Cl   0.028857   0.015824
     9  Cl   0.057195  -0.000398
 Charge=              0.0000 electrons
 Dipole moment (field-independent basis, Debye):
    X=              0.9114    Y=              1.4428    Z=              0.0000  Tot=              1.7066
 N-N= 2.437320870684D+02 E-N=-3.398110141926D+02  KE=-1.121049615183D+02
 Symmetry A'   KE=-8.614244579973D+01
 Symmetry A"   KE=-2.596251571857D+01
 Symmetry A'   SP= 1.000000000000D+00
 Symmetry A"   SP= 5.107025913276D-15
 1\1\GINC-SH02-01N40\FOpt\UAM1\ZDO\C6H2Cl3(2)\JLAPIER\09-Dec-2025\0\\# 
 opt am1 SCF=XQC\\Neutral Radical (removed 1) _234\\0,2\C,-3.1705092141
 ,0.3012927962,0.\C,-1.9574946155,1.028689436,0.\C,-0.7388922897,0.3412
 425814,0.\C,-0.6781439413,-1.0661718945,0.\C,-1.8823975569,-1.81869748
 72,0.\C,-3.0332516586,-1.0662043207,0.\Cl,-4.6700550099,1.0614236679,0
 .\Cl,0.8229368101,-1.8375361206,0.\Cl,-1.9187478988,-3.4971854128,0.\H
 ,-1.9731011105,2.1279865423,0.\H,0.1997864853,0.917680212,0.\\Version=
 ES64L-G16RevB.01\State=2-A'\HF=0.089184\S2=1.306317\S2-1=0.\S2A=1.0234
 34\RMSD=5.315e-09\RMSF=6.453e-05\Dipole=0.3511664,0.5722589,0.\PG=CS [
 SG(C6H2Cl3)]\\@


 EXPERIENCE IS THE FRUIT OF THE TREE OF ERRORS.
 Job cpu time:       0 days  0 hours  0 minutes  8.4 seconds.
 Elapsed time:       0 days  0 hours  0 minutes 26.2 seconds.
 File lengths (MBytes):  RWF=     10 Int=      0 D2E=      0 Chk=      2 Scr=      1
 Normal termination of Gaussian 16 at Tue Dec  9 08:35:12 2025.
