 Entering Gaussian System, Link 0=g16
 Initial command:
 /share/software/user/restricted/gaussian/g16.B01/l1.exe "/home/users/jlapier/Chloroaromatics/Gau-15199.inp" -scrdir="/home/users/jlapier/Chloroaromatics/"
 Entering Link 1 = /share/software/user/restricted/gaussian/g16.B01/l1.exe PID=     15203.
  
 Copyright (c) 1988-2017, Gaussian, Inc.  All Rights Reserved.
  
 This is part of the Gaussian(R) 16 program.  It is based on
 the Gaussian(R) 09 system (copyright 2009, Gaussian, Inc.),
 the Gaussian(R) 03 system (copyright 2003, Gaussian, Inc.),
 the Gaussian(R) 98 system (copyright 1998, Gaussian, Inc.),
 the Gaussian(R) 94 system (copyright 1995, Gaussian, Inc.),
 the Gaussian 92(TM) system (copyright 1992, Gaussian, Inc.),
 the Gaussian 90(TM) system (copyright 1990, Gaussian, Inc.),
 the Gaussian 88(TM) system (copyright 1988, Gaussian, Inc.),
 the Gaussian 86(TM) system (copyright 1986, Carnegie Mellon
 University), and the Gaussian 82(TM) system (copyright 1983,
 Carnegie Mellon University). Gaussian is a federally registered
 trademark of Gaussian, Inc.
  
 This software contains proprietary and confidential information,
 including trade secrets, belonging to Gaussian, Inc.
  
 This software is provided under written license and may be
 used, copied, transmitted, or stored only in accord with that
 written license.
  
 The following legend is applicable only to US Government
 contracts under FAR:
  
                    RESTRICTED RIGHTS LEGEND
  
 Use, reproduction and disclosure by the US Government is
 subject to restrictions as set forth in subparagraphs (a)
 and (c) of the Commercial Computer Software - Restricted
 Rights clause in FAR 52.227-19.
  
 Gaussian, Inc.
 340 Quinnipiac St., Bldg. 40, Wallingford CT 06492
  
  
 ---------------------------------------------------------------
 Warning -- This program may not be used in any manner that
 competes with the business of Gaussian, Inc. or will provide
 assistance to any competitor of Gaussian, Inc.  The licensee
 of this program is prohibited from giving any competitor of
 Gaussian, Inc. access to this program.  By using this program,
 the user acknowledges that Gaussian, Inc. is engaged in the
 business of creating and licensing software in the field of
 computational chemistry and represents and warrants to the
 licensee that it is not a competitor of Gaussian, Inc. and that
 it will not use this program in any manner prohibited above.
 ---------------------------------------------------------------
  

 Cite this work as:
 Gaussian 16, Revision B.01,
 M. J. Frisch, G. W. Trucks, H. B. Schlegel, G. E. Scuseria, 
 M. A. Robb, J. R. Cheeseman, G. Scalmani, V. Barone, 
 G. A. Petersson, H. Nakatsuji, X. Li, M. Caricato, A. V. Marenich, 
 J. Bloino, B. G. Janesko, R. Gomperts, B. Mennucci, H. P. Hratchian, 
 J. V. Ortiz, A. F. Izmaylov, J. L. Sonnenberg, D. Williams-Young, 
 F. Ding, F. Lipparini, F. Egidi, J. Goings, B. Peng, A. Petrone, 
 T. Henderson, D. Ranasinghe, V. G. Zakrzewski, J. Gao, N. Rega, 
 G. Zheng, W. Liang, M. Hada, M. Ehara, K. Toyota, R. Fukuda, 
 J. Hasegawa, M. Ishida, T. Nakajima, Y. Honda, O. Kitao, H. Nakai, 
 T. Vreven, K. Throssell, J. A. Montgomery, Jr., J. E. Peralta, 
 F. Ogliaro, M. J. Bearpark, J. J. Heyd, E. N. Brothers, K. N. Kudin, 
 V. N. Staroverov, T. A. Keith, R. Kobayashi, J. Normand, 
 K. Raghavachari, A. P. Rendell, J. C. Burant, S. S. Iyengar, 
 J. Tomasi, M. Cossi, J. M. Millam, M. Klene, C. Adamo, R. Cammi, 
 J. W. Ochterski, R. L. Martin, K. Morokuma, O. Farkas, 
 J. B. Foresman, and D. J. Fox, Gaussian, Inc., Wallingford CT, 2016.
 
 ******************************************
 Gaussian 16:  ES64L-G16RevB.01 20-Dec-2017
                 8-Dec-2025 
 ******************************************
 %mem=2GB
 %nprocshare=1
 Will use up to    1 processors via shared memory.
 %chk=geometry_chks/_2345ClBzAnionIntermediate.chk
 ---------------------------
 # opt am1 SCF(maxcyc=10000)
 ---------------------------
 1/18=20,19=15,26=1,38=1/1,3;
 2/9=110,12=2,17=6,18=5,40=1/2;
 3/5=2,25=1,41=700000,71=1/1,2,3;
 4/35=1/1;
 5/5=2,7=10000,35=1,38=5/2;
 6/7=2,8=2,9=2,10=2,28=1/1;
 7//1,2,3,16;
 1/18=20,19=15,26=1/3(2);
 2/9=110/2;
 99//99;
 2/9=110/2;
 3/5=2,25=1,41=700000,71=1,135=20/1,2,3;
 4/5=5,16=3,35=1/1;
 5/5=2,7=10000,35=1,38=5/2;
 7//1,2,3,16;
 1/18=20,19=15,26=1/3(-5);
 2/9=110/2;
 6/7=2,8=2,9=2,10=2,19=2,28=1/1;
 99/9=1/99;
 ------------------------------------
 Anion Intermediate (removed 1) _2345
 ------------------------------------
 Symbolic Z-matrix:
 Charge = -1 Multiplicity = 1
 C                    -3.20928   0.19943   0. 
 C                    -2.0115    0.93555   0. 
 C                    -0.77511   0.2663    0. 
 C                    -0.7365   -1.13907   0. 
 C                    -1.93429  -1.87519   0. 
 C                    -3.17067  -1.20594   0. 
 Cl                   -4.76193   1.03987   0. 
 Cl                    0.81614  -1.97951   0. 
 Cl                   -1.8858   -3.64003   0. 
 Cl                   -2.05998   2.7004    0. 
 H                     0.72905   1.19071   0. 
 
 Add virtual bond connecting atoms H11        and C3         Dist= 3.34D+00.

 GradGradGradGradGradGradGradGradGradGradGradGradGradGradGradGradGradGrad
 Berny optimization.
 Initialization pass.
                           ----------------------------
                           !    Initial Parameters    !
                           ! (Angstroms and Degrees)  !
 --------------------------                            --------------------------
 ! Name  Definition              Value          Derivative Info.                !
 --------------------------------------------------------------------------------
 ! R1    R(1,2)                  1.4059         estimate D2E/DX2                !
 ! R2    R(1,6)                  1.4059         estimate D2E/DX2                !
 ! R3    R(1,7)                  1.7655         estimate D2E/DX2                !
 ! R4    R(2,3)                  1.4059         estimate D2E/DX2                !
 ! R5    R(2,10)                 1.7655         estimate D2E/DX2                !
 ! R6    R(3,4)                  1.4059         estimate D2E/DX2                !
 ! R7    R(3,11)                 1.7655         estimate D2E/DX2                !
 ! R8    R(4,5)                  1.4059         estimate D2E/DX2                !
 ! R9    R(4,8)                  1.7655         estimate D2E/DX2                !
 ! R10   R(5,6)                  1.4059         estimate D2E/DX2                !
 ! R11   R(5,9)                  1.7655         estimate D2E/DX2                !
 ! A1    A(2,1,6)              119.9999         estimate D2E/DX2                !
 ! A2    A(2,1,7)              119.9999         estimate D2E/DX2                !
 ! A3    A(6,1,7)              120.0001         estimate D2E/DX2                !
 ! A4    A(1,2,3)              120.0            estimate D2E/DX2                !
 ! A5    A(1,2,10)             120.0001         estimate D2E/DX2                !
 ! A6    A(3,2,10)             119.9999         estimate D2E/DX2                !
 ! A7    A(2,3,4)              120.0001         estimate D2E/DX2                !
 ! A8    A(2,3,11)             120.0            estimate D2E/DX2                !
 ! A9    A(4,3,11)             119.9999         estimate D2E/DX2                !
 ! A10   A(3,4,5)              119.9997         estimate D2E/DX2                !
 ! A11   A(3,4,8)              120.0003         estimate D2E/DX2                !
 ! A12   A(5,4,8)              120.0            estimate D2E/DX2                !
 ! A13   A(4,5,6)              120.0            estimate D2E/DX2                !
 ! A14   A(4,5,9)              119.9996         estimate D2E/DX2                !
 ! A15   A(6,5,9)              120.0004         estimate D2E/DX2                !
 ! A16   A(1,6,5)              120.0003         estimate D2E/DX2                !
 ! D1    D(6,1,2,3)              0.0            estimate D2E/DX2                !
 ! D2    D(6,1,2,10)           180.0            estimate D2E/DX2                !
 ! D3    D(7,1,2,3)            180.0            estimate D2E/DX2                !
 ! D4    D(7,1,2,10)             0.0            estimate D2E/DX2                !
 ! D5    D(2,1,6,5)              0.0            estimate D2E/DX2                !
 ! D6    D(7,1,6,5)            180.0            estimate D2E/DX2                !
 ! D7    D(1,2,3,4)              0.0            estimate D2E/DX2                !
 ! D8    D(1,2,3,11)           180.0            estimate D2E/DX2                !
 ! D9    D(10,2,3,4)           180.0            estimate D2E/DX2                !
 ! D10   D(10,2,3,11)            0.0            estimate D2E/DX2                !
 ! D11   D(2,3,4,5)              0.0            estimate D2E/DX2                !
 ! D12   D(2,3,4,8)            180.0            estimate D2E/DX2                !
 ! D13   D(11,3,4,5)           180.0            estimate D2E/DX2                !
 ! D14   D(11,3,4,8)             0.0            estimate D2E/DX2                !
 ! D15   D(3,4,5,6)              0.0            estimate D2E/DX2                !
 ! D16   D(3,4,5,9)            180.0            estimate D2E/DX2                !
 ! D17   D(8,4,5,6)            180.0            estimate D2E/DX2                !
 ! D18   D(8,4,5,9)              0.0            estimate D2E/DX2                !
 ! D19   D(4,5,6,1)              0.0            estimate D2E/DX2                !
 ! D20   D(9,5,6,1)            180.0            estimate D2E/DX2                !
 --------------------------------------------------------------------------------
 Trust Radius=3.00D-01 FncErr=1.00D-07 GrdErr=1.00D-07 EigMax=2.50D+02 EigMin=1.00D-04
 Number of steps in this run=     57 maximum allowed number of steps=    100.
 GradGradGradGradGradGradGradGradGradGradGradGradGradGradGradGradGradGrad

                          Input orientation:                          
 ---------------------------------------------------------------------
 Center     Atomic      Atomic             Coordinates (Angstroms)
 Number     Number       Type             X           Y           Z
 ---------------------------------------------------------------------
      1          6           0       -3.209280    0.199430    0.000000
      2          6           0       -2.011500    0.935550    0.000000
      3          6           0       -0.775110    0.266300    0.000000
      4          6           0       -0.736500   -1.139070    0.000000
      5          6           0       -1.934290   -1.875190    0.000000
      6          6           0       -3.170670   -1.205940    0.000000
      7         17           0       -4.761930    1.039870    0.000000
      8         17           0        0.816140   -1.979510    0.000000
      9         17           0       -1.885800   -3.640030    0.000000
     10         17           0       -2.059980    2.700400    0.000000
     11          1           0        0.729050    1.190710    0.000000
 ---------------------------------------------------------------------
                    Distance matrix (angstroms):
                    1          2          3          4          5
     1  C    0.000000
     2  C    1.405898   0.000000
     3  C    2.435088   1.405900   0.000000
     4  C    2.811801   2.435092   1.405900   0.000000
     5  C    2.435087   2.811800   2.435093   1.405907   0.000000
     6  C    1.405900   2.435088   2.811796   2.435088   1.405892
     7  Cl   1.765520   2.752408   4.061175   4.577321   4.061173
     8  Cl   4.577312   4.061173   2.752406   1.765511   2.752408
     9  Cl   4.061164   4.577306   4.061163   2.752397   1.765506
    10  Cl   2.752406   1.765516   2.752405   4.061173   4.577316
    11  H    4.061167   2.752403   1.765512   2.752401   4.061173
                    6          7          8          9         10
     6  C    0.000000
     7  Cl   2.752412   0.000000
     8  Cl   4.061165   6.342832   0.000000
     9  Cl   2.752396   5.493049   3.171404   0.000000
    10  Cl   4.061173   3.171418   5.493052   6.342822   0.000000
    11  H    4.577308   5.493051   3.171416   5.493040   3.171412
                   11
    11  H    0.000000
 Stoichiometry    C6HCl4(1-)
 Framework group  CS[SG(C6HCl4)]
 Deg. of freedom    19
 Full point group                 CS      NOp   2
 Largest Abelian subgroup         CS      NOp   2
 Largest concise Abelian subgroup C1      NOp   1
                         Standard orientation:                         
 ---------------------------------------------------------------------
 Center     Atomic      Atomic             Coordinates (Angstroms)
 Number     Number       Type             X           Y           Z
 ---------------------------------------------------------------------
      1          6           0       -0.026158    1.421000    0.000000
      2          6           0        1.191386    0.718052    0.000000
      3          6           0        1.191386   -0.687849    0.000000
      4          6           0       -0.026158   -1.390801    0.000000
      5          6           0       -1.243707   -0.687844    0.000000
      6          6           0       -1.243702    0.718047    0.000000
      7         17           0       -0.026157    3.186520    0.000000
      8         17           0       -0.026163   -3.156312    0.000000
      9         17           0       -2.772676   -1.570604    0.000000
     10         17           0        2.720369    1.600807    0.000000
     11          1           0        2.720364   -1.570605    0.000000
 ---------------------------------------------------------------------
 Rotational constants (GHZ):           1.1672758           0.4487103           0.3241171
 Standard basis: VSTO-6G (5D, 7F)
 There are    31 symmetry adapted cartesian basis functions of A'  symmetry.
 There are    10 symmetry adapted cartesian basis functions of A"  symmetry.
 There are    31 symmetry adapted basis functions of A'  symmetry.
 There are    10 symmetry adapted basis functions of A"  symmetry.
    41 basis functions,   246 primitive gaussians,    41 cartesian basis functions
    27 alpha electrons       27 beta electrons
       nuclear repulsion energy       290.9202719479 Hartrees.
 Integral buffers will be    131072 words long.
 Regular integral format.
 Two-electron integral symmetry is turned off.
 Do NDO integrals.
 One-electron integrals computed using PRISM.
 NBasis=    41 RedAO= T EigKep=  1.00D+00  NBF=    31    10
 NBsUse=    41 1.00D-06 EigRej= -1.00D+00 NBFU=    31    10
 Simple Huckel Guess.
 Initial guess orbital symmetries:
       Occupied  (A') (A') (A') (A') (A') (A') (A') (A') (A') (A')
                 (A") (A') (A') (A") (A') (A') (A") (A') (A") (A')
                 (A") (A') (A') (A') (A") (A") (A')
       Virtual   (A") (A') (A") (A") (A') (A') (A') (A') (A') (A')
                 (A') (A') (A') (A')
 The electronic state of the initial guess is 1-A'.
 Keep J ints in memory in canonical form, NReq=864464.
 Overlap will be assumed to be unity.
 Requested convergence on RMS density matrix=1.00D-08 within**** cycles.
 Requested convergence on MAX density matrix=1.00D-06.
 Requested convergence on             energy=1.00D-06.
 No special actions if energy rises.
 Fock symm off for IB=2 I1=    1 I=   32 J=   13 Cut=1.00D-07 Err=2.15D-03
 Fock matrix is not symmetric: symmetry in diagonalization turned off.
 SCF Done:  E(RAM1) =  0.138596059581     A.U. after   15 cycles
            NFock= 14  Conv=0.61D-08     -V/T= 1.0010

 **********************************************************************

            Population analysis using the SCF Density.

 **********************************************************************

 Orbital symmetries:
       Occupied  (A') (A') (A') (A') (A') (A') (A') (A') (A') (A')
                 (A') (A') (A') (A") (A") (A') (A") (A') (A") (A')
                 (A') (A') (A") (A') (A") (A") (A')
       Virtual   (A') (A") (A') (A") (A') (A') (A') (A") (A') (A')
                 (A') (A') (A') (A')
 The electronic state is 1-A'.
 Alpha  occ. eigenvalues --   -1.27781  -1.24017  -1.22148  -1.21448  -1.19059
 Alpha  occ. eigenvalues --   -0.97292  -0.93513  -0.69529  -0.67187  -0.48506
 Alpha  occ. eigenvalues --   -0.46055  -0.45912  -0.42213  -0.39915  -0.35694
 Alpha  occ. eigenvalues --   -0.33864  -0.32703  -0.32398  -0.31841  -0.30300
 Alpha  occ. eigenvalues --   -0.29966  -0.27679  -0.27621  -0.27351  -0.19576
 Alpha  occ. eigenvalues --   -0.18112  -0.13582
 Alpha virt. eigenvalues --    0.13401   0.14751   0.17048   0.17257   0.17940
 Alpha virt. eigenvalues --    0.19749   0.21189   0.26139   0.30481   0.30852
 Alpha virt. eigenvalues --    0.32457   0.32695   0.35690   0.38054
          Condensed to atoms (all electrons):
               1          2          3          4          5          6
     1  C    4.040507   0.000000   0.000000   0.000000   0.000000   0.000000
     2  C    0.000000   4.044288   0.000000   0.000000   0.000000   0.000000
     3  C    0.000000   0.000000   4.184114   0.000000   0.000000   0.000000
     4  C    0.000000   0.000000   0.000000   4.044290   0.000000   0.000000
     5  C    0.000000   0.000000   0.000000   0.000000   4.040515   0.000000
     6  C    0.000000   0.000000   0.000000   0.000000   0.000000   4.332036
     7  Cl   0.000000   0.000000   0.000000   0.000000   0.000000   0.000000
     8  Cl   0.000000   0.000000   0.000000   0.000000   0.000000   0.000000
     9  Cl   0.000000   0.000000   0.000000   0.000000   0.000000   0.000000
    10  Cl   0.000000   0.000000   0.000000   0.000000   0.000000   0.000000
    11  H    0.000000   0.000000   0.000000   0.000000   0.000000   0.000000
               7          8          9         10         11
     1  C    0.000000   0.000000   0.000000   0.000000   0.000000
     2  C    0.000000   0.000000   0.000000   0.000000   0.000000
     3  C    0.000000   0.000000   0.000000   0.000000   0.000000
     4  C    0.000000   0.000000   0.000000   0.000000   0.000000
     5  C    0.000000   0.000000   0.000000   0.000000   0.000000
     6  C    0.000000   0.000000   0.000000   0.000000   0.000000
     7  Cl   7.101504   0.000000   0.000000   0.000000   0.000000
     8  Cl   0.000000   7.115365   0.000000   0.000000   0.000000
     9  Cl   0.000000   0.000000   7.101498   0.000000   0.000000
    10  Cl   0.000000   0.000000   0.000000   7.115368   0.000000
    11  H    0.000000   0.000000   0.000000   0.000000   0.880515
 Mulliken charges:
               1
     1  C   -0.040507
     2  C   -0.044288
     3  C   -0.184114
     4  C   -0.044290
     5  C   -0.040515
     6  C   -0.332036
     7  Cl  -0.101504
     8  Cl  -0.115365
     9  Cl  -0.101498
    10  Cl  -0.115368
    11  H    0.119485
 Sum of Mulliken charges =  -1.00000
 Mulliken charges with hydrogens summed into heavy atoms:
               1
     1  C   -0.040507
     2  C   -0.044288
     3  C   -0.064629
     4  C   -0.044290
     5  C   -0.040515
     6  C   -0.332036
     7  Cl  -0.101504
     8  Cl  -0.115365
     9  Cl  -0.101498
    10  Cl  -0.115368
 Charge=             -1.0000 electrons
 Dipole moment (field-independent basis, Debye):
    X=              3.9209    Y=             -2.2638    Z=              0.0000  Tot=              4.5275
 N-N= 2.909202719479D+02 E-N=-4.153692748893D+02  KE=-1.356888526881D+02
 Symmetry A'   KE=-1.040272190619D+02
 Symmetry A"   KE=-3.166163362613D+01
 Calling FoFJK, ICntrl=      2127 FMM=F ISym2X=1 I1Cent= 0 IOpClX= 0 NMat=1 NMatS=1 NMatT=0.
 ***** Axes restored to original set *****
 -------------------------------------------------------------------
 Center     Atomic                   Forces (Hartrees/Bohr)
 Number     Number              X              Y              Z
 -------------------------------------------------------------------
      1        6          -0.001168853   -0.017574555    0.000000000
      2        6           0.015099628    0.015584413   -0.000000000
      3        6           0.061603920    0.037856940   -0.000000000
      4        6           0.020718713    0.006432945   -0.000000000
      5        6          -0.016197868    0.006900315    0.000000000
      6        6           0.011063584    0.006805896   -0.000000000
      7       17           0.025344751   -0.015070151   -0.000000000
      8       17          -0.019577861    0.016824615   -0.000000000
      9       17          -0.001997136    0.029412736   -0.000000000
     10       17           0.006166661   -0.025067645   -0.000000000
     11        1          -0.101055539   -0.062105510   -0.000000000
 -------------------------------------------------------------------
 Cartesian Forces:  Max     0.101055539 RMS     0.027023730

 GradGradGradGradGradGradGradGradGradGradGradGradGradGradGradGradGradGrad
 Berny optimization.
 FormGI is forming the generalized inverse of G from B-inverse, IUseBI=4.
 Internal  Forces:  Max     0.118614148 RMS     0.021957870
 Search for a local minimum.
 Step number   1 out of a maximum of   57
 All quantities printed in internal units (Hartrees-Bohrs-Radians)
 Mixed Optimization -- RFO/linear search
 Second derivative matrix not updated -- first step.
 ITU=  0
     Eigenvalues ---    0.02011   0.02011   0.02011   0.02011   0.02011
     Eigenvalues ---    0.02011   0.02011   0.02011   0.06524   0.16000
     Eigenvalues ---    0.23453   0.25000   0.25000   0.25000   0.25000
     Eigenvalues ---    0.25000   0.25000   0.29033   0.29033   0.29033
     Eigenvalues ---    0.29034   0.41211   0.41457   0.44656   0.44657
     Eigenvalues ---    0.44657   0.44657
 RFO step:  Lambda=-1.02581191D-01 EMin= 2.01065650D-02
 Linear search not attempted -- first point.
 Maximum step size (   0.300) exceeded in Quadratic search.
    -- Step size scaled by   0.408
 Iteration  1 RMS(Cart)=  0.03748425 RMS(Int)=  0.01284359
 Iteration  2 RMS(Cart)=  0.01223058 RMS(Int)=  0.00000636
 Iteration  3 RMS(Cart)=  0.00000001 RMS(Int)=  0.00000636
 ClnCor:  largest displacement from symmetrization is 3.99D-10 for atom     8.
 Variable       Old X    -DE/DX   Delta X   Delta X   Delta X     New X
                                 (Linear)    (Quad)   (Total)
    R1        2.65676  -0.01000   0.00000  -0.00742  -0.00742   2.64934
    R2        2.65677  -0.02903   0.00000  -0.02129  -0.02130   2.63547
    R3        3.33635  -0.02946   0.00000  -0.03056  -0.03056   3.30579
    R4        2.65677  -0.03748   0.00000  -0.02808  -0.02807   2.62870
    R5        3.33634  -0.02523   0.00000  -0.02617  -0.02617   3.31017
    R6        2.65677  -0.03749   0.00000  -0.02808  -0.02807   2.62870
    R7        3.33633  -0.11861   0.00000  -0.28805  -0.28805   3.04828
    R8        2.65678  -0.01000   0.00000  -0.00743  -0.00743   2.64935
    R9        3.33633  -0.02523   0.00000  -0.02617  -0.02617   3.31017
   R10        2.65675  -0.02902   0.00000  -0.02128  -0.02129   2.63546
   R11        3.33632  -0.02946   0.00000  -0.03055  -0.03055   3.30577
    A1        2.09439   0.00770   0.00000   0.00912   0.00911   2.10351
    A2        2.09439  -0.00187   0.00000  -0.00227  -0.00227   2.09213
    A3        2.09440  -0.00583   0.00000  -0.00685  -0.00685   2.08755
    A4        2.09439  -0.00648   0.00000  -0.00810  -0.00809   2.08631
    A5        2.09440   0.01238   0.00000   0.01461   0.01460   2.10900
    A6        2.09439  -0.00589   0.00000  -0.00651  -0.00652   2.08788
    A7        2.09440   0.00863   0.00000   0.00980   0.00982   2.10421
    A8        2.09440  -0.00432   0.00000  -0.00490  -0.00491   2.08949
    A9        2.09439  -0.00432   0.00000  -0.00490  -0.00491   2.08949
   A10        2.09439  -0.00648   0.00000  -0.00809  -0.00808   2.08631
   A11        2.09440  -0.00589   0.00000  -0.00651  -0.00652   2.08788
   A12        2.09440   0.01238   0.00000   0.01461   0.01460   2.10900
   A13        2.09439   0.00770   0.00000   0.00912   0.00911   2.10351
   A14        2.09439  -0.00187   0.00000  -0.00227  -0.00226   2.09212
   A15        2.09440  -0.00583   0.00000  -0.00685  -0.00685   2.08755
   A16        2.09440  -0.01107   0.00000  -0.01185  -0.01187   2.08253
    D1        0.00000  -0.00000   0.00000  -0.00000   0.00000   0.00000
    D2        3.14159  -0.00000   0.00000  -0.00000   0.00000   3.14159
    D3        3.14159   0.00000   0.00000   0.00000   0.00000   3.14159
    D4        0.00000   0.00000   0.00000   0.00000   0.00000   0.00000
    D5        0.00000   0.00000   0.00000   0.00000   0.00000   0.00000
    D6        3.14159  -0.00000   0.00000  -0.00000   0.00000   3.14159
    D7        0.00000  -0.00000   0.00000  -0.00000   0.00000   0.00000
    D8        3.14159  -0.00000   0.00000  -0.00000   0.00000   3.14159
    D9        3.14159   0.00000   0.00000   0.00000   0.00000   3.14159
   D10        0.00000  -0.00000   0.00000  -0.00000   0.00000   0.00000
   D11        0.00000   0.00000   0.00000   0.00000   0.00000   0.00000
   D12        3.14159  -0.00000   0.00000  -0.00000   0.00000   3.14159
   D13        3.14159   0.00000   0.00000   0.00000   0.00000   3.14159
   D14        0.00000   0.00000   0.00000   0.00000   0.00000   0.00000
   D15        0.00000   0.00000   0.00000   0.00000   0.00000   0.00000
   D16        3.14159  -0.00000   0.00000  -0.00000   0.00000   3.14159
   D17        3.14159   0.00000   0.00000   0.00000   0.00000   3.14159
   D18        0.00000  -0.00000   0.00000  -0.00000   0.00000   0.00000
   D19        0.00000  -0.00000   0.00000  -0.00000   0.00000   0.00000
   D20        3.14159   0.00000   0.00000   0.00000   0.00000   3.14159
         Item               Value     Threshold  Converged?
 Maximum Force            0.118614     0.000450     NO 
 RMS     Force            0.021958     0.000300     NO 
 Maximum Displacement     0.248330     0.001800     NO 
 RMS     Displacement     0.048440     0.001200     NO 
 Predicted change in Energy=-3.790365D-02
 GradGradGradGradGradGradGradGradGradGradGradGradGradGradGradGradGradGrad

                          Input orientation:                          
 ---------------------------------------------------------------------
 Center     Atomic      Atomic             Coordinates (Angstroms)
 Number     Number       Type             X           Y           Z
 ---------------------------------------------------------------------
      1          6           0       -3.188815    0.195671    0.000000
      2          6           0       -1.996719    0.933526    0.000000
      3          6           0       -0.776656    0.265350    0.000000
      4          6           0       -0.731630   -1.124968    0.000000
      5          6           0       -1.928398   -1.855232    0.000000
      6          6           0       -3.158790   -1.198637    0.000000
      7         17           0       -4.728001    1.027009    0.000000
      8         17           0        0.818259   -1.941163    0.000000
      9         17           0       -1.881948   -3.603954    0.000000
     10         17           0       -2.024812    2.684969    0.000000
     11          1           0        0.597639    1.109949    0.000000
 ---------------------------------------------------------------------
                    Distance matrix (angstroms):
                    1          2          3          4          5
     1  C    0.000000
     2  C    1.401971   0.000000
     3  C    2.413165   1.391048   0.000000
     4  C    2.789596   2.416164   1.391047   0.000000
     5  C    2.407250   2.789595   2.413168   1.401977   0.000000
     6  C    1.394631   2.428276   2.796037   2.428277   1.394625
     7  Cl   1.749348   2.732882   4.024085   4.538942   4.018096
     8  Cl   4.541222   4.023424   2.722582   1.751665   2.748001
     9  Cl   4.018090   4.538931   4.024075   2.732874   1.749338
    10  Cl   2.748001   1.751669   2.722582   4.023424   4.541225
    11  H    3.895271   2.600350   1.613082   2.600348   3.895275
                    6          7          8          9         10
     6  C    0.000000
     7  Cl   2.723220   0.000000
     8  Cl   4.045771   6.290553   0.000000
     9  Cl   2.723210   5.435608   3.171118   0.000000
    10  Cl   4.045776   3.171130   5.429931   6.290545   0.000000
    11  H    4.409118   5.326287   3.059078   5.326277   3.059075
                   11
    11  H    0.000000
 Stoichiometry    C6HCl4(1-)
 Framework group  CS[SG(C6HCl4)]
 Deg. of freedom    19
 Full point group                 CS      NOp   2
 Largest Abelian subgroup         CS      NOp   2
 Largest concise Abelian subgroup C1      NOp   1
                         Standard orientation:                         
 ---------------------------------------------------------------------
 Center     Atomic      Atomic             Coordinates (Angstroms)
 Number     Number       Type             X           Y           Z
 ---------------------------------------------------------------------
      1          6           0        1.203624    0.734262    0.000000
      2          6           0        1.208081   -0.667702   -0.000000
      3          6           0       -0.000000   -1.357306   -0.000000
      4          6           0       -1.208083   -0.667706   -0.000000
      5          6           0       -1.203626    0.734265    0.000000
      6          6           0       -0.000003    1.438731    0.000000
      7         17           0        2.717805    1.610319    0.000000
      8         17           0       -2.714966   -1.560809   -0.000000
      9         17           0       -2.717803    1.610308    0.000000
     10         17           0        2.714966   -1.560810   -0.000000
     11          1           0        0.000001   -2.970388   -0.000000
 ---------------------------------------------------------------------
 Rotational constants (GHZ):           1.1721164           0.4586425           0.3296517
 Standard basis: VSTO-6G (5D, 7F)
 There are    31 symmetry adapted cartesian basis functions of A'  symmetry.
 There are    10 symmetry adapted cartesian basis functions of A"  symmetry.
 There are    31 symmetry adapted basis functions of A'  symmetry.
 There are    10 symmetry adapted basis functions of A"  symmetry.
    41 basis functions,   246 primitive gaussians,    41 cartesian basis functions
    27 alpha electrons       27 beta electrons
       nuclear repulsion energy       292.5149495373 Hartrees.
 Integral buffers will be    131072 words long.
 Regular integral format.
 Two-electron integral symmetry is turned off.
 Do NDO integrals.
 One-electron integrals computed using PRISM.
 NBasis=    41 RedAO= T EigKep=  1.00D+00  NBF=    31    10
 NBsUse=    41 1.00D-06 EigRej= -1.00D+00 NBFU=    31    10
 Initial guess from the checkpoint file:  "geometry_chks/_2345ClBzAnionIntermediate.chk"
 B after Tr=    -0.000000    0.000000    0.000000
         Rot=    0.866026    0.000000    0.000000    0.500000 Ang=  60.00 deg.
 Initial guess orbital symmetries:
       Occupied  (A') (A') (A') (A') (A') (A') (A') (A') (A') (A')
                 (A') (A') (A') (A") (A") (A') (A") (A') (A") (A')
                 (A') (A') (A") (A') (A") (A") (A')
       Virtual   (A') (A") (A') (A") (A') (A') (A') (A") (A') (A')
                 (A') (A') (A') (A')
 Keep J ints in memory in canonical form, NReq=864464.
 Overlap will be assumed to be unity.
 Requested convergence on RMS density matrix=1.00D-08 within**** cycles.
 Requested convergence on MAX density matrix=1.00D-06.
 Requested convergence on             energy=1.00D-06.
 No special actions if energy rises.
 Fock symm off for IB=2 I1=    1 I=   32 J=   21 Cut=1.00D-07 Err=1.08D-03
 Fock matrix is not symmetric: symmetry in diagonalization turned off.
 SCF Done:  E(RAM1) =  0.975457942542E-01 A.U. after   12 cycles
            NFock= 11  Conv=0.99D-08     -V/T= 1.0007
 Calling FoFJK, ICntrl=      2127 FMM=F ISym2X=1 I1Cent= 0 IOpClX= 0 NMat=1 NMatS=1 NMatT=0.
 ***** Axes restored to original set *****
 -------------------------------------------------------------------
 Center     Atomic                   Forces (Hartrees/Bohr)
 Number     Number              X              Y              Z
 -------------------------------------------------------------------
      1        6          -0.007319258   -0.008947366    0.000000000
      2        6           0.005153854    0.020177989    0.000000000
      3        6           0.087590303    0.053828832    0.000000000
      4        6           0.020325209   -0.004516409    0.000000000
      5        6          -0.011281413   -0.002484381    0.000000000
      6        6           0.004812115    0.002961749    0.000000000
      7       17           0.017139552   -0.010048558   -0.000000000
      8       17          -0.014392259    0.012124145   -0.000000000
      9       17          -0.001223333    0.019825477   -0.000000000
     10       17           0.004315474   -0.018317958   -0.000000000
     11        1          -0.105120244   -0.064603519   -0.000000000
 -------------------------------------------------------------------
 Cartesian Forces:  Max     0.105120244 RMS     0.029365665

 GradGradGradGradGradGradGradGradGradGradGradGradGradGradGradGradGradGrad
 Berny optimization.
 Using GEDIIS/GDIIS optimizer.
 FormGI is forming the generalized inverse of G from B-inverse, IUseBI=4.
 Internal  Forces:  Max     0.123385089 RMS     0.019490669
 Search for a local minimum.
 Step number   2 out of a maximum of   57
 All quantities printed in internal units (Hartrees-Bohrs-Radians)
 Mixed Optimization -- RFO/linear search
 Update second derivatives using D2CorX and points    1    2
 DE= -4.11D-02 DEPred=-3.79D-02 R= 1.08D+00
 TightC=F SS=  1.41D+00  RLast= 3.00D-01 DXNew= 5.0454D-01 9.0000D-01
 Trust test= 1.08D+00 RLast= 3.00D-01 DXMaxT set to 5.05D-01
 ITU=  1  0
 Use linear search instead of GDIIS.
 Linear search step of   0.600 exceeds DXMaxT=   0.505 but not scaled.
 Quartic linear search produced a step of  2.00000.
 Iteration  1 RMS(Cart)=  0.05282848 RMS(Int)=  0.05486045
 Iteration  2 RMS(Cart)=  0.02775428 RMS(Int)=  0.02568693
 Iteration  3 RMS(Cart)=  0.02449152 RMS(Int)=  0.00003870
 Iteration  4 RMS(Cart)=  0.00000003 RMS(Int)=  0.00003870
 ClnCor:  largest displacement from symmetrization is 7.00D-09 for atom     1.
 Variable       Old X    -DE/DX   Delta X   Delta X   Delta X     New X
                                 (Linear)    (Quad)   (Total)
    R1        2.64934  -0.00122  -0.01484   0.00000  -0.01484   2.63450
    R2        2.63547  -0.01345  -0.04259   0.00000  -0.04264   2.59283
    R3        3.30579  -0.01986  -0.06112   0.00000  -0.06112   3.24467
    R4        2.62870  -0.01445  -0.05613   0.00000  -0.05608   2.57262
    R5        3.31017  -0.01838  -0.05233   0.00000  -0.05233   3.25784
    R6        2.62870  -0.01445  -0.05614   0.00000  -0.05608   2.57261
    R7        3.04828  -0.12339  -0.57610   0.00000  -0.57610   2.47218
    R8        2.64935  -0.00123  -0.01485   0.00000  -0.01485   2.63450
    R9        3.31017  -0.01838  -0.05233   0.00000  -0.05233   3.25784
   R10        2.63546  -0.01345  -0.04258   0.00000  -0.04263   2.59283
   R11        3.30577  -0.01985  -0.06111   0.00000  -0.06111   3.24466
    A1        2.10351   0.00437   0.01823   0.00000   0.01818   2.12169
    A2        2.09213  -0.00103  -0.00453   0.00000  -0.00451   2.08762
    A3        2.08755  -0.00334  -0.01370   0.00000  -0.01367   2.07388
    A4        2.08631  -0.00502  -0.01617   0.00000  -0.01611   2.07020
    A5        2.10900   0.00917   0.02920   0.00000   0.02917   2.13817
    A6        2.08788  -0.00414  -0.01303   0.00000  -0.01306   2.07481
    A7        2.10421   0.00572   0.01963   0.00000   0.01974   2.12396
    A8        2.08949  -0.00286  -0.00982   0.00000  -0.00987   2.07961
    A9        2.08949  -0.00286  -0.00982   0.00000  -0.00987   2.07961
   A10        2.08631  -0.00502  -0.01617   0.00000  -0.01611   2.07020
   A11        2.08788  -0.00414  -0.01303   0.00000  -0.01307   2.07482
   A12        2.10900   0.00917   0.02920   0.00000   0.02917   2.13817
   A13        2.10351   0.00437   0.01822   0.00000   0.01818   2.12169
   A14        2.09212  -0.00103  -0.00453   0.00000  -0.00451   2.08762
   A15        2.08755  -0.00334  -0.01370   0.00000  -0.01367   2.07388
   A16        2.08253  -0.00442  -0.02374   0.00000  -0.02389   2.05864
    D1        0.00000  -0.00000   0.00000   0.00000  -0.00000   0.00000
    D2        3.14159  -0.00000   0.00000   0.00000   0.00000   3.14159
    D3        3.14159   0.00000   0.00000   0.00000   0.00000   3.14159
    D4        0.00000   0.00000   0.00000   0.00000   0.00000   0.00000
    D5       -0.00000   0.00000   0.00000   0.00000   0.00000   0.00000
    D6        3.14159  -0.00000   0.00000   0.00000   0.00000   3.14159
    D7       -0.00000   0.00000   0.00000   0.00000   0.00000   0.00000
    D8        3.14159  -0.00000   0.00000   0.00000   0.00000   3.14159
    D9        3.14159   0.00000   0.00000   0.00000   0.00000   3.14159
   D10       -0.00000  -0.00000   0.00000   0.00000   0.00000   0.00000
   D11        0.00000   0.00000   0.00000   0.00000  -0.00000   0.00000
   D12        3.14159  -0.00000   0.00000   0.00000   0.00000   3.14159
   D13        3.14159   0.00000   0.00000   0.00000   0.00000   3.14159
   D14        0.00000   0.00000   0.00000   0.00000  -0.00000   0.00000
   D15       -0.00000  -0.00000   0.00000   0.00000   0.00000   0.00000
   D16        3.14159  -0.00000   0.00000   0.00000   0.00000   3.14159
   D17        3.14159   0.00000   0.00000   0.00000   0.00000   3.14159
   D18        0.00000  -0.00000   0.00000   0.00000  -0.00000   0.00000
   D19        0.00000  -0.00000   0.00000   0.00000   0.00000   0.00000
   D20        3.14159   0.00000   0.00000   0.00000   0.00000   3.14159
         Item               Value     Threshold  Converged?
 Maximum Force            0.123385     0.000450     NO 
 RMS     Force            0.019491     0.000300     NO 
 Maximum Displacement     0.496138     0.001800     NO 
 RMS     Displacement     0.096810     0.001200     NO 
 Predicted change in Energy=-7.554016D-02
 GradGradGradGradGradGradGradGradGradGradGradGradGradGradGradGradGradGrad

                          Input orientation:                          
 ---------------------------------------------------------------------
 Center     Atomic      Atomic             Coordinates (Angstroms)
 Number     Number       Type             X           Y           Z
 ---------------------------------------------------------------------
      1          6           0       -3.147808    0.188200   -0.000000
      2          6           0       -1.966990    0.929297   -0.000000
      3          6           0       -0.779470    0.263620    0.000000
      4          6           0       -0.721976   -1.096534    0.000000
      5          6           0       -1.916540   -1.815271    0.000000
      6          6           0       -3.134658   -1.183803   -0.000000
      7         17           0       -4.659944    1.001557   -0.000000
      8         17           0        0.821434   -1.864628    0.000000
      9         17           0       -1.873914   -3.531744    0.000000
     10         17           0       -1.955098    2.653231   -0.000000
     11          1           0        0.335095    0.948596    0.000000
 ---------------------------------------------------------------------
                    Distance matrix (angstroms):
                    1          2          3          4          5
     1  C    0.000000
     2  C    1.394115   0.000000
     3  C    2.369539   1.361371   0.000000
     4  C    2.745033   2.377825   1.361368   0.000000
     5  C    2.351578   2.745032   2.369539   1.394119   0.000000
     6  C    1.372066   2.414257   2.764406   2.414260   1.372065
     7  Cl   1.717005   2.693923   3.950017   4.462016   3.932021
     8  Cl   4.468667   3.947319   2.663143   1.723973   2.738418
     9  Cl   3.932021   4.462012   3.950012   2.693922   1.717002
    10  Cl   2.738418   1.723975   2.663145   3.947319   4.468668
    11  H    3.564943   2.302166   1.308223   2.302163   3.564943
                    6          7          8          9         10
     6  C    0.000000
     7  Cl   2.665013   0.000000
     8  Cl   4.014247   6.185509   0.000000
     9  Cl   2.665015   5.320976   3.169255   0.000000
    10  Cl   4.014248   3.169262   5.302846   6.185508   0.000000
    11  H    4.072629   4.995320   2.854953   4.995315   2.854954
                   11
    11  H    0.000000
 Stoichiometry    C6HCl4(1-)
 Framework group  CS[SG(C6HCl4)]
 Deg. of freedom    19
 Full point group                 CS      NOp   2
 Largest Abelian subgroup         CS      NOp   2
 Largest concise Abelian subgroup C1      NOp   1
                         Standard orientation:                         
 ---------------------------------------------------------------------
 Center     Atomic      Atomic             Coordinates (Angstroms)
 Number     Number       Type             X           Y           Z
 ---------------------------------------------------------------------
      1          6           0       -0.736229    1.175790    0.000000
      2          6           0        0.657824    1.188912    0.000000
      3          6           0        1.321008   -0.000002    0.000000
      4          6           0        0.657824   -1.188913    0.000000
      5          6           0       -0.736233   -1.175788    0.000000
      6          6           0       -1.443397    0.000002    0.000000
      7         17           0       -1.598652    2.660489    0.000000
      8         17           0        1.570590   -2.651425    0.000000
      9         17           0       -1.598652   -2.660486    0.000000
     10         17           0        1.570597    2.651421    0.000000
     11          1           0        2.629231   -0.000003    0.000000
 ---------------------------------------------------------------------
 Rotational constants (GHZ):           1.1820947           0.4795769           0.3411657
 Standard basis: VSTO-6G (5D, 7F)
 There are    31 symmetry adapted cartesian basis functions of A'  symmetry.
 There are    10 symmetry adapted cartesian basis functions of A"  symmetry.
 There are    31 symmetry adapted basis functions of A'  symmetry.
 There are    10 symmetry adapted basis functions of A"  symmetry.
    41 basis functions,   246 primitive gaussians,    41 cartesian basis functions
    27 alpha electrons       27 beta electrons
       nuclear repulsion energy       295.8578400267 Hartrees.
 Integral buffers will be    131072 words long.
 Regular integral format.
 Two-electron integral symmetry is turned off.
 Do NDO integrals.
 One-electron integrals computed using PRISM.
 NBasis=    41 RedAO= T EigKep=  1.00D+00  NBF=    31    10
 NBsUse=    41 1.00D-06 EigRej= -1.00D+00 NBFU=    31    10
 Initial guess from the checkpoint file:  "geometry_chks/_2345ClBzAnionIntermediate.chk"
 B after Tr=    -0.000000    0.000000   -0.000000
         Rot=    0.707107   -0.000000   -0.000000   -0.707106 Ang= -90.00 deg.
 Initial guess orbital symmetries:
       Occupied  (A') (A') (A') (A') (A') (A') (A') (A') (A') (A')
                 (A') (A') (A') (A") (A") (A') (A") (A') (A") (A')
                 (A') (A') (A") (A') (A") (A") (A')
       Virtual   (A") (A') (A") (A') (A') (A') (A') (A") (A') (A')
                 (A') (A') (A') (A')
 Keep J ints in memory in canonical form, NReq=864464.
 Overlap will be assumed to be unity.
 Requested convergence on RMS density matrix=1.00D-08 within**** cycles.
 Requested convergence on MAX density matrix=1.00D-06.
 Requested convergence on             energy=1.00D-06.
 No special actions if energy rises.
 Fock symm off for IB=2 I1=    1 I=   32 J=    5 Cut=1.00D-07 Err=1.92D-03
 Fock matrix is not symmetric: symmetry in diagonalization turned off.
 SCF Done:  E(RAM1) =  0.318335527220E-01 A.U. after   13 cycles
            NFock= 12  Conv=0.98D-08     -V/T= 1.0002
 Calling FoFJK, ICntrl=      2127 FMM=F ISym2X=1 I1Cent= 0 IOpClX= 0 NMat=1 NMatS=1 NMatT=0.
 ***** Axes restored to original set *****
 -------------------------------------------------------------------
 Center     Atomic                   Forces (Hartrees/Bohr)
 Number     Number              X              Y              Z
 -------------------------------------------------------------------
      1        6          -0.019753456    0.010323375    0.000000000
      2        6          -0.022620185    0.031344998    0.000000000
      3        6           0.112874875    0.069371567   -0.000000000
      4        6           0.017744141   -0.034342669   -0.000000000
      5        6           0.000289316   -0.022284059    0.000000000
      6        6          -0.010372830   -0.006375917   -0.000000000
      7       17          -0.001291403    0.001196523   -0.000000000
      8       17          -0.002269320    0.001615984   -0.000000000
      9       17           0.000483776   -0.001693627    0.000000000
     10       17           0.000416537   -0.002755543   -0.000000000
     11        1          -0.075501450   -0.046400631   -0.000000000
 -------------------------------------------------------------------
 Cartesian Forces:  Max     0.112874875 RMS     0.029928453

 GradGradGradGradGradGradGradGradGradGradGradGradGradGradGradGradGradGrad
 Berny optimization.
 Using GEDIIS/GDIIS optimizer.
 FormGI is forming the generalized inverse of G from B-inverse, IUseBI=4.
 Internal  Forces:  Max     0.088619905 RMS     0.016689300
 Search for a local minimum.
 Step number   3 out of a maximum of   57
 All quantities printed in internal units (Hartrees-Bohrs-Radians)
 Mixed Optimization -- RFO/linear search
 Update second derivatives using D2CorX and points    2    3
 ITU=  0  1  0
 Use linear search instead of GDIIS.
     Eigenvalues ---    0.02011   0.02011   0.02011   0.02011   0.02011
     Eigenvalues ---    0.02011   0.02011   0.02011   0.05048   0.16000
     Eigenvalues ---    0.23454   0.24931   0.25000   0.25000   0.25000
     Eigenvalues ---    0.25000   0.25301   0.28591   0.29033   0.29033
     Eigenvalues ---    0.29118   0.41036   0.41541   0.44606   0.44656
     Eigenvalues ---    0.44657   0.66285
 RFO step:  Lambda=-4.21477520D-02 EMin= 2.01065539D-02
 Quartic linear search produced a step of  0.53112.
 Iteration  1 RMS(Cart)=  0.03368945 RMS(Int)=  0.07540163
 Iteration  2 RMS(Cart)=  0.02781407 RMS(Int)=  0.04622852
 Iteration  3 RMS(Cart)=  0.02781536 RMS(Int)=  0.01705556
 Iteration  4 RMS(Cart)=  0.01626177 RMS(Int)=  0.00004992
 Iteration  5 RMS(Cart)=  0.00000001 RMS(Int)=  0.00004992
 ClnCor:  largest displacement from symmetrization is 4.63D-10 for atom     8.
 Variable       Old X    -DE/DX   Delta X   Delta X   Delta X     New X
                                 (Linear)    (Quad)   (Total)
    R1        2.63450   0.01799  -0.00788   0.04833   0.04045   2.67494
    R2        2.59283   0.02122  -0.02265   0.06250   0.03978   2.63261
    R3        3.24467   0.00170  -0.03246   0.02926  -0.00320   3.24147
    R4        2.57262   0.04188  -0.02979   0.12192   0.09221   2.66482
    R5        3.25784  -0.00275  -0.02780   0.00995  -0.01784   3.24000
    R6        2.57261   0.04188  -0.02979   0.12193   0.09221   2.66482
    R7        2.47218  -0.08862  -0.30598  -0.41092  -0.71690   1.75528
    R8        2.63450   0.01799  -0.00789   0.04833   0.04044   2.67494
    R9        3.25784  -0.00275  -0.02779   0.00996  -0.01784   3.24000
   R10        2.59283   0.02122  -0.02264   0.06249   0.03978   2.63261
   R11        3.24466   0.00171  -0.03245   0.02926  -0.00319   3.24147
    A1        2.12169  -0.00212   0.00966  -0.01855  -0.00895   2.11274
    A2        2.08762   0.00034  -0.00239   0.00443   0.00207   2.08969
    A3        2.07388   0.00178  -0.00726   0.01412   0.00689   2.08076
    A4        2.07020  -0.00133  -0.00856   0.00563  -0.00285   2.06735
    A5        2.13817   0.00138   0.01549  -0.00879   0.00667   2.14484
    A6        2.07481  -0.00004  -0.00694   0.00316  -0.00382   2.07100
    A7        2.12396  -0.00387   0.01049  -0.01915  -0.00852   2.11544
    A8        2.07961   0.00193  -0.00524   0.00957   0.00426   2.08387
    A9        2.07961   0.00193  -0.00524   0.00958   0.00426   2.08387
   A10        2.07020  -0.00133  -0.00855   0.00563  -0.00285   2.06735
   A11        2.07482  -0.00004  -0.00694   0.00316  -0.00382   2.07100
   A12        2.13817   0.00138   0.01549  -0.00879   0.00667   2.14484
   A13        2.12169  -0.00212   0.00966  -0.01855  -0.00895   2.11273
   A14        2.08762   0.00034  -0.00239   0.00443   0.00207   2.08969
   A15        2.07388   0.00178  -0.00726   0.01412   0.00688   2.08076
   A16        2.05864   0.01077  -0.01269   0.04500   0.03212   2.09076
    D1        0.00000   0.00000   0.00000   0.00000   0.00000   0.00000
    D2        3.14159  -0.00000   0.00000  -0.00000   0.00000   3.14159
    D3        3.14159   0.00000   0.00000   0.00000   0.00000   3.14159
    D4        0.00000   0.00000   0.00000   0.00000   0.00000   0.00000
    D5        0.00000   0.00000   0.00000   0.00000   0.00000   0.00000
    D6        3.14159  -0.00000   0.00000  -0.00000   0.00000   3.14159
    D7        0.00000  -0.00000   0.00000  -0.00000   0.00000   0.00000
    D8        3.14159  -0.00000   0.00000  -0.00000   0.00000   3.14159
    D9        3.14159   0.00000   0.00000   0.00000   0.00000   3.14159
   D10        0.00000  -0.00000   0.00000  -0.00000   0.00000   0.00000
   D11        0.00000   0.00000   0.00000   0.00000   0.00000   0.00000
   D12        3.14159  -0.00000   0.00000  -0.00000   0.00000   3.14159
   D13        3.14159   0.00000   0.00000   0.00000   0.00000   3.14159
   D14        0.00000   0.00000   0.00000   0.00000   0.00000   0.00000
   D15        0.00000   0.00000   0.00000   0.00000   0.00000   0.00000
   D16        3.14159  -0.00000   0.00000  -0.00000   0.00000   3.14159
   D17        3.14159   0.00000   0.00000   0.00000   0.00000   3.14159
   D18        0.00000  -0.00000   0.00000  -0.00000   0.00000   0.00000
   D19        0.00000  -0.00000   0.00000  -0.00000   0.00000   0.00000
   D20        3.14159   0.00000   0.00000   0.00000   0.00000   3.14159
         Item               Value     Threshold  Converged?
 Maximum Force            0.088620     0.000450     NO 
 RMS     Force            0.016689     0.000300     NO 
 Maximum Displacement     0.497334     0.001800     NO 
 RMS     Displacement     0.093828     0.001200     NO 
 Predicted change in Energy=-5.806879D-02
 GradGradGradGradGradGradGradGradGradGradGradGradGradGradGradGradGradGrad

                          Input orientation:                          
 ---------------------------------------------------------------------
 Center     Atomic      Atomic             Coordinates (Angstroms)
 Number     Number       Type             X           Y           Z
 ---------------------------------------------------------------------
      1          6           0       -3.146014    0.223830    0.000000
      2          6           0       -1.952445    0.984808    0.000000
      3          6           0       -0.719438    0.300515    0.000000
      4          6           0       -0.665883   -1.108632    0.000000
      5          6           0       -1.883940   -1.829765    0.000000
      6          6           0       -3.110292   -1.168829    0.000000
      7         17           0       -4.664049    1.022493    0.000000
      8         17           0        0.868740   -1.873194    0.000000
      9         17           0       -1.857093   -3.544866    0.000000
     10         17           0       -1.941372    2.699304    0.000000
     11          1           0        0.071917    0.786857    0.000000
 ---------------------------------------------------------------------
                    Distance matrix (angstroms):
                    1          2          3          4          5
     1  C    0.000000
     2  C    1.415518   0.000000
     3  C    2.427787   1.410164   0.000000
     4  C    2.815405   2.457180   1.410164   0.000000
     5  C    2.410411   2.815406   2.427788   1.415519   0.000000
     6  C    1.393118   2.445150   2.806270   2.445150   1.393117
     7  Cl   1.715311   2.711866   4.010138   4.530676   3.983012
     8  Cl   4.529432   4.015876   2.692084   1.714532   2.753022
     9  Cl   3.983013   4.530678   4.010139   2.711866   1.715312
    10  Cl   2.753023   1.714532   2.692083   4.015875   4.529433
    11  H    3.266815   2.034017   0.928855   2.034018   3.266816
                    6          7          8          9         10
     6  C    0.000000
     7  Cl   2.686272   0.000000
     8  Cl   4.040893   6.244738   0.000000
     9  Cl   2.686272   5.360949   3.197601   0.000000
    10  Cl   4.040895   3.197604   5.366979   6.244739   0.000000
    11  H    3.735126   4.741824   2.776833   4.741826   2.776830
                   11
    11  H    0.000000
 Stoichiometry    C6HCl4(1-)
 Framework group  CS[SG(C6HCl4)]
 Deg. of freedom    19
 Full point group                 CS      NOp   2
 Largest Abelian subgroup         CS      NOp   2
 Largest concise Abelian subgroup C1      NOp   1
                         Standard orientation:                         
 ---------------------------------------------------------------------
 Center     Atomic      Atomic             Coordinates (Angstroms)
 Number     Number       Type             X           Y           Z
 ---------------------------------------------------------------------
      1          6           0       -0.739824    1.205206   -0.000000
      2          6           0        0.675501    1.228591   -0.000000
      3          6           0        1.367693    0.000001    0.000000
      4          6           0        0.675502   -1.228589    0.000000
      5          6           0       -0.739824   -1.205206    0.000000
      6          6           0       -1.438577   -0.000001   -0.000000
      7         17           0       -1.614969    2.680473   -0.000000
      8         17           0        1.582633   -2.683489    0.000000
      9         17           0       -1.614966   -2.680476    0.000000
     10         17           0        1.582633    2.683490   -0.000000
     11          1           0        2.296549    0.000002    0.000000
 ---------------------------------------------------------------------
 Rotational constants (GHZ):           1.1638267           0.4691534           0.3343661
 Standard basis: VSTO-6G (5D, 7F)
 There are    31 symmetry adapted cartesian basis functions of A'  symmetry.
 There are    10 symmetry adapted cartesian basis functions of A"  symmetry.
 There are    31 symmetry adapted basis functions of A'  symmetry.
 There are    10 symmetry adapted basis functions of A"  symmetry.
    41 basis functions,   246 primitive gaussians,    41 cartesian basis functions
    27 alpha electrons       27 beta electrons
       nuclear repulsion energy       294.6770900052 Hartrees.
 Integral buffers will be    131072 words long.
 Regular integral format.
 Two-electron integral symmetry is turned off.
 Do NDO integrals.
 One-electron integrals computed using PRISM.
 NBasis=    41 RedAO= T EigKep=  1.00D+00  NBF=    31    10
 NBsUse=    41 1.00D-06 EigRej= -1.00D+00 NBFU=    31    10
 Initial guess from the checkpoint file:  "geometry_chks/_2345ClBzAnionIntermediate.chk"
 B after Tr=    -0.000000    0.000000   -0.000000
         Rot=    1.000000   -0.000000   -0.000000   -0.000001 Ang=  -0.00 deg.
 Initial guess orbital symmetries:
       Occupied  (A') (A') (A') (A') (A') (A') (A') (A') (A') (A')
                 (A') (A') (A') (A") (A") (A') (A') (A") (A") (A')
                 (A') (A') (A") (A') (A") (A") (A')
       Virtual   (A") (A') (A") (A') (A') (A') (A') (A") (A') (A')
                 (A') (A') (A') (A')
 Keep J ints in memory in canonical form, NReq=864464.
 Overlap will be assumed to be unity.
 Requested convergence on RMS density matrix=1.00D-08 within**** cycles.
 Requested convergence on MAX density matrix=1.00D-06.
 Requested convergence on             energy=1.00D-06.
 No special actions if energy rises.
 Fock symm off for IB=2 I1=    1 I=   32 J=    9 Cut=1.00D-07 Err=1.41D-03
 Fock matrix is not symmetric: symmetry in diagonalization turned off.
 SCF Done:  E(RAM1) =  0.326716839045E-01 A.U. after   13 cycles
            NFock= 12  Conv=0.71D-08     -V/T= 1.0002
 Calling FoFJK, ICntrl=      2127 FMM=F ISym2X=1 I1Cent= 0 IOpClX= 0 NMat=1 NMatS=1 NMatT=0.
 ***** Axes restored to original set *****
 -------------------------------------------------------------------
 Center     Atomic                   Forces (Hartrees/Bohr)
 Number     Number              X              Y              Z
 -------------------------------------------------------------------
      1        6           0.014830824   -0.002935185    0.000000000
      2        6          -0.011952390   -0.021932982    0.000000000
      3        6          -0.132759765   -0.081590608    0.000000000
      4        6          -0.024967004   -0.000756350   -0.000000000
      5        6           0.004081375    0.014557493   -0.000000000
      6        6           0.007355050    0.004520794   -0.000000000
      7       17           0.001729765   -0.000699283   -0.000000000
      8       17          -0.002099691    0.001448615   -0.000000000
      9       17           0.000157354    0.001859313    0.000000000
     10       17           0.000343787   -0.002527595   -0.000000000
     11        1           0.143280694    0.088055788   -0.000000000
 -------------------------------------------------------------------
 Cartesian Forces:  Max     0.143280694 RMS     0.040588421

 GradGradGradGradGradGradGradGradGradGradGradGradGradGradGradGradGradGrad
 Berny optimization.
 Using GEDIIS/GDIIS optimizer.
 FormGI is forming the generalized inverse of G from B-inverse, IUseBI=4.
 Internal  Forces:  Max     0.168176036 RMS     0.025194756
 Search for a local minimum.
 Step number   4 out of a maximum of   57
 All quantities printed in internal units (Hartrees-Bohrs-Radians)
 Mixed Optimization -- RFO/linear search
 Update second derivatives using D2CorX and points    2    4    3
 DE=  8.38D-04 DEPred=-5.81D-02 R=-1.44D-02
 Trust test=-1.44D-02 RLast= 7.35D-01 DXMaxT set to 2.52D-01
 ITU= -1  0  1  0
 Use linear search instead of GDIIS.
     Eigenvalues ---    0.02011   0.02011   0.02011   0.02011   0.02011
     Eigenvalues ---    0.02011   0.02011   0.02011   0.16000   0.23037
     Eigenvalues ---    0.24904   0.24999   0.25000   0.25000   0.25000
     Eigenvalues ---    0.25278   0.28503   0.29033   0.29033   0.29114
     Eigenvalues ---    0.35097   0.41223   0.41883   0.44656   0.44657
     Eigenvalues ---    0.45181   0.56487
 RFO step:  Lambda=-2.61616297D-03 EMin= 2.01065525D-02
 Quartic linear search produced a step of -0.44399.
 Iteration  1 RMS(Cart)=  0.03292903 RMS(Int)=  0.01939996
 Iteration  2 RMS(Cart)=  0.01846651 RMS(Int)=  0.00000273
 Iteration  3 RMS(Cart)=  0.00000001 RMS(Int)=  0.00000273
 ClnCor:  largest displacement from symmetrization is 1.61D-12 for atom    10.
 Variable       Old X    -DE/DX   Delta X   Delta X   Delta X     New X
                                 (Linear)    (Quad)   (Total)
    R1        2.67494  -0.01656  -0.01796   0.00172  -0.01624   2.65870
    R2        2.63261  -0.01426  -0.01766   0.00411  -0.01356   2.61905
    R3        3.24147  -0.00186   0.00142  -0.00644  -0.00502   3.23645
    R4        2.66482  -0.00790  -0.04094   0.04130   0.00036   2.66519
    R5        3.24000  -0.00253   0.00792  -0.01687  -0.00894   3.23105
    R6        2.66482  -0.00790  -0.04094   0.04130   0.00036   2.66519
    R7        1.75528   0.16818   0.31830   0.01470   0.33300   2.08828
    R8        2.67494  -0.01656  -0.01796   0.00171  -0.01624   2.65870
    R9        3.24000  -0.00253   0.00792  -0.01686  -0.00894   3.23105
   R10        2.63261  -0.01426  -0.01766   0.00411  -0.01356   2.61905
   R11        3.24147  -0.00186   0.00142  -0.00644  -0.00502   3.23645
    A1        2.11274   0.00260   0.00397  -0.00074   0.00323   2.11597
    A2        2.08969  -0.00160  -0.00092  -0.00176  -0.00267   2.08701
    A3        2.08076  -0.00100  -0.00306   0.00250  -0.00056   2.08020
    A4        2.06735   0.00665   0.00127   0.01428   0.01555   2.08290
    A5        2.14484  -0.00274  -0.00296  -0.00151  -0.00447   2.14037
    A6        2.07100  -0.00391   0.00170  -0.01277  -0.01108   2.05992
    A7        2.11544  -0.01347   0.00378  -0.03336  -0.02957   2.08587
    A8        2.08387   0.00673  -0.00189   0.01668   0.01479   2.09866
    A9        2.08387   0.00673  -0.00189   0.01668   0.01479   2.09866
   A10        2.06735   0.00665   0.00126   0.01428   0.01555   2.08290
   A11        2.07100  -0.00391   0.00170  -0.01277  -0.01108   2.05992
   A12        2.14484  -0.00274  -0.00296  -0.00150  -0.00447   2.14037
   A13        2.11273   0.00260   0.00397  -0.00074   0.00323   2.11597
   A14        2.08969  -0.00160  -0.00092  -0.00176  -0.00267   2.08701
   A15        2.08076  -0.00100  -0.00306   0.00249  -0.00056   2.08020
   A16        2.09076  -0.00503  -0.01426   0.00629  -0.00799   2.08277
    D1       -0.00000  -0.00000   0.00000  -0.00000   0.00000   0.00000
    D2        3.14159  -0.00000   0.00000  -0.00000   0.00000   3.14159
    D3        3.14159   0.00000   0.00000   0.00000   0.00000   3.14159
    D4       -0.00000   0.00000   0.00000   0.00000   0.00000   0.00000
    D5        0.00000   0.00000   0.00000   0.00000   0.00000   0.00000
    D6        3.14159  -0.00000   0.00000  -0.00000   0.00000   3.14159
    D7        0.00000  -0.00000   0.00000  -0.00000  -0.00000   0.00000
    D8        3.14159  -0.00000   0.00000  -0.00000   0.00000   3.14159
    D9        3.14159   0.00000   0.00000   0.00000   0.00000   3.14159
   D10        0.00000   0.00000   0.00000  -0.00000   0.00000   0.00000
   D11       -0.00000   0.00000   0.00000   0.00000   0.00000   0.00000
   D12        3.14159   0.00000   0.00000  -0.00000   0.00000   3.14159
   D13        3.14159   0.00000   0.00000   0.00000   0.00000   3.14159
   D14       -0.00000   0.00000   0.00000   0.00000   0.00000   0.00000
   D15       -0.00000   0.00000   0.00000   0.00000   0.00000   0.00000
   D16        3.14159   0.00000   0.00000  -0.00000   0.00000   3.14159
   D17        3.14159   0.00000   0.00000   0.00000   0.00000   3.14159
   D18        0.00000   0.00000   0.00000  -0.00000  -0.00000   0.00000
   D19        0.00000  -0.00000   0.00000  -0.00000  -0.00000   0.00000
   D20        3.14159  -0.00000   0.00000  -0.00000   0.00000   3.14159
         Item               Value     Threshold  Converged?
 Maximum Force            0.168176     0.000450     NO 
 RMS     Force            0.025195     0.000300     NO 
 Maximum Displacement     0.276196     0.001800     NO 
 RMS     Displacement     0.050751     0.001200     NO 
 Predicted change in Energy=-3.617016D-02
 GradGradGradGradGradGradGradGradGradGradGradGradGradGradGradGradGradGrad

                          Input orientation:                          
 ---------------------------------------------------------------------
 Center     Atomic      Atomic             Coordinates (Angstroms)
 Number     Number       Type             X           Y           Z
 ---------------------------------------------------------------------
      1          6           0       -3.153466    0.208696    0.000000
      2          6           0       -1.966570    0.964151    0.000000
      3          6           0       -0.723411    0.298073    0.000000
      4          6           0       -0.690692   -1.111904   -0.000000
      5          6           0       -1.900808   -1.829577   -0.000000
      6          6           0       -3.123460   -1.176922    0.000000
      7         17           0       -4.666404    1.011323    0.000000
      8         17           0        0.836858   -1.880024   -0.000000
      9         17           0       -1.868123   -3.541922   -0.000000
     10         17           0       -1.961867    2.673945    0.000000
     11          1           0        0.218074    0.876681    0.000000
 ---------------------------------------------------------------------
                    Distance matrix (angstroms):
                    1          2          3          4          5
     1  C    0.000000
     2  C    1.406924   0.000000
     3  C    2.431698   1.410356   0.000000
     4  C    2.794502   2.436774   1.410356   0.000000
     5  C    2.392428   2.794502   2.431698   1.406924   0.000000
     6  C    1.385943   2.433637   2.817063   2.433637   1.385943
     7  Cl   1.712656   2.700246   4.006983   4.507147   3.964749
     8  Cl   4.503936   3.993562   2.679280   1.709801   2.738130
     9  Cl   3.964751   4.507149   4.006985   2.700247   1.712657
    10  Cl   2.738130   1.709800   2.679280   3.993561   4.503936
    11  H    3.437075   2.186394   1.105071   2.186395   3.437076
                    6          7          8          9         10
     6  C    0.000000
     7  Cl   2.677516   0.000000
     8  Cl   4.022247   6.216573   0.000000
     9  Cl   2.677517   5.344382   3.174717   0.000000
    10  Cl   4.022248   3.174718   5.345230   6.216574   0.000000
    11  H    3.922134   4.886333   2.825299   4.886335   2.825296
                   11
    11  H    0.000000
 Stoichiometry    C6HCl4(1-)
 Framework group  CS[SG(C6HCl4)]
 Deg. of freedom    19
 Full point group                 CS      NOp   2
 Largest Abelian subgroup         CS      NOp   2
 Largest concise Abelian subgroup C1      NOp   1
                         Standard orientation:                         
 ---------------------------------------------------------------------
 Center     Atomic      Atomic             Coordinates (Angstroms)
 Number     Number       Type             X           Y           Z
 ---------------------------------------------------------------------
      1          6           0       -0.737842    1.196214   -0.000000
      2          6           0        0.668907    1.218387   -0.000000
      3          6           0        1.379285    0.000001    0.000000
      4          6           0        0.668907   -1.218386    0.000000
      5          6           0       -0.737842   -1.196214    0.000000
      6          6           0       -1.437778   -0.000000   -0.000000
      7         17           0       -1.606567    2.672190   -0.000000
      8         17           0        1.568150   -2.672615    0.000000
      9         17           0       -1.606567   -2.672192    0.000000
     10         17           0        1.568150    2.672615   -0.000000
     11          1           0        2.484356    0.000001    0.000000
 ---------------------------------------------------------------------
 Rotational constants (GHZ):           1.1749538           0.4727927           0.3371329
 Standard basis: VSTO-6G (5D, 7F)
 There are    31 symmetry adapted cartesian basis functions of A'  symmetry.
 There are    10 symmetry adapted cartesian basis functions of A"  symmetry.
 There are    31 symmetry adapted basis functions of A'  symmetry.
 There are    10 symmetry adapted basis functions of A"  symmetry.
    41 basis functions,   246 primitive gaussians,    41 cartesian basis functions
    27 alpha electrons       27 beta electrons
       nuclear repulsion energy       294.9339383713 Hartrees.
 Integral buffers will be    131072 words long.
 Regular integral format.
 Two-electron integral symmetry is turned off.
 Do NDO integrals.
 One-electron integrals computed using PRISM.
 NBasis=    41 RedAO= T EigKep=  1.00D+00  NBF=    31    10
 NBsUse=    41 1.00D-06 EigRej= -1.00D+00 NBFU=    31    10
 Lowest energy guess from the checkpoint file:  "geometry_chks/_2345ClBzAnionIntermediate.chk"
 B after Tr=     0.000000   -0.000000    0.000000
         Rot=    1.000000   -0.000000   -0.000000   -0.000000 Ang=  -0.00 deg.
 B after Tr=     0.000000   -0.000000    0.000000
         Rot=    1.000000    0.000000    0.000000    0.000000 Ang=   0.00 deg.
 Initial guess orbital symmetries:
       Occupied  (A') (A') (A") (A') (A') (A') (A') (A') (A') (A")
                 (A') (A') (A") (A') (A") (A") (A") (A") (A") (A")
                 (A") (A") (A") (A") (A") (A") (A")
       Virtual   (A') (A') (A") (A') (A') (A') (A') (A') (A') (A")
                 (A') (A') (A") (A')
 Keep J ints in memory in canonical form, NReq=864464.
 Overlap will be assumed to be unity.
 Requested convergence on RMS density matrix=1.00D-08 within**** cycles.
 Requested convergence on MAX density matrix=1.00D-06.
 Requested convergence on             energy=1.00D-06.
 No special actions if energy rises.
 An orbital has undefined symmetry, so N**3 symmetry is turned off.
 SCF Done:  E(RAM1) =  0.781634630926E-02 A.U. after   12 cycles
            NFock= 11  Conv=0.76D-08     -V/T= 1.0001
 Calling FoFJK, ICntrl=      2127 FMM=F ISym2X=1 I1Cent= 0 IOpClX= 0 NMat=1 NMatS=1 NMatT=0.
 ***** Axes restored to original set *****
 -------------------------------------------------------------------
 Center     Atomic                   Forces (Hartrees/Bohr)
 Number     Number              X              Y              Z
 -------------------------------------------------------------------
      1        6           0.007643238   -0.000986662    0.000000000
      2        6           0.006639259   -0.013549898   -0.000000000
      3        6          -0.005761910   -0.003541220    0.000000000
      4        6          -0.009089514    0.012043716   -0.000000000
      5        6           0.002572495    0.007264324   -0.000000000
      6        6           0.001395051    0.000857626   -0.000000000
      7       17          -0.001067179    0.000552402   -0.000000000
      8       17           0.002162223   -0.000555489    0.000000000
      9       17           0.000010785   -0.001201016    0.000000000
     10       17           0.000481016    0.002180239   -0.000000000
     11        1          -0.004985464   -0.003064022   -0.000000000
 -------------------------------------------------------------------
 Cartesian Forces:  Max     0.013549898 RMS     0.004504713

 GradGradGradGradGradGradGradGradGradGradGradGradGradGradGradGradGradGrad
 Berny optimization.
 Using GEDIIS/GDIIS optimizer.
 FormGI is forming the generalized inverse of G from B-inverse, IUseBI=4.
 Internal  Forces:  Max     0.014120827 RMS     0.003538395
 Search for a local minimum.
 Step number   5 out of a maximum of   57
 All quantities printed in internal units (Hartrees-Bohrs-Radians)
 Mixed Optimization -- RFO/linear search
 Update second derivatives using D2CorX and points    4    3    5
 DE= -2.40D-02 DEPred=-3.62D-02 R= 6.64D-01
 TightC=F SS=  1.41D+00  RLast= 4.15D-01 DXNew= 4.2426D-01 1.2453D+00
 Trust test= 6.64D-01 RLast= 4.15D-01 DXMaxT set to 4.24D-01
 ITU=  1 -1  0  1  0
 Use linear search instead of GDIIS.
     Eigenvalues ---    0.02011   0.02011   0.02011   0.02011   0.02011
     Eigenvalues ---    0.02011   0.02011   0.02011   0.16000   0.19175
     Eigenvalues ---    0.24873   0.24994   0.25000   0.25000   0.25000
     Eigenvalues ---    0.25250   0.26078   0.28988   0.29033   0.29033
     Eigenvalues ---    0.29229   0.41147   0.41998   0.44656   0.44657
     Eigenvalues ---    0.44779   0.69196
 RFO step:  Lambda=-1.06120513D-03 EMin= 2.01065513D-02
 Quartic linear search produced a step of -0.01786.
 Iteration  1 RMS(Cart)=  0.00959696 RMS(Int)=  0.00001797
 Iteration  2 RMS(Cart)=  0.00002372 RMS(Int)=  0.00000063
 Iteration  3 RMS(Cart)=  0.00000000 RMS(Int)=  0.00000063
 ClnCor:  largest displacement from symmetrization is 2.59D-09 for atom    11.
 Variable       Old X    -DE/DX   Delta X   Delta X   Delta X     New X
                                 (Linear)    (Quad)   (Total)
    R1        2.65870  -0.00621  -0.00043  -0.01028  -0.01071   2.64799
    R2        2.61905  -0.00435  -0.00047  -0.00409  -0.00456   2.61450
    R3        3.23645   0.00120   0.00015   0.00665   0.00680   3.24325
    R4        2.66519  -0.01412  -0.00165  -0.01927  -0.02092   2.64427
    R5        3.23105   0.00218   0.00048   0.00771   0.00819   3.23924
    R6        2.66519  -0.01412  -0.00165  -0.01927  -0.02092   2.64427
    R7        2.08828  -0.00585   0.00686  -0.03710  -0.03024   2.05804
    R8        2.65870  -0.00621  -0.00043  -0.01028  -0.01071   2.64799
    R9        3.23105   0.00218   0.00048   0.00771   0.00819   3.23924
   R10        2.61905  -0.00435  -0.00047  -0.00409  -0.00456   2.61450
   R11        3.23645   0.00120   0.00015   0.00665   0.00680   3.24325
    A1        2.11597   0.00005   0.00010  -0.00018  -0.00008   2.11589
    A2        2.08701  -0.00001   0.00001  -0.00042  -0.00041   2.08660
    A3        2.08020  -0.00005  -0.00011   0.00060   0.00049   2.08069
    A4        2.08290   0.00170  -0.00023   0.00716   0.00694   2.08983
    A5        2.14037  -0.00008  -0.00004  -0.00125  -0.00128   2.13909
    A6        2.05992  -0.00162   0.00027  -0.00592  -0.00565   2.05427
    A7        2.08587   0.00056   0.00068  -0.00576  -0.00508   2.08079
    A8        2.09866  -0.00028  -0.00034   0.00288   0.00254   2.10120
    A9        2.09866  -0.00028  -0.00034   0.00288   0.00254   2.10120
   A10        2.08290   0.00170  -0.00023   0.00716   0.00694   2.08983
   A11        2.05992  -0.00162   0.00027  -0.00592  -0.00565   2.05427
   A12        2.14037  -0.00008  -0.00004  -0.00125  -0.00128   2.13909
   A13        2.11597   0.00006   0.00010  -0.00018  -0.00008   2.11589
   A14        2.08701  -0.00001   0.00001  -0.00042  -0.00041   2.08660
   A15        2.08020  -0.00005  -0.00011   0.00060   0.00049   2.08069
   A16        2.08277  -0.00408  -0.00043  -0.00821  -0.00864   2.07413
    D1       -0.00000  -0.00000   0.00000  -0.00000   0.00000   0.00000
    D2        3.14159  -0.00000   0.00000  -0.00000   0.00000   3.14159
    D3        3.14159   0.00000   0.00000   0.00000   0.00000   3.14159
    D4        0.00000   0.00000   0.00000   0.00000  -0.00000   0.00000
    D5        0.00000   0.00000   0.00000   0.00000   0.00000   0.00000
    D6        3.14159  -0.00000   0.00000  -0.00000   0.00000   3.14159
    D7        0.00000   0.00000   0.00000   0.00000  -0.00000   0.00000
    D8        3.14159  -0.00000   0.00000  -0.00000   0.00000   3.14159
    D9        3.14159   0.00000   0.00000   0.00000   0.00000   3.14159
   D10       -0.00000  -0.00000   0.00000  -0.00000   0.00000   0.00000
   D11        0.00000   0.00000   0.00000   0.00000   0.00000   0.00000
   D12        3.14159   0.00000   0.00000   0.00000   0.00000   3.14159
   D13        3.14159   0.00000   0.00000   0.00000   0.00000   3.14159
   D14       -0.00000   0.00000   0.00000   0.00000   0.00000   0.00000
   D15       -0.00000   0.00000   0.00000   0.00000   0.00000   0.00000
   D16        3.14159   0.00000   0.00000   0.00000   0.00000   3.14159
   D17        3.14159  -0.00000   0.00000  -0.00000   0.00000   3.14159
   D18        0.00000  -0.00000   0.00000  -0.00000  -0.00000   0.00000
   D19       -0.00000  -0.00000   0.00000  -0.00000   0.00000   0.00000
   D20        3.14159  -0.00000   0.00000  -0.00000   0.00000   3.14159
         Item               Value     Threshold  Converged?
 Maximum Force            0.014121     0.000450     NO 
 RMS     Force            0.003538     0.000300     NO 
 Maximum Displacement     0.033778     0.001800     NO 
 RMS     Displacement     0.009611     0.001200     NO 
 Predicted change in Energy=-5.289702D-04
 GradGradGradGradGradGradGradGradGradGradGradGradGradGradGradGradGradGrad

                          Input orientation:                          
 ---------------------------------------------------------------------
 Center     Atomic      Atomic             Coordinates (Angstroms)
 Number     Number       Type             X           Y           Z
 ---------------------------------------------------------------------
      1          6           0       -3.148138    0.205973    0.000000
      2          6           0       -1.962729    0.953180    0.000000
      3          6           0       -0.727653    0.295466    0.000000
      4          6           0       -0.698745   -1.103521   -0.000000
      5          6           0       -1.900830   -1.823594   -0.000000
      6          6           0       -3.124158   -1.177351    0.000000
      7         17           0       -4.660371    1.017566    0.000000
      8         17           0        0.835064   -1.868818   -0.000000
      9         17           0       -1.859829   -3.539359   -0.000000
     10         17           0       -1.952680    2.667283    0.000000
     11          1           0        0.200199    0.865695    0.000000
 ---------------------------------------------------------------------
                    Distance matrix (angstroms):
                    1          2          3          4          5
     1  C    0.000000
     2  C    1.401255   0.000000
     3  C    2.422139   1.399285   0.000000
     4  C    2.777463   2.414057   1.399285   0.000000
     5  C    2.382209   2.777463   2.422139   1.401254   0.000000
     6  C    1.383532   2.426537   2.812903   2.426536   1.383532
     7  Cl   1.716255   2.698411   3.998463   4.493717   3.960714
     8  Cl   4.491176   3.973829   2.669496   1.714133   2.736268
     9  Cl   3.960713   4.493717   3.998462   2.698411   1.716255
    10  Cl   2.736269   1.714132   2.669496   3.973829   4.491176
    11  H    3.412711   2.164696   1.089069   2.164696   3.412711
                    6          7          8          9         10
     6  C    0.000000
     7  Cl   2.679107   0.000000
     8  Cl   4.019150   6.207337   0.000000
     9  Cl   2.679106   5.348701   3.170671   0.000000
    10  Cl   4.019150   3.170671   5.324259   6.207336   0.000000
    11  H    3.901972   4.862943   2.807243   4.862942   2.807243
                   11
    11  H    0.000000
 Stoichiometry    C6HCl4(1-)
 Framework group  CS[SG(C6HCl4)]
 Deg. of freedom    19
 Full point group                 CS      NOp   2
 Largest Abelian subgroup         CS      NOp   2
 Largest concise Abelian subgroup C1      NOp   1
                         Standard orientation:                         
 ---------------------------------------------------------------------
 Center     Atomic      Atomic             Coordinates (Angstroms)
 Number     Number       Type             X           Y           Z
 ---------------------------------------------------------------------
      1          6           0       -0.738398    1.191104    0.000000
      2          6           0        0.662766    1.207029    0.000000
      3          6           0        1.370637    0.000000    0.000000
      4          6           0        0.662766   -1.207029    0.000000
      5          6           0       -0.738398   -1.191104    0.000000
      6          6           0       -1.442267   -0.000000    0.000000
      7         17           0       -1.601829    2.674350    0.000000
      8         17           0        1.568819   -2.662130    0.000000
      9         17           0       -1.601828   -2.674350    0.000000
     10         17           0        1.568819    2.662129    0.000000
     11          1           0        2.459705    0.000000    0.000000
 ---------------------------------------------------------------------
 Rotational constants (GHZ):           1.1786404           0.4745947           0.3383527
 Standard basis: VSTO-6G (5D, 7F)
 There are    31 symmetry adapted cartesian basis functions of A'  symmetry.
 There are    10 symmetry adapted cartesian basis functions of A"  symmetry.
 There are    31 symmetry adapted basis functions of A'  symmetry.
 There are    10 symmetry adapted basis functions of A"  symmetry.
    41 basis functions,   246 primitive gaussians,    41 cartesian basis functions
    27 alpha electrons       27 beta electrons
       nuclear repulsion energy       295.3210086818 Hartrees.
 Integral buffers will be    131072 words long.
[...]
            NFock=  9  Conv=0.29D-08     -V/T= 1.0001
 Calling FoFJK, ICntrl=      2127 FMM=F ISym2X=1 I1Cent= 0 IOpClX= 0 NMat=1 NMatS=1 NMatT=0.
 ***** Axes restored to original set *****
 -------------------------------------------------------------------
 Center     Atomic                   Forces (Hartrees/Bohr)
 Number     Number              X              Y              Z
 -------------------------------------------------------------------
      1        6           0.000134256    0.000289556    0.000000000
      2        6          -0.000021822   -0.000115480    0.000000000
      3        6           0.000106078    0.000065196    0.000000000
      4        6          -0.000112888    0.000032692    0.000000000
      5        6           0.000318990   -0.000011025    0.000000000
      6        6          -0.000296526   -0.000182224    0.000000000
      7       17          -0.000050745   -0.000021593   -0.000000000
      8       17          -0.000017939    0.000015235   -0.000000000
      9       17          -0.000042191   -0.000035509   -0.000000000
     10       17           0.000005485   -0.000022895   -0.000000000
     11        1          -0.000022698   -0.000013952   -0.000000000
 -------------------------------------------------------------------
 Cartesian Forces:  Max     0.000318990 RMS     0.000106729

 GradGradGradGradGradGradGradGradGradGradGradGradGradGradGradGradGradGrad
 Berny optimization.
 Using GEDIIS/GDIIS optimizer.
 FormGI is forming the generalized inverse of G from B-inverse, IUseBI=4.
 Internal  Forces:  Max     0.000199353 RMS     0.000055138
 Search for a local minimum.
 Step number   8 out of a maximum of   57
 All quantities printed in internal units (Hartrees-Bohrs-Radians)
 Mixed Optimization -- En-DIIS/RFO-DIIS
 Swapping is turned off.
 Update second derivatives using D2CorX and points    4    3    5    6    7
                                                      8
 DE= -4.83D-06 DEPred=-4.50D-06 R= 1.08D+00
 TightC=F SS=  1.41D+00  RLast= 4.93D-03 DXNew= 7.1352D-01 1.4788D-02
 Trust test= 1.08D+00 RLast= 4.93D-03 DXMaxT set to 4.24D-01
 ITU=  1  1  1  1 -1  0  1  0
     Eigenvalues ---    0.02011   0.02011   0.02011   0.02011   0.02011
     Eigenvalues ---    0.02011   0.02011   0.02011   0.16000   0.18489
     Eigenvalues ---    0.23719   0.25000   0.25000   0.25000   0.25000
     Eigenvalues ---    0.25210   0.27527   0.29033   0.29033   0.29807
     Eigenvalues ---    0.36305   0.40611   0.41095   0.44656   0.44657
     Eigenvalues ---    0.45918   0.72684
 En-DIIS/RFO-DIIS/Sim-DIIS IScMMF=       -3 using points:     8    7
 RFO step:  Lambda=-5.16943638D-07.
 DidBck=F Rises=F RFO-DIIS coefs:    1.13498   -0.13498
 Iteration  1 RMS(Cart)=  0.00017286 RMS(Int)=  0.00000004
 Iteration  2 RMS(Cart)=  0.00000006 RMS(Int)=  0.00000000
 ClnCor:  largest displacement from symmetrization is 1.08D-12 for atom     9.
 Variable       Old X    -DE/DX   Delta X   Delta X   Delta X     New X
                                 (Linear)    (Quad)   (Total)
    R1        2.64917  -0.00004  -0.00005  -0.00008  -0.00013   2.64905
    R2        2.61648   0.00020   0.00009   0.00046   0.00055   2.61703
    R3        3.24226   0.00003  -0.00011   0.00018   0.00008   3.24233
    R4        2.64472  -0.00002   0.00020  -0.00023  -0.00003   2.64470
    R5        3.24398  -0.00002  -0.00004   0.00004   0.00000   3.24398
    R6        2.64472  -0.00002   0.00020  -0.00023  -0.00003   2.64470
    R7        2.07438  -0.00003  -0.00050   0.00028  -0.00022   2.07416
    R8        2.64917  -0.00004  -0.00005  -0.00008  -0.00013   2.64905
    R9        3.24397  -0.00002  -0.00004   0.00004   0.00000   3.24398
   R10        2.61648   0.00020   0.00009   0.00046   0.00055   2.61703
   R11        3.24226   0.00003  -0.00011   0.00018   0.00008   3.24233
    A1        2.11751   0.00001   0.00005   0.00010   0.00015   2.11766
    A2        2.08723   0.00006   0.00000   0.00026   0.00027   2.08749
    A3        2.07845  -0.00008  -0.00006  -0.00036  -0.00042   2.07803
    A4        2.08914   0.00007   0.00006   0.00027   0.00033   2.08947
    A5        2.13904  -0.00003  -0.00006  -0.00007  -0.00013   2.13890
    A6        2.05501  -0.00005   0.00000  -0.00021  -0.00020   2.05481
    A7        2.08151  -0.00004  -0.00015  -0.00024  -0.00039   2.08113
    A8        2.10084   0.00002   0.00008   0.00012   0.00019   2.10103
    A9        2.10084   0.00002   0.00008   0.00012   0.00019   2.10103
   A10        2.08914   0.00007   0.00006   0.00027   0.00033   2.08947
   A11        2.05501  -0.00005   0.00000  -0.00021  -0.00020   2.05481
   A12        2.13904  -0.00003  -0.00006  -0.00007  -0.00013   2.13890
   A13        2.11751   0.00001   0.00005   0.00010   0.00015   2.11766
   A14        2.08723   0.00006   0.00000   0.00026   0.00027   2.08749
   A15        2.07845  -0.00008  -0.00006  -0.00036  -0.00042   2.07803
   A16        2.07156  -0.00013  -0.00007  -0.00051  -0.00058   2.07098
    D1       -0.00000   0.00000   0.00000   0.00000   0.00000   0.00000
    D2        3.14159  -0.00000   0.00000  -0.00000   0.00000   3.14159
    D3        3.14159   0.00000   0.00000   0.00000   0.00000   3.14159
    D4        0.00000   0.00000   0.00000   0.00000   0.00000   0.00000
    D5        0.00000  -0.00000   0.00000  -0.00000  -0.00000   0.00000
    D6        3.14159  -0.00000   0.00000  -0.00000   0.00000   3.14159
    D7        0.00000  -0.00000   0.00000  -0.00000   0.00000   0.00000
    D8        3.14159  -0.00000   0.00000  -0.00000   0.00000   3.14159
    D9        3.14159   0.00000   0.00000   0.00000   0.00000   3.14159
   D10       -0.00000  -0.00000   0.00000   0.00000   0.00000   0.00000
   D11       -0.00000   0.00000   0.00000   0.00000   0.00000   0.00000
   D12        3.14159  -0.00000   0.00000  -0.00000   0.00000   3.14159
   D13        3.14159   0.00000   0.00000   0.00000   0.00000   3.14159
   D14        0.00000   0.00000   0.00000   0.00000   0.00000   0.00000
   D15        0.00000   0.00000   0.00000   0.00000   0.00000   0.00000
   D16        3.14159  -0.00000   0.00000  -0.00000   0.00000   3.14159
   D17        3.14159   0.00000   0.00000   0.00000   0.00000   3.14159
   D18       -0.00000  -0.00000   0.00000  -0.00000   0.00000   0.00000
   D19       -0.00000  -0.00000   0.00000  -0.00000   0.00000   0.00000
   D20        3.14159   0.00000   0.00000   0.00000   0.00000   3.14159
         Item               Value     Threshold  Converged?
 Maximum Force            0.000199     0.000450     YES
 RMS     Force            0.000055     0.000300     YES
 Maximum Displacement     0.000656     0.001800     YES
 RMS     Displacement     0.000173     0.001200     YES
 Predicted change in Energy=-2.584702D-07
 Optimization completed.
    -- Stationary point found.
                           ----------------------------
                           !   Optimized Parameters   !
                           ! (Angstroms and Degrees)  !
 --------------------------                            --------------------------
 ! Name  Definition              Value          Derivative Info.                !
 --------------------------------------------------------------------------------
 ! R1    R(1,2)                  1.4019         -DE/DX =    0.0                 !
 ! R2    R(1,6)                  1.3846         -DE/DX =    0.0002              !
 ! R3    R(1,7)                  1.7157         -DE/DX =    0.0                 !
 ! R4    R(2,3)                  1.3995         -DE/DX =    0.0                 !
 ! R5    R(2,10)                 1.7166         -DE/DX =    0.0                 !
 ! R6    R(3,4)                  1.3995         -DE/DX =    0.0                 !
 ! R7    R(3,11)                 1.0977         -DE/DX =    0.0                 !
 ! R8    R(4,5)                  1.4019         -DE/DX =    0.0                 !
 ! R9    R(4,8)                  1.7166         -DE/DX =    0.0                 !
 ! R10   R(5,6)                  1.3846         -DE/DX =    0.0002              !
 ! R11   R(5,9)                  1.7157         -DE/DX =    0.0                 !
 ! A1    A(2,1,6)              121.3243         -DE/DX =    0.0                 !
 ! A2    A(2,1,7)              119.5893         -DE/DX =    0.0001              !
 ! A3    A(6,1,7)              119.0864         -DE/DX =   -0.0001              !
 ! A4    A(1,2,3)              119.699          -DE/DX =    0.0001              !
 ! A5    A(1,2,10)             122.5577         -DE/DX =    0.0                 !
 ! A6    A(3,2,10)             117.7433         -DE/DX =    0.0                 !
 ! A7    A(2,3,4)              119.262          -DE/DX =    0.0                 !
 ! A8    A(2,3,11)             120.369          -DE/DX =    0.0                 !
 ! A9    A(4,3,11)             120.369          -DE/DX =    0.0                 !
 ! A10   A(3,4,5)              119.699          -DE/DX =    0.0001              !
 ! A11   A(3,4,8)              117.7433         -DE/DX =    0.0                 !
 ! A12   A(5,4,8)              122.5577         -DE/DX =    0.0                 !
 ! A13   A(4,5,6)              121.3243         -DE/DX =    0.0                 !
 ! A14   A(4,5,9)              119.5893         -DE/DX =    0.0001              !
 ! A15   A(6,5,9)              119.0864         -DE/DX =   -0.0001              !
 ! A16   A(1,6,5)              118.6914         -DE/DX =   -0.0001              !
 ! D1    D(6,1,2,3)              0.0            -DE/DX =    0.0                 !
 ! D2    D(6,1,2,10)           180.0            -DE/DX =    0.0                 !
 ! D3    D(7,1,2,3)            180.0            -DE/DX =    0.0                 !
 ! D4    D(7,1,2,10)             0.0            -DE/DX =    0.0                 !
 ! D5    D(2,1,6,5)              0.0            -DE/DX =    0.0                 !
 ! D6    D(7,1,6,5)            180.0            -DE/DX =    0.0                 !
 ! D7    D(1,2,3,4)              0.0            -DE/DX =    0.0                 !
 ! D8    D(1,2,3,11)           180.0            -DE/DX =    0.0                 !
 ! D9    D(10,2,3,4)           180.0            -DE/DX =    0.0                 !
 ! D10   D(10,2,3,11)            0.0            -DE/DX =    0.0                 !
 ! D11   D(2,3,4,5)              0.0            -DE/DX =    0.0                 !
 ! D12   D(2,3,4,8)            180.0            -DE/DX =    0.0                 !
 ! D13   D(11,3,4,5)           180.0            -DE/DX =    0.0                 !
 ! D14   D(11,3,4,8)             0.0            -DE/DX =    0.0                 !
 ! D15   D(3,4,5,6)              0.0            -DE/DX =    0.0                 !
 ! D16   D(3,4,5,9)            180.0            -DE/DX =    0.0                 !
 ! D17   D(8,4,5,6)            180.0            -DE/DX =    0.0                 !
 ! D18   D(8,4,5,9)              0.0            -DE/DX =    0.0                 !
 ! D19   D(4,5,6,1)              0.0            -DE/DX =    0.0                 !
 ! D20   D(9,5,6,1)            180.0            -DE/DX =    0.0                 !
 --------------------------------------------------------------------------------
 GradGradGradGradGradGradGradGradGradGradGradGradGradGradGradGradGradGrad

                          Input orientation:                          
 ---------------------------------------------------------------------
 Center     Atomic      Atomic             Coordinates (Angstroms)
 Number     Number       Type             X           Y           Z
 ---------------------------------------------------------------------
      1          6           0       -3.148827    0.205545    0.000000
      2          6           0       -1.963133    0.953477    0.000000
      3          6           0       -0.728083    0.295201    0.000000
      4          6           0       -0.698662   -1.104016   -0.000000
      5          6           0       -1.901523   -1.824015   -0.000000
      6          6           0       -3.126612   -1.178859    0.000000
      7         17           0       -4.661369    1.015447    0.000000
      8         17           0        0.837098   -1.871014   -0.000000
      9         17           0       -1.862170   -3.539292   -0.000000
     10         17           0       -1.953722    2.670089    0.000000
     11          1           0        0.207135    0.869957    0.000000
 ---------------------------------------------------------------------
                    Distance matrix (angstroms):
                    1          2          3          4          5
     1  C    0.000000
     2  C    1.401881   0.000000
     3  C    2.422403   1.399527   0.000000
     4  C    2.778175   2.414988   1.399527   0.000000
     5  C    2.382201   2.778175   2.422403   1.401881   0.000000
     6  C    1.384583   2.429103   2.815279   2.429103   1.384583
     7  Cl   1.715728   2.698948   3.998686   4.493903   3.959708
     8  Cl   4.494407   3.977316   2.672505   1.716638   2.739024
     9  Cl   3.959708   4.493903   3.998686   2.698948   1.715729
    10  Cl   2.739024   1.716638   2.672505   3.977316   4.494407
    11  H    3.421099   2.171874   1.097715   2.171874   3.421099
                    6          7          8          9         10
     6  C    0.000000
     7  Cl   2.677771   0.000000
     8  Cl   4.023689   6.210056   0.000000
     9  Cl   2.677771   5.346135   3.173200   0.000000
    10  Cl   4.023689   3.173200   5.330131   6.210056   0.000000
    11  H    3.912993   4.870677   2.812433   4.870677   2.812433
                   11
    11  H    0.000000
 Stoichiometry    C6HCl4(1-)
 Framework group  CS[SG(C6HCl4)]
 Deg. of freedom    19
 Full point group                 CS      NOp   2
 Largest Abelian subgroup         CS      NOp   2
 Largest concise Abelian subgroup C1      NOp   1
                         Standard orientation:                         
 ---------------------------------------------------------------------
 Center     Atomic      Atomic             Coordinates (Angstroms)
 Number     Number       Type             X           Y           Z
 ---------------------------------------------------------------------
      1          6           0       -0.738532    1.191100   -0.000000
      2          6           0        0.663253    1.207494   -0.000000
      3          6           0        1.370808    0.000000    0.000000
      4          6           0        0.663253   -1.207494    0.000000
      5          6           0       -0.738532   -1.191100    0.000000
      6          6           0       -1.444471   -0.000000   -0.000000
      7         17           0       -1.603112    2.673067   -0.000000
      8         17           0        1.570077   -2.665065    0.000000
      9         17           0       -1.603112   -2.673067    0.000000
     10         17           0        1.570077    2.665065   -0.000000
     11          1           0        2.468522    0.000000    0.000000
 ---------------------------------------------------------------------
 Rotational constants (GHZ):           1.1766925           0.4743093           0.3380470

 **********************************************************************

            Population analysis using the SCF Density.

 **********************************************************************

 Orbital symmetries:
       Occupied  (A') (A') (A') (A') (A') (A') (A') (A') (A') (A')
                 (A') (A') (A') (A") (A') (A") (A') (A") (A") (A')
                 (A') (A') (A") (A') (A") (A") (A')
       Virtual   (A") (A") (A') (A') (A') (A') (A") (A') (A') (A')
                 (A') (A') (A') (A')
 The electronic state is 1-A'.
 Alpha  occ. eigenvalues --   -1.30196  -1.25200  -1.23079  -1.22191  -1.19686
 Alpha  occ. eigenvalues --   -0.97413  -0.97081  -0.70725  -0.69351  -0.52127
 Alpha  occ. eigenvalues --   -0.47381  -0.46746  -0.42473  -0.40807  -0.36876
 Alpha  occ. eigenvalues --   -0.36372  -0.34083  -0.33185  -0.32122  -0.31961
 Alpha  occ. eigenvalues --   -0.30038  -0.28763  -0.27296  -0.27190  -0.18907
 Alpha  occ. eigenvalues --   -0.18132  -0.13376
 Alpha virt. eigenvalues --    0.15213   0.17281   0.17836   0.18848   0.20464
 Alpha virt. eigenvalues --    0.22232   0.26718   0.28757   0.31014   0.31320
 Alpha virt. eigenvalues --    0.32459   0.33754   0.36642   0.38531
          Condensed to atoms (all electrons):
               1          2          3          4          5          6
     1  C    4.046542   0.000000   0.000000   0.000000   0.000000   0.000000
     2  C    0.000000   4.063481   0.000000   0.000000   0.000000   0.000000
     3  C    0.000000   0.000000   4.199875   0.000000   0.000000   0.000000
     4  C    0.000000   0.000000   0.000000   4.063481   0.000000   0.000000
     5  C    0.000000   0.000000   0.000000   0.000000   4.046542   0.000000
     6  C    0.000000   0.000000   0.000000   0.000000   0.000000   4.339724
     7  Cl   0.000000   0.000000   0.000000   0.000000   0.000000   0.000000
     8  Cl   0.000000   0.000000   0.000000   0.000000   0.000000   0.000000
     9  Cl   0.000000   0.000000   0.000000   0.000000   0.000000   0.000000
    10  Cl   0.000000   0.000000   0.000000   0.000000   0.000000   0.000000
    11  H    0.000000   0.000000   0.000000   0.000000   0.000000   0.000000
               7          8          9         10         11
     1  C    0.000000   0.000000   0.000000   0.000000   0.000000
     2  C    0.000000   0.000000   0.000000   0.000000   0.000000
     3  C    0.000000   0.000000   0.000000   0.000000   0.000000
     4  C    0.000000   0.000000   0.000000   0.000000   0.000000
     5  C    0.000000   0.000000   0.000000   0.000000   0.000000
     6  C    0.000000   0.000000   0.000000   0.000000   0.000000
     7  Cl   7.089846   0.000000   0.000000   0.000000   0.000000
     8  Cl   0.000000   7.093519   0.000000   0.000000   0.000000
     9  Cl   0.000000   0.000000   7.089846   0.000000   0.000000
    10  Cl   0.000000   0.000000   0.000000   7.093519   0.000000
    11  H    0.000000   0.000000   0.000000   0.000000   0.873625
 Mulliken charges:
               1
     1  C   -0.046542
     2  C   -0.063481
     3  C   -0.199875
     4  C   -0.063481
     5  C   -0.046542
     6  C   -0.339724
     7  Cl  -0.089846
     8  Cl  -0.093519
     9  Cl  -0.089846
    10  Cl  -0.093519
    11  H    0.126375
 Sum of Mulliken charges =  -1.00000
 Mulliken charges with hydrogens summed into heavy atoms:
               1
     1  C   -0.046542
     2  C   -0.063481
     3  C   -0.073500
     4  C   -0.063481
     5  C   -0.046542
     6  C   -0.339724
     7  Cl  -0.089846
     8  Cl  -0.093519
     9  Cl  -0.089846
    10  Cl  -0.093519
 Charge=             -1.0000 electrons
 Dipole moment (field-independent basis, Debye):
    X=              4.3837    Y=              0.0000    Z=              0.0000  Tot=              4.3837
 N-N= 2.952118351011D+02 E-N=-4.234383181071D+02  KE=-1.359154986751D+02
 Symmetry A'   KE=-1.042625591686D+02
 Symmetry A"   KE=-3.165293950643D+01
 1\1\GINC-SH03-01N68\FOpt\RAM1\ZDO\C6H1Cl4(1-)\JLAPIER\08-Dec-2025\0\\#
  opt am1 SCF(maxcyc=10000)\\Anion Intermediate (removed 1) _2345\\-1,1
 \C,-3.1488268077,0.2055453999,0.\C,-1.9631331455,0.9534773005,0.\C,-0.
 7280834374,0.2952012253,0.\C,-0.698662324,-1.1040162408,0.\C,-1.901523
 012,-1.8240147196,0.\C,-3.1266124084,-1.1788592457,0.\Cl,-4.66136917,1
 .0154465107,0.\Cl,0.837097571,-1.8710144881,0.\Cl,-1.8621701989,-3.539
 2918528,0.\Cl,-1.9537218402,2.6700891521,0.\H,0.2071347733,0.869956958
 2,0.\\Version=ES64L-G16RevB.01\State=1-A'\HF=0.0073358\RMSD=2.893e-09\
 RMSF=1.067e-04\Dipole=1.4693883,0.9030399,0.\PG=CS [SG(C6H1Cl4)]\\@


 HE WHO LAUGHS LAST PROBABLY DIDN'T GET THE JOKE.
 Job cpu time:       0 days  0 hours  0 minutes  2.8 seconds.
 Elapsed time:       0 days  0 hours  0 minutes 25.2 seconds.
 File lengths (MBytes):  RWF=     10 Int=      0 D2E=      0 Chk=      2 Scr=      1
 Normal termination of Gaussian 16 at Mon Dec  8 17:08:58 2025.
