 Entering Gaussian System, Link 0=g16
 Initial command:
 /share/software/user/restricted/gaussian/g16.B01/l1.exe "/home/users/jlapier/Chloroaromatics/Gau-105074.inp" -scrdir="/home/users/jlapier/Chloroaromatics/"
 Entering Link 1 = /share/software/user/restricted/gaussian/g16.B01/l1.exe PID=    105075.
  
 Copyright (c) 1988-2017, Gaussian, Inc.  All Rights Reserved.
  
 This is part of the Gaussian(R) 16 program.  It is based on
 the Gaussian(R) 09 system (copyright 2009, Gaussian, Inc.),
 the Gaussian(R) 03 system (copyright 2003, Gaussian, Inc.),
 the Gaussian(R) 98 system (copyright 1998, Gaussian, Inc.),
 the Gaussian(R) 94 system (copyright 1995, Gaussian, Inc.),
 the Gaussian 92(TM) system (copyright 1992, Gaussian, Inc.),
 the Gaussian 90(TM) system (copyright 1990, Gaussian, Inc.),
 the Gaussian 88(TM) system (copyright 1988, Gaussian, Inc.),
 the Gaussian 86(TM) system (copyright 1986, Carnegie Mellon
 University), and the Gaussian 82(TM) system (copyright 1983,
 Carnegie Mellon University). Gaussian is a federally registered
 trademark of Gaussian, Inc.
  
 This software contains proprietary and confidential information,
 including trade secrets, belonging to Gaussian, Inc.
  
 This software is provided under written license and may be
 used, copied, transmitted, or stored only in accord with that
 written license.
  
 The following legend is applicable only to US Government
 contracts under FAR:
  
                    RESTRICTED RIGHTS LEGEND
  
 Use, reproduction and disclosure by the US Government is
 subject to restrictions as set forth in subparagraphs (a)
 and (c) of the Commercial Computer Software - Restricted
 Rights clause in FAR 52.227-19.
  
 Gaussian, Inc.
 340 Quinnipiac St., Bldg. 40, Wallingford CT 06492
  
  
 ---------------------------------------------------------------
 Warning -- This program may not be used in any manner that
 competes with the business of Gaussian, Inc. or will provide
 assistance to any competitor of Gaussian, Inc.  The licensee
 of this program is prohibited from giving any competitor of
 Gaussian, Inc. access to this program.  By using this program,
 the user acknowledges that Gaussian, Inc. is engaged in the
 business of creating and licensing software in the field of
 computational chemistry and represents and warrants to the
 licensee that it is not a competitor of Gaussian, Inc. and that
 it will not use this program in any manner prohibited above.
 ---------------------------------------------------------------
  

 Cite this work as:
 Gaussian 16, Revision B.01,
 M. J. Frisch, G. W. Trucks, H. B. Schlegel, G. E. Scuseria, 
 M. A. Robb, J. R. Cheeseman, G. Scalmani, V. Barone, 
 G. A. Petersson, H. Nakatsuji, X. Li, M. Caricato, A. V. Marenich, 
 J. Bloino, B. G. Janesko, R. Gomperts, B. Mennucci, H. P. Hratchian, 
 J. V. Ortiz, A. F. Izmaylov, J. L. Sonnenberg, D. Williams-Young, 
 F. Ding, F. Lipparini, F. Egidi, J. Goings, B. Peng, A. Petrone, 
 T. Henderson, D. Ranasinghe, V. G. Zakrzewski, J. Gao, N. Rega, 
 G. Zheng, W. Liang, M. Hada, M. Ehara, K. Toyota, R. Fukuda, 
 J. Hasegawa, M. Ishida, T. Nakajima, Y. Honda, O. Kitao, H. Nakai, 
 T. Vreven, K. Throssell, J. A. Montgomery, Jr., J. E. Peralta, 
 F. Ogliaro, M. J. Bearpark, J. J. Heyd, E. N. Brothers, K. N. Kudin, 
 V. N. Staroverov, T. A. Keith, R. Kobayashi, J. Normand, 
 K. Raghavachari, A. P. Rendell, J. C. Burant, S. S. Iyengar, 
 J. Tomasi, M. Cossi, J. M. Millam, M. Klene, C. Adamo, R. Cammi, 
 J. W. Ochterski, R. L. Martin, K. Morokuma, O. Farkas, 
 J. B. Foresman, and D. J. Fox, Gaussian, Inc., Wallingford CT, 2016.
 
 ******************************************
 Gaussian 16:  ES64L-G16RevB.01 20-Dec-2017
                 8-Dec-2025 
 ******************************************
 %mem=2GB
 %nprocshare=1
 Will use up to    1 processors via shared memory.
 %chk=geometry_chks/_2345ClBzNeutralRadical.chk
 ---------
 # opt am1
 ---------
 1/18=20,19=15,26=1,38=1/1,3;
 2/9=110,12=2,17=6,18=5,40=1/2;
 3/5=2,25=1,41=700000,71=1/1,2,3;
 4/35=1/1;
 5/5=2,35=1,38=5/2;
 6/7=2,8=2,9=2,10=2,28=1/1;
 7//1,2,3,16;
 1/18=20,19=15,26=1/3(2);
 2/9=110/2;
 99//99;
 2/9=110/2;
 3/5=2,25=1,41=700000,71=1,135=20/1,2,3;
 4/5=5,16=3,35=1/1;
 5/5=2,35=1,38=5/2;
 7//1,2,3,16;
 1/18=20,19=15,26=1/3(-5);
 2/9=110/2;
 6/7=2,8=2,9=2,10=2,19=2,28=1/1;
 99/9=1/99;
 ---------------------------------
 Neutral Radical (removed 1) _2345
 ---------------------------------
 Symbolic Z-matrix:
 Charge =  0 Multiplicity = 2
 C                    -3.20928   0.19943   0. 
 C                    -2.0115    0.93555   0. 
 C                    -0.77511   0.2663    0. 
 C                    -0.7365   -1.13907   0. 
 C                    -1.93429  -1.87519   0. 
 C                    -3.17067  -1.20594   0. 
 Cl                   -4.76193   1.03987   0. 
 Cl                    0.81614  -1.97951   0. 
 Cl                   -1.8858   -3.64003   0. 
 Cl                   -2.05998   2.7004    0. 
 H                     0.72905   1.19071   0. 
 
 Add virtual bond connecting atoms H11        and C3         Dist= 3.34D+00.

 GradGradGradGradGradGradGradGradGradGradGradGradGradGradGradGradGradGrad
 Berny optimization.
 Initialization pass.
                           ----------------------------
                           !    Initial Parameters    !
                           ! (Angstroms and Degrees)  !
 --------------------------                            --------------------------
 ! Name  Definition              Value          Derivative Info.                !
 --------------------------------------------------------------------------------
 ! R1    R(1,2)                  1.4059         estimate D2E/DX2                !
 ! R2    R(1,6)                  1.4059         estimate D2E/DX2                !
 ! R3    R(1,7)                  1.7655         estimate D2E/DX2                !
 ! R4    R(2,3)                  1.4059         estimate D2E/DX2                !
 ! R5    R(2,10)                 1.7655         estimate D2E/DX2                !
 ! R6    R(3,4)                  1.4059         estimate D2E/DX2                !
 ! R7    R(3,11)                 1.7655         estimate D2E/DX2                !
 ! R8    R(4,5)                  1.4059         estimate D2E/DX2                !
 ! R9    R(4,8)                  1.7655         estimate D2E/DX2                !
 ! R10   R(5,6)                  1.4059         estimate D2E/DX2                !
 ! R11   R(5,9)                  1.7655         estimate D2E/DX2                !
 ! A1    A(2,1,6)              119.9999         estimate D2E/DX2                !
 ! A2    A(2,1,7)              119.9999         estimate D2E/DX2                !
 ! A3    A(6,1,7)              120.0001         estimate D2E/DX2                !
 ! A4    A(1,2,3)              120.0            estimate D2E/DX2                !
 ! A5    A(1,2,10)             120.0001         estimate D2E/DX2                !
 ! A6    A(3,2,10)             119.9999         estimate D2E/DX2                !
 ! A7    A(2,3,4)              120.0001         estimate D2E/DX2                !
 ! A8    A(2,3,11)             120.0            estimate D2E/DX2                !
 ! A9    A(4,3,11)             119.9999         estimate D2E/DX2                !
 ! A10   A(3,4,5)              119.9997         estimate D2E/DX2                !
 ! A11   A(3,4,8)              120.0003         estimate D2E/DX2                !
 ! A12   A(5,4,8)              120.0            estimate D2E/DX2                !
 ! A13   A(4,5,6)              120.0            estimate D2E/DX2                !
 ! A14   A(4,5,9)              119.9996         estimate D2E/DX2                !
 ! A15   A(6,5,9)              120.0004         estimate D2E/DX2                !
 ! A16   A(1,6,5)              120.0003         estimate D2E/DX2                !
 ! D1    D(6,1,2,3)              0.0            estimate D2E/DX2                !
 ! D2    D(6,1,2,10)           180.0            estimate D2E/DX2                !
 ! D3    D(7,1,2,3)            180.0            estimate D2E/DX2                !
 ! D4    D(7,1,2,10)             0.0            estimate D2E/DX2                !
 ! D5    D(2,1,6,5)              0.0            estimate D2E/DX2                !
 ! D6    D(7,1,6,5)            180.0            estimate D2E/DX2                !
 ! D7    D(1,2,3,4)              0.0            estimate D2E/DX2                !
 ! D8    D(1,2,3,11)           180.0            estimate D2E/DX2                !
 ! D9    D(10,2,3,4)           180.0            estimate D2E/DX2                !
 ! D10   D(10,2,3,11)            0.0            estimate D2E/DX2                !
 ! D11   D(2,3,4,5)              0.0            estimate D2E/DX2                !
 ! D12   D(2,3,4,8)            180.0            estimate D2E/DX2                !
 ! D13   D(11,3,4,5)           180.0            estimate D2E/DX2                !
 ! D14   D(11,3,4,8)             0.0            estimate D2E/DX2                !
 ! D15   D(3,4,5,6)              0.0            estimate D2E/DX2                !
 ! D16   D(3,4,5,9)            180.0            estimate D2E/DX2                !
 ! D17   D(8,4,5,6)            180.0            estimate D2E/DX2                !
 ! D18   D(8,4,5,9)              0.0            estimate D2E/DX2                !
 ! D19   D(4,5,6,1)              0.0            estimate D2E/DX2                !
 ! D20   D(9,5,6,1)            180.0            estimate D2E/DX2                !
 --------------------------------------------------------------------------------
 Trust Radius=3.00D-01 FncErr=1.00D-07 GrdErr=1.00D-07 EigMax=2.50D+02 EigMin=1.00D-04
 Number of steps in this run=     57 maximum allowed number of steps=    100.
 GradGradGradGradGradGradGradGradGradGradGradGradGradGradGradGradGradGrad

                          Input orientation:                          
 ---------------------------------------------------------------------
 Center     Atomic      Atomic             Coordinates (Angstroms)
 Number     Number       Type             X           Y           Z
 ---------------------------------------------------------------------
      1          6           0       -3.209280    0.199430    0.000000
      2          6           0       -2.011500    0.935550    0.000000
      3          6           0       -0.775110    0.266300    0.000000
      4          6           0       -0.736500   -1.139070    0.000000
      5          6           0       -1.934290   -1.875190    0.000000
      6          6           0       -3.170670   -1.205940    0.000000
      7         17           0       -4.761930    1.039870    0.000000
      8         17           0        0.816140   -1.979510    0.000000
      9         17           0       -1.885800   -3.640030    0.000000
     10         17           0       -2.059980    2.700400    0.000000
     11          1           0        0.729050    1.190710    0.000000
 ---------------------------------------------------------------------
                    Distance matrix (angstroms):
                    1          2          3          4          5
     1  C    0.000000
     2  C    1.405898   0.000000
     3  C    2.435088   1.405900   0.000000
     4  C    2.811801   2.435092   1.405900   0.000000
     5  C    2.435087   2.811800   2.435093   1.405907   0.000000
     6  C    1.405900   2.435088   2.811796   2.435088   1.405892
     7  Cl   1.765520   2.752408   4.061175   4.577321   4.061173
     8  Cl   4.577312   4.061173   2.752406   1.765511   2.752408
     9  Cl   4.061164   4.577306   4.061163   2.752397   1.765506
    10  Cl   2.752406   1.765516   2.752405   4.061173   4.577316
    11  H    4.061167   2.752403   1.765512   2.752401   4.061173
                    6          7          8          9         10
     6  C    0.000000
     7  Cl   2.752412   0.000000
     8  Cl   4.061165   6.342832   0.000000
     9  Cl   2.752396   5.493049   3.171404   0.000000
    10  Cl   4.061173   3.171418   5.493052   6.342822   0.000000
    11  H    4.577308   5.493051   3.171416   5.493040   3.171412
                   11
    11  H    0.000000
 Stoichiometry    C6HCl4(2)
 Framework group  CS[SG(C6HCl4)]
 Deg. of freedom    19
 Full point group                 CS      NOp   2
 Largest Abelian subgroup         CS      NOp   2
 Largest concise Abelian subgroup C1      NOp   1
                         Standard orientation:                         
 ---------------------------------------------------------------------
 Center     Atomic      Atomic             Coordinates (Angstroms)
 Number     Number       Type             X           Y           Z
 ---------------------------------------------------------------------
      1          6           0       -0.026158    1.421000    0.000000
      2          6           0        1.191386    0.718052    0.000000
      3          6           0        1.191386   -0.687849    0.000000
      4          6           0       -0.026158   -1.390801    0.000000
      5          6           0       -1.243707   -0.687844    0.000000
      6          6           0       -1.243702    0.718047    0.000000
      7         17           0       -0.026157    3.186520    0.000000
      8         17           0       -0.026163   -3.156312    0.000000
      9         17           0       -2.772676   -1.570604    0.000000
     10         17           0        2.720369    1.600807    0.000000
     11          1           0        2.720364   -1.570605    0.000000
 ---------------------------------------------------------------------
 Rotational constants (GHZ):           1.1672758           0.4487103           0.3241171
 Standard basis: VSTO-6G (5D, 7F)
 There are    31 symmetry adapted cartesian basis functions of A'  symmetry.
 There are    10 symmetry adapted cartesian basis functions of A"  symmetry.
 There are    31 symmetry adapted basis functions of A'  symmetry.
 There are    10 symmetry adapted basis functions of A"  symmetry.
    41 basis functions,   246 primitive gaussians,    41 cartesian basis functions
    27 alpha electrons       26 beta electrons
       nuclear repulsion energy       290.9202719479 Hartrees.
 Integral buffers will be    131072 words long.
 Regular integral format.
 Two-electron integral symmetry is turned off.
 Do NDO integrals.
 One-electron integrals computed using PRISM.
 NBasis=    41 RedAO= T EigKep=  1.00D+00  NBF=    31    10
 NBsUse=    41 1.00D-06 EigRej= -1.00D+00 NBFU=    31    10
 Simple Huckel Guess.
 Initial guess orbital symmetries:
 Alpha Orbitals:
       Occupied  (A') (A') (A') (A') (A') (A') (A') (A') (A') (A')
                 (A") (A') (A') (A") (A') (A') (A") (A') (A") (A')
                 (A") (A') (A') (A') (A") (A") (A')
       Virtual   (A") (A') (A") (A") (A') (A') (A') (A') (A') (A')
                 (A') (A') (A') (A')
 Beta  Orbitals:
       Occupied  (A') (A') (A') (A') (A') (A') (A') (A') (A') (A')
                 (A") (A') (A') (A") (A') (A') (A") (A') (A") (A')
                 (A") (A') (A') (A') (A") (A")
       Virtual   (A') (A") (A') (A") (A") (A') (A') (A') (A') (A')
                 (A') (A') (A') (A') (A')
 The electronic state of the initial guess is 2-A'.
 Initial guess <Sx>= 0.0000 <Sy>= 0.0000 <Sz>= 0.5000 <S**2>= 0.7500 S= 0.5000
 Keep J ints in memory in canonical form, NReq=864464.
 Overlap will be assumed to be unity.
 Requested convergence on RMS density matrix=1.00D-08 within 128 cycles.
 Requested convergence on MAX density matrix=1.00D-06.
 Requested convergence on             energy=1.00D-06.
 No special actions if energy rises.
 Fock symm off for IB=2 I1=    1 I=   32 J=   13 Cut=1.00D-07 Err=1.11D-03
 Fock matrix is not symmetric: symmetry in diagonalization turned off.
 Rare condition: small coef for last iteration:  0.000D+00
 Rare condition: small coef for last iteration:  0.000D+00
 Rare condition: small coef for last iteration:  0.000D+00
 Rare condition: small coef for last iteration:  0.000D+00
 Rare condition: small coef for last iteration:  0.000D+00
 Rare condition: small coef for last iteration:  0.000D+00
 Rare condition: small coef for last iteration:  0.000D+00
 Rare condition: small coef for last iteration:  0.000D+00
 Rare condition: small coef for last iteration:  0.000D+00
 Rare condition: small coef for last iteration:  0.000D+00
 Rare condition: small coef for last iteration:  0.000D+00
 Rare condition: small coef for last iteration:  0.000D+00
 Rare condition: small coef for last iteration:  0.000D+00
 Rare condition: small coef for last iteration:  0.000D+00
 Rare condition: small coef for last iteration:  0.000D+00
 Rare condition: small coef for last iteration:  0.000D+00
 Rare condition: small coef for last iteration:  0.000D+00
 Rare condition: small coef for last iteration:  0.000D+00
 Rare condition: small coef for last iteration:  0.000D+00
 Rare condition: small coef for last iteration:  0.000D+00
 Rare condition: small coef for last iteration:  0.000D+00
 Rare condition: small coef for last iteration:  0.000D+00
 Rare condition: small coef for last iteration:  0.000D+00
 Rare condition: small coef for last iteration:  0.000D+00
 Rare condition: small coef for last iteration:  0.000D+00
 Rare condition: small coef for last iteration:  0.000D+00
 Rare condition: small coef for last iteration:  0.000D+00
 Rare condition: small coef for last iteration:  0.000D+00
 Rare condition: small coef for last iteration:  0.000D+00
 Rare condition: small coef for last iteration:  0.000D+00
 Rare condition: small coef for last iteration:  0.000D+00
 Rare condition: small coef for last iteration:  0.000D+00
 Rare condition: small coef for last iteration:  0.000D+00
 Rare condition: small coef for last iteration:  0.000D+00
 Rare condition: small coef for last iteration:  0.000D+00
 Rare condition: small coef for last iteration:  0.000D+00
 Rare condition: small coef for last iteration:  0.000D+00
 Rare condition: small coef for last iteration:  0.000D+00
 Rare condition: small coef for last iteration:  0.000D+00
 Rare condition: small coef for last iteration:  0.000D+00
 Rare condition: small coef for last iteration:  0.000D+00
 Rare condition: small coef for last iteration:  0.000D+00
 Rare condition: small coef for last iteration:  0.000D+00
 Rare condition: small coef for last iteration:  0.000D+00
 Rare condition: small coef for last iteration:  0.000D+00
 Rare condition: small coef for last iteration:  0.000D+00
 Rare condition: small coef for last iteration:  0.000D+00
 Rare condition: small coef for last iteration:  0.000D+00
 Rare condition: small coef for last iteration:  0.000D+00
 Rare condition: small coef for last iteration:  0.000D+00
 Rare condition: small coef for last iteration:  0.000D+00
 Rare condition: small coef for last iteration:  0.000D+00
 Rare condition: small coef for last iteration:  0.000D+00
 Rare condition: small coef for last iteration:  0.000D+00
 >>>>>>>>>> Convergence criterion not met.
 SCF Done:  E(UAM1) =  0.231179896986     A.U. after  129 cycles
            NFock=128  Conv=0.64D-03     -V/T= 1.0017
 <Sx>= 0.0000 <Sy>= 0.0000 <Sz>= 0.5000 <S**2>= 1.1937 S= 0.7015
 <L.S>=  0.00000000000    
 Annihilation of the first spin contaminant:
 S**2 before annihilation     1.1937,   after     0.9373

 **********************************************************************

            Population analysis using the SCF Density.

 **********************************************************************

 Orbital symmetries:
 Alpha Orbitals:
       Occupied  (A') (A') (A') (A') (A') (A') (A') (A') (A') (A')
                 (A') (A') (A') (A") (A') (A") (A") (A') (A') (A")
                 (A') (A') (A') (A") (A') (A") (A")
       Virtual   (A") (A") (A') (A') (A') (A') (A') (A") (A') (A')
                 (A') (A') (A') (A')
 Beta  Orbitals:
       Occupied  (A') (A') (A') (A') (A') (A') (A') (A') (A') (A')
                 (A') (A') (A') (A") (A") (A') (A") (A') (A") (A')
                 (A') (A') (A') (A") (A") (A")
       Virtual   (A') (A") (A') (A") (A') (A') (A') (A') (A") (A')
                 (A') (A') (A') (A') (A')
 The electronic state is 2-A'.
 Alpha  occ. eigenvalues --   -1.46697  -1.40085  -1.38660  -1.38469  -1.36560
 Alpha  occ. eigenvalues --   -1.15649  -1.14719  -0.88147  -0.87051  -0.67067
 Alpha  occ. eigenvalues --   -0.64987  -0.63513  -0.59527  -0.57711  -0.51777
 Alpha  occ. eigenvalues --   -0.51499  -0.48782  -0.48098  -0.47859  -0.47418
 Alpha  occ. eigenvalues --   -0.45451  -0.44867  -0.44516  -0.43947  -0.41561
 Alpha  occ. eigenvalues --   -0.39415  -0.37125
 Alpha virt. eigenvalues --   -0.02480  -0.02068  -0.00002   0.01125   0.01437
 Alpha virt. eigenvalues --    0.01989   0.03624   0.05772   0.11281   0.11693
 Alpha virt. eigenvalues --    0.13026   0.13711   0.14888   0.15468
  Beta  occ. eigenvalues --   -1.45878  -1.40019  -1.38508  -1.38367  -1.36204
  Beta  occ. eigenvalues --   -1.15479  -1.11807  -0.87844  -0.84595  -0.65181
  Beta  occ. eigenvalues --   -0.64263  -0.62737  -0.59350  -0.57340  -0.51708
  Beta  occ. eigenvalues --   -0.51211  -0.48557  -0.47405  -0.47364  -0.45746
  Beta  occ. eigenvalues --   -0.45244  -0.44443  -0.43878  -0.43554  -0.37713
  Beta  occ. eigenvalues --   -0.37323
  Beta virt. eigenvalues --   -0.05315  -0.02915  -0.01915   0.00218   0.00998
  Beta virt. eigenvalues --    0.01528   0.03150   0.03845   0.06834   0.11858
  Beta virt. eigenvalues --    0.12305   0.14026   0.15289   0.15706   0.16901
          Condensed to atoms (all electrons):
               1          2          3          4          5          6
     1  C    4.052860   0.000000   0.000000   0.000000   0.000000   0.000000
     2  C    0.000000   4.032787   0.000000   0.000000   0.000000   0.000000
     3  C    0.000000   0.000000   4.127741   0.000000   0.000000   0.000000
     4  C    0.000000   0.000000   0.000000   4.032790   0.000000   0.000000
     5  C    0.000000   0.000000   0.000000   0.000000   4.052865   0.000000
     6  C    0.000000   0.000000   0.000000   0.000000   0.000000   3.963324
     7  Cl   0.000000   0.000000   0.000000   0.000000   0.000000   0.000000
     8  Cl   0.000000   0.000000   0.000000   0.000000   0.000000   0.000000
     9  Cl   0.000000   0.000000   0.000000   0.000000   0.000000   0.000000
    10  Cl   0.000000   0.000000   0.000000   0.000000   0.000000   0.000000
    11  H    0.000000   0.000000   0.000000   0.000000   0.000000   0.000000
               7          8          9         10         11
     1  C    0.000000   0.000000   0.000000   0.000000   0.000000
     2  C    0.000000   0.000000   0.000000   0.000000   0.000000
     3  C    0.000000   0.000000   0.000000   0.000000   0.000000
     4  C    0.000000   0.000000   0.000000   0.000000   0.000000
     5  C    0.000000   0.000000   0.000000   0.000000   0.000000
     6  C    0.000000   0.000000   0.000000   0.000000   0.000000
     7  Cl   6.984645   0.000000   0.000000   0.000000   0.000000
     8  Cl   0.000000   6.994973   0.000000   0.000000   0.000000
     9  Cl   0.000000   0.000000   6.984640   0.000000   0.000000
    10  Cl   0.000000   0.000000   0.000000   6.994975   0.000000
    11  H    0.000000   0.000000   0.000000   0.000000   0.778400
          Atomic-Atomic Spin Densities.
               1          2          3          4          5          6
     1  C    0.309049   0.000000   0.000000   0.000000   0.000000   0.000000
     2  C    0.000000  -0.355454   0.000000   0.000000   0.000000   0.000000
     3  C    0.000000   0.000000   0.755099   0.000000   0.000000   0.000000
     4  C    0.000000   0.000000   0.000000  -0.355455   0.000000   0.000000
     5  C    0.000000   0.000000   0.000000   0.000000   0.309036   0.000000
     6  C    0.000000   0.000000   0.000000   0.000000   0.000000   0.697544
     7  Cl   0.000000   0.000000   0.000000   0.000000   0.000000   0.000000
     8  Cl   0.000000   0.000000   0.000000   0.000000   0.000000   0.000000
     9  Cl   0.000000   0.000000   0.000000   0.000000   0.000000   0.000000
    10  Cl   0.000000   0.000000   0.000000   0.000000   0.000000   0.000000
    11  H    0.000000   0.000000   0.000000   0.000000   0.000000   0.000000
               7          8          9         10         11
     1  C    0.000000   0.000000   0.000000   0.000000   0.000000
     2  C    0.000000   0.000000   0.000000   0.000000   0.000000
     3  C    0.000000   0.000000   0.000000   0.000000   0.000000
     4  C    0.000000   0.000000   0.000000   0.000000   0.000000
     5  C    0.000000   0.000000   0.000000   0.000000   0.000000
     6  C    0.000000   0.000000   0.000000   0.000000   0.000000
     7  Cl   0.005184   0.000000   0.000000   0.000000   0.000000
     8  Cl   0.000000   0.016724   0.000000   0.000000   0.000000
     9  Cl   0.000000   0.000000   0.005184   0.000000   0.000000
    10  Cl   0.000000   0.000000   0.000000   0.016726   0.000000
    11  H    0.000000   0.000000   0.000000   0.000000  -0.403636
 Mulliken charges and spin densities:
               1          2
     1  C   -0.052860   0.309049
     2  C   -0.032787  -0.355454
     3  C   -0.127741   0.755099
     4  C   -0.032790  -0.355455
     5  C   -0.052865   0.309036
     6  C    0.036676   0.697544
     7  Cl   0.015355   0.005184
     8  Cl   0.005027   0.016724
     9  Cl   0.015360   0.005184
    10  Cl   0.005025   0.016726
    11  H    0.221600  -0.403636
 Sum of Mulliken charges =   0.00000   1.00000
 Mulliken charges and spin densities with hydrogens summed into heavy atoms:
               1          2
     1  C   -0.052860   0.309049
     2  C   -0.032787  -0.355454
     3  C    0.093859   0.351463
     4  C   -0.032790  -0.355455
     5  C   -0.052865   0.309036
     6  C    0.036676   0.697544
     7  Cl   0.015355   0.005184
     8  Cl   0.005027   0.016724
     9  Cl   0.015360   0.005184
    10  Cl   0.005025   0.016726
 Charge=              0.0000 electrons
 Dipole moment (field-independent basis, Debye):
    X=              1.7461    Y=             -1.0082    Z=              0.0000  Tot=              2.0162
 N-N= 2.909202719479D+02 E-N=-4.081009123480D+02  KE=-1.336631293470D+02
 Symmetry A'   KE=-1.020503325300D+02
 Symmetry A"   KE=-3.161279681704D+01
 Symmetry A'   SP= 1.000000000000D+00
 Symmetry A"   SP=-7.827072323607D-15
 SCFChk:  SCF convergence  6.44D-04 required  1.00D-08


 SCF Error SCF Error SCF Error SCF Error SCF Error SCF Error SCF Error SCF Error

                                    ERROR!!!!

    SCF has not converged.  Gradients and post-SCF results would be GARBAGE!!

 SCF Error SCF Error SCF Error SCF Error SCF Error SCF Error SCF Error SCF Error


 Error termination via Lnk1e in /share/software/user/restricted/gaussian/g16.B01/l701.exe at Mon Dec  8 16:41:12 2025.
 Job cpu time:       0 days  0 hours  0 minutes  0.9 seconds.
 Elapsed time:       0 days  0 hours  0 minutes  1.4 seconds.
 File lengths (MBytes):  RWF=     10 Int=      0 D2E=      0 Chk=      1 Scr=      1
