 Entering Gaussian System, Link 0=g16
 Initial command:
 /share/software/user/restricted/gaussian/g16.B01/l1.exe "/home/users/jlapier/Chloroaromatics/Gau-17468.inp" -scrdir="/home/users/jlapier/Chloroaromatics/"
 Entering Link 1 = /share/software/user/restricted/gaussian/g16.B01/l1.exe PID=     17509.
  
 Copyright (c) 1988-2017, Gaussian, Inc.  All Rights Reserved.
  
 This is part of the Gaussian(R) 16 program.  It is based on
 the Gaussian(R) 09 system (copyright 2009, Gaussian, Inc.),
 the Gaussian(R) 03 system (copyright 2003, Gaussian, Inc.),
 the Gaussian(R) 98 system (copyright 1998, Gaussian, Inc.),
 the Gaussian(R) 94 system (copyright 1995, Gaussian, Inc.),
 the Gaussian 92(TM) system (copyright 1992, Gaussian, Inc.),
 the Gaussian 90(TM) system (copyright 1990, Gaussian, Inc.),
 the Gaussian 88(TM) system (copyright 1988, Gaussian, Inc.),
 the Gaussian 86(TM) system (copyright 1986, Carnegie Mellon
 University), and the Gaussian 82(TM) system (copyright 1983,
 Carnegie Mellon University). Gaussian is a federally registered
 trademark of Gaussian, Inc.
  
 This software contains proprietary and confidential information,
 including trade secrets, belonging to Gaussian, Inc.
  
 This software is provided under written license and may be
 used, copied, transmitted, or stored only in accord with that
 written license.
  
 The following legend is applicable only to US Government
 contracts under FAR:
  
                    RESTRICTED RIGHTS LEGEND
  
 Use, reproduction and disclosure by the US Government is
 subject to restrictions as set forth in subparagraphs (a)
 and (c) of the Commercial Computer Software - Restricted
 Rights clause in FAR 52.227-19.
  
 Gaussian, Inc.
 340 Quinnipiac St., Bldg. 40, Wallingford CT 06492
  
  
 ---------------------------------------------------------------
 Warning -- This program may not be used in any manner that
 competes with the business of Gaussian, Inc. or will provide
 assistance to any competitor of Gaussian, Inc.  The licensee
 of this program is prohibited from giving any competitor of
 Gaussian, Inc. access to this program.  By using this program,
 the user acknowledges that Gaussian, Inc. is engaged in the
 business of creating and licensing software in the field of
 computational chemistry and represents and warrants to the
 licensee that it is not a competitor of Gaussian, Inc. and that
 it will not use this program in any manner prohibited above.
 ---------------------------------------------------------------
  

 Cite this work as:
 Gaussian 16, Revision B.01,
 M. J. Frisch, G. W. Trucks, H. B. Schlegel, G. E. Scuseria, 
 M. A. Robb, J. R. Cheeseman, G. Scalmani, V. Barone, 
 G. A. Petersson, H. Nakatsuji, X. Li, M. Caricato, A. V. Marenich, 
 J. Bloino, B. G. Janesko, R. Gomperts, B. Mennucci, H. P. Hratchian, 
 J. V. Ortiz, A. F. Izmaylov, J. L. Sonnenberg, D. Williams-Young, 
 F. Ding, F. Lipparini, F. Egidi, J. Goings, B. Peng, A. Petrone, 
 T. Henderson, D. Ranasinghe, V. G. Zakrzewski, J. Gao, N. Rega, 
 G. Zheng, W. Liang, M. Hada, M. Ehara, K. Toyota, R. Fukuda, 
 J. Hasegawa, M. Ishida, T. Nakajima, Y. Honda, O. Kitao, H. Nakai, 
 T. Vreven, K. Throssell, J. A. Montgomery, Jr., J. E. Peralta, 
 F. Ogliaro, M. J. Bearpark, J. J. Heyd, E. N. Brothers, K. N. Kudin, 
 V. N. Staroverov, T. A. Keith, R. Kobayashi, J. Normand, 
 K. Raghavachari, A. P. Rendell, J. C. Burant, S. S. Iyengar, 
 J. Tomasi, M. Cossi, J. M. Millam, M. Klene, C. Adamo, R. Cammi, 
 J. W. Ochterski, R. L. Martin, K. Morokuma, O. Farkas, 
 J. B. Foresman, and D. J. Fox, Gaussian, Inc., Wallingford CT, 2016.
 
 ******************************************
 Gaussian 16:  ES64L-G16RevB.01 20-Dec-2017
                 8-Dec-2025 
 ******************************************
 %mem=2GB
 %nprocshare=1
 Will use up to    1 processors via shared memory.
 %chk=geometry_chks/_234ClBzAnionIntermediate.chk
 ---------------------------
 # opt am1 SCF(maxcyc=10000)
 ---------------------------
 1/18=20,19=15,26=1,38=1/1,3;
 2/9=110,12=2,17=6,18=5,40=1/2;
 3/5=2,25=1,41=700000,71=1/1,2,3;
 4/35=1/1;
 5/5=2,7=10000,35=1,38=5/2;
 6/7=2,8=2,9=2,10=2,28=1/1;
 7//1,2,3,16;
 1/18=20,19=15,26=1/3(2);
 2/9=110/2;
 99//99;
 2/9=110/2;
 3/5=2,25=1,41=700000,71=1,135=20/1,2,3;
 4/5=5,16=3,35=1/1;
 5/5=2,7=10000,35=1,38=5/2;
 7//1,2,3,16;
 1/18=20,19=15,26=1/3(-5);
 2/9=110/2;
 6/7=2,8=2,9=2,10=2,19=2,28=1/1;
 99/9=1/99;
 -----------------------------------
 Anion Intermediate (removed 1) _234
 -----------------------------------
 Symbolic Z-matrix:
 Charge = -1 Multiplicity = 1
 C                    -3.20928   0.19943   0. 
 C                    -2.0115    0.93555   0. 
 C                    -0.77511   0.2663    0. 
 C                    -0.7365   -1.13907   0. 
 C                    -1.93429  -1.87519   0. 
 C                    -3.17067  -1.20594   0. 
 Cl                   -4.76193   1.03987   0. 
 Cl                    0.81614  -1.97951   0. 
 Cl                   -1.8858   -3.64003   0. 
 H                    -2.05998   2.7004    0. 
 H                     0.72905   1.19071   0. 
 
 Add virtual bond connecting atoms H11        and C3         Dist= 3.34D+00.
 Add virtual bond connecting atoms H10        and C2         Dist= 3.34D+00.

 GradGradGradGradGradGradGradGradGradGradGradGradGradGradGradGradGradGrad
 Berny optimization.
 Initialization pass.
                           ----------------------------
                           !    Initial Parameters    !
                           ! (Angstroms and Degrees)  !
 --------------------------                            --------------------------
 ! Name  Definition              Value          Derivative Info.                !
 --------------------------------------------------------------------------------
 ! R1    R(1,2)                  1.4059         estimate D2E/DX2                !
 ! R2    R(1,6)                  1.4059         estimate D2E/DX2                !
 ! R3    R(1,7)                  1.7655         estimate D2E/DX2                !
 ! R4    R(2,3)                  1.4059         estimate D2E/DX2                !
 ! R5    R(2,10)                 1.7655         estimate D2E/DX2                !
 ! R6    R(3,4)                  1.4059         estimate D2E/DX2                !
 ! R7    R(3,11)                 1.7655         estimate D2E/DX2                !
 ! R8    R(4,5)                  1.4059         estimate D2E/DX2                !
 ! R9    R(4,8)                  1.7655         estimate D2E/DX2                !
 ! R10   R(5,6)                  1.4059         estimate D2E/DX2                !
 ! R11   R(5,9)                  1.7655         estimate D2E/DX2                !
 ! A1    A(2,1,6)              119.9999         estimate D2E/DX2                !
 ! A2    A(2,1,7)              119.9999         estimate D2E/DX2                !
 ! A3    A(6,1,7)              120.0001         estimate D2E/DX2                !
 ! A4    A(1,2,3)              120.0            estimate D2E/DX2                !
 ! A5    A(1,2,10)             120.0001         estimate D2E/DX2                !
 ! A6    A(3,2,10)             119.9999         estimate D2E/DX2                !
 ! A7    A(2,3,4)              120.0001         estimate D2E/DX2                !
 ! A8    A(2,3,11)             120.0            estimate D2E/DX2                !
 ! A9    A(4,3,11)             119.9999         estimate D2E/DX2                !
 ! A10   A(3,4,5)              119.9997         estimate D2E/DX2                !
 ! A11   A(3,4,8)              120.0003         estimate D2E/DX2                !
 ! A12   A(5,4,8)              120.0            estimate D2E/DX2                !
 ! A13   A(4,5,6)              120.0            estimate D2E/DX2                !
 ! A14   A(4,5,9)              119.9996         estimate D2E/DX2                !
 ! A15   A(6,5,9)              120.0004         estimate D2E/DX2                !
 ! A16   A(1,6,5)              120.0003         estimate D2E/DX2                !
 ! D1    D(6,1,2,3)              0.0            estimate D2E/DX2                !
 ! D2    D(6,1,2,10)           180.0            estimate D2E/DX2                !
 ! D3    D(7,1,2,3)            180.0            estimate D2E/DX2                !
 ! D4    D(7,1,2,10)             0.0            estimate D2E/DX2                !
 ! D5    D(2,1,6,5)              0.0            estimate D2E/DX2                !
 ! D6    D(7,1,6,5)            180.0            estimate D2E/DX2                !
 ! D7    D(1,2,3,4)              0.0            estimate D2E/DX2                !
 ! D8    D(1,2,3,11)           180.0            estimate D2E/DX2                !
 ! D9    D(10,2,3,4)           180.0            estimate D2E/DX2                !
 ! D10   D(10,2,3,11)            0.0            estimate D2E/DX2                !
 ! D11   D(2,3,4,5)              0.0            estimate D2E/DX2                !
 ! D12   D(2,3,4,8)            180.0            estimate D2E/DX2                !
 ! D13   D(11,3,4,5)           180.0            estimate D2E/DX2                !
 ! D14   D(11,3,4,8)             0.0            estimate D2E/DX2                !
 ! D15   D(3,4,5,6)              0.0            estimate D2E/DX2                !
 ! D16   D(3,4,5,9)            180.0            estimate D2E/DX2                !
 ! D17   D(8,4,5,6)            180.0            estimate D2E/DX2                !
 ! D18   D(8,4,5,9)              0.0            estimate D2E/DX2                !
 ! D19   D(4,5,6,1)              0.0            estimate D2E/DX2                !
 ! D20   D(9,5,6,1)            180.0            estimate D2E/DX2                !
 --------------------------------------------------------------------------------
 Trust Radius=3.00D-01 FncErr=1.00D-07 GrdErr=1.00D-07 EigMax=2.50D+02 EigMin=1.00D-04
 Number of steps in this run=     57 maximum allowed number of steps=    100.
 GradGradGradGradGradGradGradGradGradGradGradGradGradGradGradGradGradGrad

                          Input orientation:                          
 ---------------------------------------------------------------------
 Center     Atomic      Atomic             Coordinates (Angstroms)
 Number     Number       Type             X           Y           Z
 ---------------------------------------------------------------------
      1          6           0       -3.209280    0.199430    0.000000
      2          6           0       -2.011500    0.935550    0.000000
      3          6           0       -0.775110    0.266300    0.000000
      4          6           0       -0.736500   -1.139070    0.000000
      5          6           0       -1.934290   -1.875190    0.000000
      6          6           0       -3.170670   -1.205940    0.000000
      7         17           0       -4.761930    1.039870    0.000000
      8         17           0        0.816140   -1.979510    0.000000
      9         17           0       -1.885800   -3.640030    0.000000
     10          1           0       -2.059980    2.700400    0.000000
     11          1           0        0.729050    1.190710    0.000000
 ---------------------------------------------------------------------
                    Distance matrix (angstroms):
                    1          2          3          4          5
     1  C    0.000000
     2  C    1.405898   0.000000
     3  C    2.435088   1.405900   0.000000
     4  C    2.811801   2.435092   1.405900   0.000000
     5  C    2.435087   2.811800   2.435093   1.405907   0.000000
     6  C    1.405900   2.435088   2.811796   2.435088   1.405892
     7  Cl   1.765520   2.752408   4.061175   4.577321   4.061173
     8  Cl   4.577312   4.061173   2.752406   1.765511   2.752408
     9  Cl   4.061164   4.577306   4.061163   2.752397   1.765506
    10  H    2.752406   1.765516   2.752405   4.061173   4.577316
    11  H    4.061167   2.752403   1.765512   2.752401   4.061173
                    6          7          8          9         10
     6  C    0.000000
     7  Cl   2.752412   0.000000
     8  Cl   4.061165   6.342832   0.000000
     9  Cl   2.752396   5.493049   3.171404   0.000000
    10  H    4.061173   3.171418   5.493052   6.342822   0.000000
    11  H    4.577308   5.493051   3.171416   5.493040   3.171412
                   11
    11  H    0.000000
 Stoichiometry    C6H2Cl3(1-)
 Framework group  CS[SG(C6H2Cl3)]
 Deg. of freedom    19
 Full point group                 CS      NOp   2
 Largest Abelian subgroup         CS      NOp   2
 Largest concise Abelian subgroup C1      NOp   1
                         Standard orientation:                         
 ---------------------------------------------------------------------
 Center     Atomic      Atomic             Coordinates (Angstroms)
 Number     Number       Type             X           Y           Z
 ---------------------------------------------------------------------
      1          6           0        0.462897    1.708785    0.000000
      2          6           0        1.680442    1.005837    0.000000
      3          6           0        1.680442   -0.400063    0.000000
      4          6           0        0.462897   -1.103016    0.000000
      5          6           0       -0.754651   -0.400059    0.000000
      6          6           0       -0.754647    1.005833    0.000000
      7         17           0        0.462898    3.474305    0.000000
      8         17           0        0.462892   -2.868527    0.000000
      9         17           0       -2.283621   -1.282818    0.000000
     10          1           0        3.209424    1.888592    0.000000
     11          1           0        3.209419   -1.282819    0.000000
 ---------------------------------------------------------------------
 Rotational constants (GHZ):           1.8217181           0.5760390           0.4376510
 Standard basis: VSTO-6G (5D, 7F)
 There are    29 symmetry adapted cartesian basis functions of A'  symmetry.
 There are     9 symmetry adapted cartesian basis functions of A"  symmetry.
 There are    29 symmetry adapted basis functions of A'  symmetry.
 There are     9 symmetry adapted basis functions of A"  symmetry.
    38 basis functions,   228 primitive gaussians,    38 cartesian basis functions
    24 alpha electrons       24 beta electrons
       nuclear repulsion energy       238.8629852235 Hartrees.
 Integral buffers will be    131072 words long.
 Regular integral format.
 Two-electron integral symmetry is turned off.
 Do NDO integrals.
 One-electron integrals computed using PRISM.
 NBasis=    38 RedAO= T EigKep=  1.00D+00  NBF=    29     9
 NBsUse=    38 1.00D-06 EigRej= -1.00D+00 NBFU=    29     9
 Simple Huckel Guess.
 Initial guess orbital symmetries:
       Occupied  (A') (A') (A') (A') (A') (A') (A') (A') (A') (A")
                 (A') (A') (A') (A") (A') (A") (A') (A") (A') (A')
                 (A') (A") (A") (A')
       Virtual   (A') (A") (A") (A') (A") (A') (A') (A') (A') (A')
                 (A') (A') (A') (A')
 The electronic state of the initial guess is 1-A'.
 Keep J ints in memory in canonical form, NReq=863588.
 Overlap will be assumed to be unity.
 Requested convergence on RMS density matrix=1.00D-08 within**** cycles.
 Requested convergence on MAX density matrix=1.00D-06.
 Requested convergence on             energy=1.00D-06.
 No special actions if energy rises.
 Fock symm off for IB=2 I1=    1 I=   30 J=   29 Cut=1.00D-07 Err=9.38D-03
 Fock matrix is not symmetric: symmetry in diagonalization turned off.
 SCF Done:  E(RAM1) =  0.274423789972     A.U. after   17 cycles
            NFock= 16  Conv=0.43D-08     -V/T= 1.0024

 **********************************************************************

            Population analysis using the SCF Density.

 **********************************************************************

 Orbital symmetries:
       Occupied  (A') (A') (A') (A') (A') (A') (A') (A') (A') (A')
                 (A') (A") (A') (A") (A") (A') (A') (A') (A") (A')
                 (A') (A") (A") (A')
       Virtual   (A') (A') (A") (A') (A") (A') (A') (A") (A') (A')
                 (A') (A') (A') (A')
 The electronic state is 1-A'.
 Alpha  occ. eigenvalues --   -1.25953  -1.22025  -1.20798  -1.18419  -0.95356
 Alpha  occ. eigenvalues --   -0.91990  -0.67245  -0.64367  -0.46575  -0.43634
 Alpha  occ. eigenvalues --   -0.43540  -0.38097  -0.36220  -0.33378  -0.31467
 Alpha  occ. eigenvalues --   -0.30868  -0.29605  -0.27895  -0.27641  -0.26684
 Alpha  occ. eigenvalues --   -0.25477  -0.18899  -0.17295  -0.12527
 Alpha virt. eigenvalues --    0.13815   0.15743   0.16017   0.18382   0.18622
 Alpha virt. eigenvalues --    0.20588   0.21949   0.27177   0.31710   0.32146
 Alpha virt. eigenvalues --    0.33757   0.34637   0.36688   0.39004
          Condensed to atoms (all electrons):
               1          2          3          4          5          6
     1  C    4.053172   0.000000   0.000000   0.000000   0.000000   0.000000
     2  C    0.000000   4.108653   0.000000   0.000000   0.000000   0.000000
     3  C    0.000000   0.000000   4.187078   0.000000   0.000000   0.000000
     4  C    0.000000   0.000000   0.000000   4.041691   0.000000   0.000000
     5  C    0.000000   0.000000   0.000000   0.000000   4.053139   0.000000
     6  C    0.000000   0.000000   0.000000   0.000000   0.000000   4.333124
     7  Cl   0.000000   0.000000   0.000000   0.000000   0.000000   0.000000
     8  Cl   0.000000   0.000000   0.000000   0.000000   0.000000   0.000000
     9  Cl   0.000000   0.000000   0.000000   0.000000   0.000000   0.000000
    10  H    0.000000   0.000000   0.000000   0.000000   0.000000   0.000000
    11  H    0.000000   0.000000   0.000000   0.000000   0.000000   0.000000
               7          8          9         10         11
     1  C    0.000000   0.000000   0.000000   0.000000   0.000000
     2  C    0.000000   0.000000   0.000000   0.000000   0.000000
     3  C    0.000000   0.000000   0.000000   0.000000   0.000000
     4  C    0.000000   0.000000   0.000000   0.000000   0.000000
     5  C    0.000000   0.000000   0.000000   0.000000   0.000000
     6  C    0.000000   0.000000   0.000000   0.000000   0.000000
     7  Cl   7.125468   0.000000   0.000000   0.000000   0.000000
     8  Cl   0.000000   7.123782   0.000000   0.000000   0.000000
     9  Cl   0.000000   0.000000   7.108432   0.000000   0.000000
    10  H    0.000000   0.000000   0.000000   0.949053   0.000000
    11  H    0.000000   0.000000   0.000000   0.000000   0.916409
 Mulliken charges:
               1
     1  C   -0.053172
     2  C   -0.108653
     3  C   -0.187078
     4  C   -0.041691
     5  C   -0.053139
     6  C   -0.333124
     7  Cl  -0.125468
     8  Cl  -0.123782
     9  Cl  -0.108432
    10  H    0.050947
    11  H    0.083591
 Sum of Mulliken charges =  -1.00000
 Mulliken charges with hydrogens summed into heavy atoms:
               1
     1  C   -0.053172
     2  C   -0.057706
     3  C   -0.103486
     4  C   -0.041691
     5  C   -0.053139
     6  C   -0.333124
     7  Cl  -0.125468
     8  Cl  -0.123782
     9  Cl  -0.108432
 Charge=             -1.0000 electrons
 Dipole moment (field-independent basis, Debye):
    X=              2.8918    Y=             -2.6819    Z=              0.0000  Tot=              3.9439
 N-N= 2.388629852235D+02 E-N=-3.377053323695D+02  KE=-1.135527016363D+02
 Symmetry A'   KE=-8.749638539928D+01
 Symmetry A"   KE=-2.605631623705D+01
 Calling FoFJK, ICntrl=      2127 FMM=F ISym2X=1 I1Cent= 0 IOpClX= 0 NMat=1 NMatS=1 NMatT=0.
 ***** Axes restored to original set *****
 -------------------------------------------------------------------
 Center     Atomic                   Forces (Hartrees/Bohr)
 Number     Number              X              Y              Z
 -------------------------------------------------------------------
      1        6           0.012439224   -0.001856551    0.000000000
      2        6           0.014476299    0.073294544    0.000000000
      3        6           0.048946907    0.052645291   -0.000000000
      4        6           0.020813780    0.005667074    0.000000000
      5        6          -0.015716218    0.008264987    0.000000000
      6        6           0.010579650    0.006081226   -0.000000000
      7       17           0.025126380   -0.011740572   -0.000000000
      8       17          -0.018582086    0.016004634    0.000000000
      9       17          -0.001943147    0.028484368   -0.000000000
     10        1           0.004073689   -0.114419147   -0.000000000
     11        1          -0.100214478   -0.062425854   -0.000000000
 -------------------------------------------------------------------
 Cartesian Forces:  Max     0.114419147 RMS     0.035278429

 GradGradGradGradGradGradGradGradGradGradGradGradGradGradGradGradGradGrad
 Berny optimization.
 FormGI is forming the generalized inverse of G from B-inverse, IUseBI=4.
 Internal  Forces:  Max     0.118065321 RMS     0.028001296
 Search for a local minimum.
 Step number   1 out of a maximum of   57
 All quantities printed in internal units (Hartrees-Bohrs-Radians)
 Mixed Optimization -- RFO/linear search
 Second derivative matrix not updated -- first step.
 ITU=  0
     Eigenvalues ---    0.02011   0.02011   0.02011   0.02011   0.02011
     Eigenvalues ---    0.02011   0.02011   0.02011   0.06524   0.06524
     Eigenvalues ---    0.16000   0.16000   0.22472   0.24476   0.25000
     Eigenvalues ---    0.25000   0.25000   0.25000   0.29033   0.29033
     Eigenvalues ---    0.29034   0.41073   0.41424   0.44656   0.44657
     Eigenvalues ---    0.44657   0.44657
 RFO step:  Lambda=-1.46294984D-01 EMin= 2.01065650D-02
 Linear search not attempted -- first point.
 Maximum step size (   0.300) exceeded in Quadratic search.
    -- Step size scaled by   0.375
 Iteration  1 RMS(Cart)=  0.04750141 RMS(Int)=  0.00142668
 Iteration  2 RMS(Cart)=  0.00133192 RMS(Int)=  0.00000777
 Iteration  3 RMS(Cart)=  0.00000014 RMS(Int)=  0.00000777
 ClnCor:  largest displacement from symmetrization is 6.11D-09 for atom    11.
 Variable       Old X    -DE/DX   Delta X   Delta X   Delta X     New X
                                 (Linear)    (Quad)   (Total)
    R1        2.65676  -0.03195   0.00000  -0.02065  -0.02063   2.63613
    R2        2.65677  -0.02840   0.00000  -0.01785  -0.01785   2.63892
    R3        3.33635  -0.02769   0.00000  -0.02378  -0.02378   3.31257
    R4        2.65677  -0.05406   0.00000  -0.03475  -0.03474   2.62203
    R5        3.33634  -0.11449   0.00000  -0.20296  -0.20296   3.13338
    R6        2.65677  -0.03621   0.00000  -0.02302  -0.02302   2.63375
    R7        3.33633  -0.11807   0.00000  -0.20931  -0.20931   3.12703
    R8        2.65678  -0.00933   0.00000  -0.00547  -0.00548   2.65130
    R9        3.33633  -0.02396   0.00000  -0.02058  -0.02058   3.31575
   R10        2.65675  -0.02775   0.00000  -0.01700  -0.01701   2.63974
   R11        3.33632  -0.02853   0.00000  -0.02450  -0.02450   3.31182
    A1        2.09439   0.00665   0.00000   0.00563   0.00564   2.10004
    A2        2.09439  -0.00605   0.00000  -0.00540  -0.00540   2.08899
    A3        2.09440  -0.00060   0.00000  -0.00023  -0.00024   2.09416
    A4        2.09439   0.00501   0.00000   0.00332   0.00334   2.09773
    A5        2.09440  -0.00095   0.00000   0.00024   0.00023   2.09463
    A6        2.09439  -0.00406   0.00000  -0.00356  -0.00357   2.09082
    A7        2.09440   0.00518   0.00000   0.00403   0.00404   2.09843
    A8        2.09440  -0.00140   0.00000  -0.00056  -0.00056   2.09383
    A9        2.09439  -0.00378   0.00000  -0.00347  -0.00348   2.09092
   A10        2.09439  -0.00900   0.00000  -0.00818  -0.00819   2.08620
   A11        2.09440  -0.00423   0.00000  -0.00416  -0.00416   2.09024
   A12        2.09440   0.01322   0.00000   0.01234   0.01235   2.10675
   A13        2.09439   0.00681   0.00000   0.00780   0.00777   2.10217
   A14        2.09439  -0.00147   0.00000  -0.00207  -0.00206   2.09233
   A15        2.09440  -0.00534   0.00000  -0.00573  -0.00572   2.08868
   A16        2.09440  -0.01466   0.00000  -0.01259  -0.01260   2.08180
    D1        0.00000  -0.00000   0.00000  -0.00000   0.00000   0.00000
    D2        3.14159  -0.00000   0.00000  -0.00000   0.00000   3.14159
    D3        3.14159   0.00000   0.00000   0.00000   0.00000   3.14159
    D4        0.00000   0.00000   0.00000   0.00000   0.00000   0.00000
    D5        0.00000   0.00000   0.00000   0.00000   0.00000   0.00000
    D6        3.14159  -0.00000   0.00000  -0.00000   0.00000   3.14159
    D7        0.00000  -0.00000   0.00000  -0.00000   0.00000   0.00000
    D8        3.14159  -0.00000   0.00000  -0.00000   0.00000   3.14159
    D9        3.14159   0.00000   0.00000   0.00000   0.00000   3.14159
   D10        0.00000   0.00000   0.00000   0.00000   0.00000   0.00000
   D11        0.00000   0.00000   0.00000   0.00000   0.00000   0.00000
   D12        3.14159  -0.00000   0.00000  -0.00000   0.00000   3.14159
   D13        3.14159   0.00000   0.00000   0.00000   0.00000   3.14159
   D14        0.00000  -0.00000   0.00000  -0.00000   0.00000   0.00000
   D15        0.00000   0.00000   0.00000   0.00000   0.00000   0.00000
   D16        3.14159  -0.00000   0.00000  -0.00000   0.00000   3.14159
   D17        3.14159   0.00000   0.00000   0.00000   0.00000   3.14159
   D18        0.00000  -0.00000   0.00000  -0.00000   0.00000   0.00000
   D19        0.00000  -0.00000   0.00000  -0.00000   0.00000   0.00000
   D20        3.14159   0.00000   0.00000   0.00000   0.00000   3.14159
         Item               Value     Threshold  Converged?
 Maximum Force            0.118065     0.000450     NO 
 RMS     Force            0.028001     0.000300     NO 
 Maximum Displacement     0.207745     0.001800     NO 
 RMS     Displacement     0.048606     0.001200     NO 
 Predicted change in Energy=-5.115828D-02
 GradGradGradGradGradGradGradGradGradGradGradGradGradGradGradGradGradGrad

                          Input orientation:                          
 ---------------------------------------------------------------------
 Center     Atomic      Atomic             Coordinates (Angstroms)
 Number     Number       Type             X           Y           Z
 ---------------------------------------------------------------------
      1          6           0       -3.189835    0.205357    0.000000
      2          6           0       -1.999584    0.932865    0.000000
      3          6           0       -0.778761    0.273469    0.000000
      4          6           0       -0.733601   -1.119519    0.000000
      5          6           0       -1.931302   -1.850234    0.000000
      6          6           0       -3.162762   -1.190835    0.000000
      7         17           0       -4.724831    1.051865    0.000000
      8         17           0        0.817000   -1.940696    0.000000
      9         17           0       -1.885259   -3.602170    0.000000
     10          1           0       -2.040698    2.590466    0.000000
     11          1           0        0.629762    1.141953    0.000000
 ---------------------------------------------------------------------
                    Distance matrix (angstroms):
                    1          2          3          4          5
     1  C    0.000000
     2  C    1.394979   0.000000
     3  C    2.412036   1.387519   0.000000
     4  C    2.790767   2.411429   1.393720   0.000000
     5  C    2.410261   2.783936   2.416292   1.403009   0.000000
     6  C    1.396454   2.421380   2.797793   2.430208   1.396890
     7  Cl   1.752937   2.727844   4.022109   4.543657   4.028148
     8  Cl   4.545357   4.023742   2.729283   1.754622   2.749791
     9  Cl   4.024821   4.536475   4.030498   2.736763   1.752541
    10  H    2.647501   1.658111   2.638363   3.933509   4.442048
    11  H    3.932752   2.637646   1.654751   2.640646   3.938557
                    6          7          8          9         10
     6  C    0.000000
     7  Cl   2.733086   0.000000
     8  Cl   4.049790   6.298199   0.000000
     9  Cl   2.728837   5.451900   3.172176   0.000000
    10  H    3.944270   3.093843   5.357040   6.194587   0.000000
    11  H    4.452543   5.355351   3.088330   5.369547   3.038017
                   11
    11  H    0.000000
 Stoichiometry    C6H2Cl3(1-)
 Framework group  CS[SG(C6H2Cl3)]
 Deg. of freedom    19
 Full point group                 CS      NOp   2
 Largest Abelian subgroup         CS      NOp   2
 Largest concise Abelian subgroup C1      NOp   1
                         Standard orientation:                         
 ---------------------------------------------------------------------
 Center     Atomic      Atomic             Coordinates (Angstroms)
 Number     Number       Type             X           Y           Z
 ---------------------------------------------------------------------
      1          6           0       -1.291482    1.185920    0.000000
      2          6           0       -0.113104    1.932507    0.000000
      3          6           0        1.118181    1.292863    0.000000
      4          6           0        1.185775   -0.099217    0.000000
      5          6           0        0.000000   -0.849131    0.000000
      6          6           0       -1.241922   -0.209654    0.000000
      7         17           0       -2.839915    2.007591    0.000000
      8         17           0        2.749403   -0.895310    0.000000
      9         17           0        0.074259   -2.600098    0.000000
     10          1           0       -0.180915    3.589231    0.000000
     11          1           0        2.512532    2.183923    0.000000
 ---------------------------------------------------------------------
 Rotational constants (GHZ):           1.8430822           0.5854710           0.4443267
 Standard basis: VSTO-6G (5D, 7F)
 There are    29 symmetry adapted cartesian basis functions of A'  symmetry.
 There are     9 symmetry adapted cartesian basis functions of A"  symmetry.
 There are    29 symmetry adapted basis functions of A'  symmetry.
 There are     9 symmetry adapted basis functions of A"  symmetry.
    38 basis functions,   228 primitive gaussians,    38 cartesian basis functions
    24 alpha electrons       24 beta electrons
       nuclear repulsion energy       240.1934746173 Hartrees.
 Integral buffers will be    131072 words long.
 Regular integral format.
 Two-electron integral symmetry is turned off.
 Do NDO integrals.
 One-electron integrals computed using PRISM.
 NBasis=    38 RedAO= T EigKep=  1.00D+00  NBF=    29     9
 NBsUse=    38 1.00D-06 EigRej= -1.00D+00 NBFU=    29     9
 Initial guess from the checkpoint file:  "geometry_chks/_234ClBzAnionIntermediate.chk"
 B after Tr=     0.000000   -0.000000    0.000000
         Rot=    0.855003   -0.000000   -0.000000   -0.518623 Ang= -62.48 deg.
 Initial guess orbital symmetries:
       Occupied  (A') (A') (A') (A') (A') (A') (A') (A') (A') (A')
                 (A') (A") (A') (A") (A") (A') (A') (A') (A") (A')
                 (A') (A") (A") (A')
       Virtual   (A') (A') (A") (A') (A") (A') (A') (A") (A') (A')
                 (A') (A') (A') (A')
 Keep J ints in memory in canonical form, NReq=863588.
 Overlap will be assumed to be unity.
 Requested convergence on RMS density matrix=1.00D-08 within**** cycles.
 Requested convergence on MAX density matrix=1.00D-06.
 Requested convergence on             energy=1.00D-06.
 No special actions if energy rises.
 Fock symm off for IB=2 I1=    1 I=   30 J=    8 Cut=1.00D-07 Err=1.02D-03
 Fock matrix is not symmetric: symmetry in diagonalization turned off.
 SCF Done:  E(RAM1) =  0.219833087693     A.U. after   14 cycles
            NFock= 13  Conv=0.33D-08     -V/T= 1.0019
 Calling FoFJK, ICntrl=      2127 FMM=F ISym2X=1 I1Cent= 0 IOpClX= 0 NMat=1 NMatS=1 NMatT=0.
 ***** Axes restored to original set *****
 -------------------------------------------------------------------
 Center     Atomic                   Forces (Hartrees/Bohr)
 Number     Number              X              Y              Z
 -------------------------------------------------------------------
      1        6           0.001605778    0.000062072    0.000000000
      2        6           0.007067028    0.099796057    0.000000000
      3        6           0.075614173    0.062210672   -0.000000000
      4        6           0.020984020   -0.004278188    0.000000000
      5        6          -0.011581085    0.000768942   -0.000000000
      6        6           0.004523831    0.001170887    0.000000000
      7       17           0.017896337   -0.008261942   -0.000000000
      8       17          -0.014608118    0.012327205    0.000000000
      9       17          -0.001266289    0.020652466   -0.000000000
     10        1           0.003833547   -0.119531902   -0.000000000
     11        1          -0.104069222   -0.064916266   -0.000000000
 -------------------------------------------------------------------
 Cartesian Forces:  Max     0.119531902 RMS     0.039213383

 GradGradGradGradGradGradGradGradGradGradGradGradGradGradGradGradGradGrad
 Berny optimization.
 Using GEDIIS/GDIIS optimizer.
 FormGI is forming the generalized inverse of G from B-inverse, IUseBI=4.
 Internal  Forces:  Max     0.122654470 RMS     0.026342782
 Search for a local minimum.
 Step number   2 out of a maximum of   57
 All quantities printed in internal units (Hartrees-Bohrs-Radians)
 Mixed Optimization -- RFO/linear search
 Update second derivatives using D2CorX and points    1    2
 DE= -5.46D-02 DEPred=-5.12D-02 R= 1.07D+00
 TightC=F SS=  1.41D+00  RLast= 3.00D-01 DXNew= 5.0454D-01 9.0000D-01
 Trust test= 1.07D+00 RLast= 3.00D-01 DXMaxT set to 5.05D-01
 ITU=  1  0
 Use linear search instead of GDIIS.
 Linear search step of   0.600 exceeds DXMaxT=   0.505 but not scaled.
 Quartic linear search produced a step of  2.00000.
 Iteration  1 RMS(Cart)=  0.05981265 RMS(Int)=  0.04381406
 Iteration  2 RMS(Cart)=  0.03827928 RMS(Int)=  0.00285432
 Iteration  3 RMS(Cart)=  0.00268036 RMS(Int)=  0.00004792
 Iteration  4 RMS(Cart)=  0.00000006 RMS(Int)=  0.00004792
 ClnCor:  largest displacement from symmetrization is 6.66D-15 for atom     7.
 Variable       Old X    -DE/DX   Delta X   Delta X   Delta X     New X
                                 (Linear)    (Quad)   (Total)
    R1        2.63613  -0.01524  -0.04127   0.00000  -0.04120   2.59493
    R2        2.63892  -0.01414  -0.03570   0.00000  -0.03570   2.60322
    R3        3.31257  -0.01966  -0.04756   0.00000  -0.04756   3.26501
    R4        2.62203  -0.02877  -0.06947   0.00000  -0.06940   2.55263
    R5        3.13338  -0.11959  -0.40593   0.00000  -0.40593   2.72745
    R6        2.63375  -0.01649  -0.04604   0.00000  -0.04604   2.58771
    R7        3.12703  -0.12265  -0.41861   0.00000  -0.41861   2.70841
    R8        2.65130  -0.00180  -0.01095   0.00000  -0.01102   2.64028
    R9        3.31575  -0.01868  -0.04116   0.00000  -0.04116   3.27460
   R10        2.63974  -0.01466  -0.03402   0.00000  -0.03409   2.60565
   R11        3.31182  -0.02068  -0.04900   0.00000  -0.04900   3.26282
    A1        2.10004   0.00437   0.01129   0.00000   0.01137   2.11140
    A2        2.08899  -0.00452  -0.01081   0.00000  -0.01085   2.07814
    A3        2.09416   0.00015  -0.00048   0.00000  -0.00052   2.09364
    A4        2.09773   0.00249   0.00668   0.00000   0.00682   2.10455
    A5        2.09463   0.00012   0.00046   0.00000   0.00039   2.09502
    A6        2.09082  -0.00261  -0.00714   0.00000  -0.00721   2.08361
    A7        2.09843   0.00362   0.00807   0.00000   0.00814   2.10658
    A8        2.09383  -0.00081  -0.00112   0.00000  -0.00116   2.09267
    A9        2.09092  -0.00280  -0.00695   0.00000  -0.00699   2.08393
   A10        2.08620  -0.00688  -0.01638   0.00000  -0.01645   2.06975
   A11        2.09024  -0.00329  -0.00832   0.00000  -0.00828   2.08196
   A12        2.10675   0.01016   0.02470   0.00000   0.02473   2.13148
   A13        2.10217   0.00521   0.01555   0.00000   0.01541   2.11758
   A14        2.09233  -0.00141  -0.00411   0.00000  -0.00404   2.08829
   A15        2.08868  -0.00380  -0.01144   0.00000  -0.01137   2.07731
   A16        2.08180  -0.00881  -0.02521   0.00000  -0.02530   2.05650
    D1        0.00000  -0.00000   0.00000   0.00000   0.00000   0.00000
    D2        3.14159  -0.00000   0.00000   0.00000   0.00000   3.14159
    D3        3.14159   0.00000   0.00000   0.00000   0.00000   3.14159
    D4        0.00000   0.00000   0.00000   0.00000   0.00000   0.00000
    D5        0.00000   0.00000   0.00000   0.00000   0.00000   0.00000
    D6        3.14159  -0.00000   0.00000   0.00000   0.00000   3.14159
    D7        0.00000   0.00000   0.00000   0.00000   0.00000   0.00000
    D8        3.14159  -0.00000   0.00000   0.00000   0.00000   3.14159
    D9        3.14159   0.00000   0.00000   0.00000   0.00000   3.14159
   D10        0.00000   0.00000   0.00000   0.00000   0.00000   0.00000
   D11        0.00000   0.00000   0.00000   0.00000   0.00000   0.00000
   D12        3.14159  -0.00000   0.00000   0.00000   0.00000   3.14159
   D13        3.14159   0.00000   0.00000   0.00000   0.00000   3.14159
   D14        0.00000   0.00000   0.00000   0.00000   0.00000   0.00000
   D15        0.00000  -0.00000   0.00000   0.00000   0.00000   0.00000
   D16        3.14159  -0.00000   0.00000   0.00000   0.00000   3.14159
   D17        3.14159  -0.00000   0.00000   0.00000   0.00000   3.14159
   D18        0.00000  -0.00000   0.00000   0.00000   0.00000   0.00000
   D19        0.00000   0.00000   0.00000   0.00000   0.00000   0.00000
   D20        3.14159   0.00000   0.00000   0.00000   0.00000   3.14159
         Item               Value     Threshold  Converged?
 Maximum Force            0.122654     0.000450     NO 
 RMS     Force            0.026343     0.000300     NO 
 Maximum Displacement     0.415393     0.001800     NO 
 RMS     Displacement     0.097159     0.001200     NO 
 Predicted change in Energy=-1.061623D-01
 GradGradGradGradGradGradGradGradGradGradGradGradGradGradGradGradGradGrad

                          Input orientation:                          
 ---------------------------------------------------------------------
 Center     Atomic      Atomic             Coordinates (Angstroms)
 Number     Number       Type             X           Y           Z
 ---------------------------------------------------------------------
      1          6           0       -3.150752    0.217336    0.000000
      2          6           0       -1.975544    0.927619    0.000000
      3          6           0       -0.785862    0.287854    0.000000
      4          6           0       -0.727842   -1.080274    0.000000
      5          6           0       -1.925250   -1.800213    0.000000
      6          6           0       -3.146576   -1.160222    0.000000
      7         17           0       -4.650307    1.075547    0.000000
      8         17           0        0.818064   -1.863163    0.000000
      9         17           0       -1.884082   -3.526333    0.000000
     10          1           0       -2.003569    2.370650    0.000000
     11          1           0        0.431849    1.043718    0.000000
 ---------------------------------------------------------------------
                    Distance matrix (angstroms):
                    1          2          3          4          5
     1  C    0.000000
     2  C    1.373178   0.000000
     3  C    2.365941   1.350793   0.000000
     4  C    2.748506   2.363979   1.369357   0.000000
     5  C    2.360585   2.728296   2.378703   1.397175   0.000000
     6  C    1.377564   2.393824   2.769457   2.420055   1.378850
     7  Cl   1.727770   2.678851   3.943906   4.475857   3.961810
     8  Cl   4.481069   3.948761   2.683180   1.732842   2.744036
     9  Cl   3.952152   4.454891   3.969144   2.705567   1.726610
    10  H    2.439834   1.443303   2.412644   3.679179   4.171598
    11  H    3.676675   2.410191   1.433231   2.419964   3.693759
                    6          7          8          9         10
     6  C    0.000000
     7  Cl   2.694415   0.000000
     8  Cl   4.026475   6.207987   0.000000
     9  Cl   2.681860   5.369292   3.172968   0.000000
    10  H    3.711269   2.946611   5.087906   5.898193   0.000000
    11  H    4.202675   5.082256   2.932426   5.123368   2.773447
                   11
    11  H    0.000000
 Stoichiometry    C6H2Cl3(1-)
 Framework group  CS[SG(C6H2Cl3)]
 Deg. of freedom    19
 Full point group                 CS      NOp   2
 Largest Abelian subgroup         CS      NOp   2
 Largest concise Abelian subgroup C1      NOp   1
                         Standard orientation:                         
 ---------------------------------------------------------------------
 Center     Atomic      Atomic             Coordinates (Angstroms)
 Number     Number       Type             X           Y           Z
 ---------------------------------------------------------------------
      1          6           0       -1.287770    1.139228    0.000000
      2          6           0       -0.135263    1.885783    0.000000
      3          6           0        1.073775    1.283396    0.000000
      4          6           0        1.174395   -0.082260    0.000000
      5          6           0        0.000000   -0.839158    0.000000
      6          6           0       -1.240674   -0.237531    0.000000
      7         17           0       -2.813337    1.950299    0.000000
      8         17           0        2.743943   -0.816602    0.000000
      9         17           0        0.094929   -2.563157    0.000000
     10          1           0       -0.208236    3.327240    0.000000
     11          1           0        2.267344    2.076834    0.000000
 ---------------------------------------------------------------------
 Rotational constants (GHZ):           1.8861214           0.6051371           0.4581468
 Standard basis: VSTO-6G (5D, 7F)
 There are    29 symmetry adapted cartesian basis functions of A'  symmetry.
 There are     9 symmetry adapted cartesian basis functions of A"  symmetry.
 There are    29 symmetry adapted basis functions of A'  symmetry.
 There are     9 symmetry adapted basis functions of A"  symmetry.
    38 basis functions,   228 primitive gaussians,    38 cartesian basis functions
    24 alpha electrons       24 beta electrons
       nuclear repulsion energy       242.9829312564 Hartrees.
 Integral buffers will be    131072 words long.
 Regular integral format.
 Two-electron integral symmetry is turned off.
 Do NDO integrals.
 One-electron integrals computed using PRISM.
 NBasis=    38 RedAO= T EigKep=  1.00D+00  NBF=    29     9
 NBsUse=    38 1.00D-06 EigRej= -1.00D+00 NBFU=    29     9
 Initial guess from the checkpoint file:  "geometry_chks/_234ClBzAnionIntermediate.chk"
 B after Tr=     0.000000    0.000000   -0.000000
         Rot=    0.999974    0.000000   -0.000000   -0.007216 Ang=  -0.83 deg.
 Initial guess orbital symmetries:
       Occupied  (A') (A') (A') (A') (A') (A') (A') (A') (A') (A')
                 (A') (A") (A') (A") (A") (A') (A') (A') (A") (A')
                 (A') (A") (A") (A')
       Virtual   (A') (A") (A') (A') (A") (A') (A') (A") (A') (A')
                 (A') (A') (A') (A')
 Keep J ints in memory in canonical form, NReq=863588.
 Overlap will be assumed to be unity.
 Requested convergence on RMS density matrix=1.00D-08 within**** cycles.
 Requested convergence on MAX density matrix=1.00D-06.
 Requested convergence on             energy=1.00D-06.
 No special actions if energy rises.
 Fock symm off for IB=2 I1=    1 I=   30 J=    6 Cut=1.00D-07 Err=2.55D-03
 Fock matrix is not symmetric: symmetry in diagonalization turned off.
 SCF Done:  E(RAM1) =  0.119955163635     A.U. after   14 cycles
            NFock= 13  Conv=0.36D-08     -V/T= 1.0011
 Calling FoFJK, ICntrl=      2127 FMM=F ISym2X=1 I1Cent= 0 IOpClX= 0 NMat=1 NMatS=1 NMatT=0.
 ***** Axes restored to original set *****
 -------------------------------------------------------------------
 Center     Atomic                   Forces (Hartrees/Bohr)
 Number     Number              X              Y              Z
 -------------------------------------------------------------------
      1        6          -0.023500614    0.002688698    0.000000000
      2        6          -0.012731794    0.143319446   -0.000000000
      3        6           0.122826100    0.071797908    0.000000000
      4        6           0.021083388   -0.028945849    0.000000000
      5        6          -0.002246067   -0.015484400   -0.000000000
      6        6          -0.009520125   -0.009663080    0.000000000
      7       17           0.002141098   -0.000404326   -0.000000000
      8       17          -0.005605391    0.004310982    0.000000000
      9       17           0.000157549    0.003566890   -0.000000000
     10        1           0.002776456   -0.111667648   -0.000000000
     11        1          -0.095380600   -0.059518620   -0.000000000
 -------------------------------------------------------------------
 Cartesian Forces:  Max     0.143319446 RMS     0.045526965

 GradGradGradGradGradGradGradGradGradGradGradGradGradGradGradGradGradGrad
 Berny optimization.
 Using GEDIIS/GDIIS optimizer.
 FormGI is forming the generalized inverse of G from B-inverse, IUseBI=4.
 Internal  Forces:  Max     0.112427105 RMS     0.024618091
 Search for a local minimum.
 Step number   3 out of a maximum of   57
 All quantities printed in internal units (Hartrees-Bohrs-Radians)
 Mixed Optimization -- RFO/linear search
 Update second derivatives using D2CorX and points    2    3
 ITU=  0  1  0
 Use linear search instead of GDIIS.
 Linear search step of   0.778 exceeds DXMaxT=   0.505 but not scaled.
 Quartic linear search produced a step of  1.29608.
 Iteration  1 RMS(Cart)=  0.06788760 RMS(Int)=  0.06899897
 Iteration  2 RMS(Cart)=  0.03824496 RMS(Int)=  0.02777267
 Iteration  3 RMS(Cart)=  0.02578096 RMS(Int)=  0.00010006
 Iteration  4 RMS(Cart)=  0.00000633 RMS(Int)=  0.00009993
 Iteration  5 RMS(Cart)=  0.00000000 RMS(Int)=  0.00009993
 ClnCor:  largest displacement from symmetrization is 5.77D-15 for atom    10.
 Variable       Old X    -DE/DX   Delta X   Delta X   Delta X     New X
                                 (Linear)    (Quad)   (Total)
    R1        2.59493   0.02342  -0.05340   0.00000  -0.05324   2.54169
    R2        2.60322   0.01694  -0.04627   0.00000  -0.04625   2.55697
    R3        3.26501  -0.00206  -0.06164   0.00000  -0.06164   3.20337
    R4        2.55263   0.03312  -0.08995   0.00000  -0.08981   2.46282
    R5        2.72745  -0.11170  -0.52612   0.00000  -0.52612   2.20133
    R6        2.58771   0.02930  -0.05967   0.00000  -0.05967   2.52804
    R7        2.70841  -0.11243  -0.54256   0.00000  -0.54256   2.16586
    R8        2.64028   0.01479  -0.01429   0.00000  -0.01444   2.62584
    R9        3.27460  -0.00695  -0.05334   0.00000  -0.05334   3.22125
   R10        2.60565   0.01434  -0.04418   0.00000  -0.04433   2.56132
   R11        3.26282  -0.00356  -0.06351   0.00000  -0.06351   3.19931
    A1        2.11140  -0.00057   0.01473   0.00000   0.01490   2.12630
    A2        2.07814  -0.00088  -0.01406   0.00000  -0.01414   2.06400
    A3        2.09364   0.00145  -0.00067   0.00000  -0.00075   2.09288
    A4        2.10455  -0.00438   0.00884   0.00000   0.00913   2.11369
    A5        2.09502   0.00302   0.00051   0.00000   0.00036   2.09538
    A6        2.08361   0.00136  -0.00934   0.00000  -0.00949   2.07412
    A7        2.10658  -0.00105   0.01056   0.00000   0.01070   2.11728
    A8        2.09267   0.00088  -0.00150   0.00000  -0.00157   2.09110
    A9        2.08393   0.00016  -0.00905   0.00000  -0.00913   2.07481
   A10        2.06975  -0.00185  -0.02132   0.00000  -0.02146   2.04829
   A11        2.08196  -0.00123  -0.01074   0.00000  -0.01067   2.07129
   A12        2.13148   0.00307   0.03206   0.00000   0.03213   2.16361
   A13        2.11758   0.00257   0.01998   0.00000   0.01970   2.13729
   A14        2.08829  -0.00168  -0.00524   0.00000  -0.00510   2.08318
   A15        2.07731  -0.00089  -0.01474   0.00000  -0.01460   2.06272
   A16        2.05650   0.00528  -0.03279   0.00000  -0.03297   2.02353
    D1        0.00000  -0.00000   0.00000   0.00000   0.00000   0.00000
    D2        3.14159  -0.00000   0.00000   0.00000   0.00000   3.14159
    D3        3.14159   0.00000   0.00000   0.00000   0.00000   3.14159
    D4        0.00000   0.00000   0.00000   0.00000   0.00000   0.00000
    D5        0.00000   0.00000   0.00000   0.00000   0.00000   0.00000
    D6        3.14159  -0.00000   0.00000   0.00000   0.00000   3.14159
    D7        0.00000   0.00000   0.00000   0.00000   0.00000   0.00000
    D8        3.14159  -0.00000   0.00000   0.00000   0.00000   3.14159
    D9        3.14159   0.00000   0.00000   0.00000   0.00000   3.14159
   D10        0.00000   0.00000   0.00000   0.00000   0.00000   0.00000
   D11        0.00000   0.00000   0.00000   0.00000   0.00000   0.00000
   D12        3.14159  -0.00000   0.00000   0.00000   0.00000   3.14159
   D13        3.14159   0.00000   0.00000   0.00000   0.00000   3.14159
   D14        0.00000   0.00000   0.00000   0.00000   0.00000   0.00000
   D15        0.00000  -0.00000   0.00000   0.00000   0.00000   0.00000
   D16        3.14159  -0.00000   0.00000   0.00000   0.00000   3.14159
   D17        3.14159  -0.00000   0.00000   0.00000   0.00000   3.14159
   D18        0.00000  -0.00000   0.00000   0.00000   0.00000   0.00000
   D19        0.00000   0.00000   0.00000   0.00000   0.00000   0.00000
   D20        3.14159   0.00000   0.00000   0.00000   0.00000   3.14159
         Item               Value     Threshold  Converged?
 Maximum Force            0.112427     0.000450     NO 
 RMS     Force            0.024618     0.000300     NO 
 Maximum Displacement     0.538131     0.001800     NO 
 RMS     Displacement     0.125820     0.001200     NO 
 Predicted change in Energy=-9.535896D-02
 GradGradGradGradGradGradGradGradGradGradGradGradGradGradGradGradGradGrad

                          Input orientation:                          
 ---------------------------------------------------------------------
 Center     Atomic      Atomic             Coordinates (Angstroms)
 Number     Number       Type             X           Y           Z
 ---------------------------------------------------------------------
      1          6           0       -3.099719    0.233120    0.000000
      2          6           0       -1.943974    0.921079    0.000000
      3          6           0       -0.794662    0.306595    0.000000
      4          6           0       -0.720454   -1.029126    0.000000
      5          6           0       -1.917248   -1.735164    0.000000
      6          6           0       -3.124863   -1.119736    0.000000
      7         17           0       -4.553079    1.105636    0.000000
      8         17           0        0.818152   -1.762882    0.000000
      9         17           0       -1.882368   -3.427807    0.000000
     10          1           0       -1.958350    2.085884    0.000000
     11          1           0        0.176696    0.914922    0.000000
 ---------------------------------------------------------------------
                    Distance matrix (angstroms):
                    1          2          3          4          5
     1  C    0.000000
     2  C    1.345003   0.000000
     3  C    2.306227   1.303269   0.000000
     4  C    2.693355   2.302238   1.337781   0.000000
     5  C    2.296166   2.656377   2.330016   1.389534   0.000000
     6  C    1.353089   2.357842   2.732079   2.406115   1.355391
     7  Cl   1.695153   2.615624   3.842417   4.387052   3.875274
     8  Cl   4.397014   3.851362   2.623719   1.704614   2.735541
     9  Cl   3.858021   4.349322   3.889584   2.665279   1.693002
    10  H    2.176110   1.164894   2.126038   3.351965   3.821268
    11  H    3.346602   2.120679   1.146123   2.141075   3.377507
                    6          7          8          9         10
     6  C    0.000000
     7  Cl   2.644255   0.000000
     8  Cl   3.995123   6.089214   0.000000
     9  Cl   2.621256   5.261635   3.172505   0.000000
    10  H    3.411268   2.773717   4.745731   5.514214   0.000000
    11  H    3.878160   4.733619   2.753561   4.806146   2.435071
                   11
    11  H    0.000000
 Stoichiometry    C6H2Cl3(1-)
 Framework group  CS[SG(C6H2Cl3)]
 Deg. of freedom    19
 Full point group                 CS      NOp   2
 Largest Abelian subgroup         CS      NOp   2
 Largest concise Abelian subgroup C1      NOp   1
                         Standard orientation:                         
 ---------------------------------------------------------------------
 Center     Atomic      Atomic             Coordinates (Angstroms)
 Number     Number       Type             X           Y           Z
 ---------------------------------------------------------------------
      1          6           0       -1.281399    1.079056    0.000000
      2          6           0       -0.162278    1.825112    0.000000
      3          6           0        1.016902    1.270096    0.000000
      4          6           0        1.159194   -0.060096    0.000000
      5          6           0        0.000000   -0.826303    0.000000
      6          6           0       -1.237455   -0.273319    0.000000
      7         17           0       -2.777403    1.876249    0.000000
      8         17           0        2.733249   -0.714357    0.000000
      9         17           0        0.121234   -2.514959    0.000000
     10          1           0       -0.236092    2.987665    0.000000
     11          1           0        1.955941    1.927213    0.000000
 ---------------------------------------------------------------------
 Rotational constants (GHZ):           1.9424179           0.6323293           0.4770363
 Standard basis: VSTO-6G (5D, 7F)
 There are    29 symmetry adapted cartesian basis functions of A'  symmetry.
 There are     9 symmetry adapted cartesian basis functions of A"  symmetry.
 There are    29 symmetry adapted basis functions of A'  symmetry.
 There are     9 symmetry adapted basis functions of A"  symmetry.
    38 basis functions,   228 primitive gaussians,    38 cartesian basis functions
    24 alpha electrons       24 beta electrons
       nuclear repulsion energy       246.8997943828 Hartrees.
 Integral buffers will be    131072 words long.
 Regular integral format.
 Two-electron integral symmetry is turned off.
 Do NDO integrals.
 One-electron integrals computed using PRISM.
 NBasis=    38 RedAO= T EigKep=  1.00D+00  NBF=    29     9
 NBsUse=    38 1.00D-06 EigRej= -1.00D+00 NBFU=    29     9
 Initial guess from the checkpoint file:  "geometry_chks/_234ClBzAnionIntermediate.chk"
 B after Tr=    -0.000000   -0.000000    0.000000
         Rot=    0.999955   -0.000000   -0.000000   -0.009509 Ang=  -1.09 deg.
 Initial guess orbital symmetries:
       Occupied  (A') (A') (A') (A') (A') (A') (A') (A') (A') (A')
                 (A') (A") (A') (A") (A') (A") (A') (A') (A") (A')
                 (A') (A") (A") (A')
       Virtual   (A") (A') (A") (A') (A') (A') (A') (A") (A') (A')
                 (A') (A') (A') (A')
 Keep J ints in memory in canonical form, NReq=863588.
 Overlap will be assumed to be unity.
 Requested convergence on RMS density matrix=1.00D-08 within**** cycles.
 Requested convergence on MAX density matrix=1.00D-06.
 Requested convergence on             energy=1.00D-06.
 No special actions if energy rises.
 Fock symm off for IB=2 I1=    1 I=   30 J=    1 Cut=1.00D-07 Err=7.36D-03
 Fock matrix is not symmetric: symmetry in diagonalization turned off.
 SCF Done:  E(RAM1) =  0.554637805900E-01 A.U. after   13 cycles
            NFock= 12  Conv=0.82D-08     -V/T= 1.0005
 Calling FoFJK, ICntrl=      2127 FMM=F ISym2X=1 I1Cent= 0 IOpClX= 0 NMat=1 NMatS=1 NMatT=0.
 ***** Axes restored to original set *****
 -------------------------------------------------------------------
 Center     Atomic                   Forces (Hartrees/Bohr)
 Number     Number              X              Y              Z
 -------------------------------------------------------------------
      1        6          -0.063941850    0.002762701    0.000000000
      2        6          -0.051113800    0.150118117    0.000000000
      3        6           0.143487405    0.044456198   -0.000000000
      4        6           0.020841384   -0.072793891    0.000000000
      5        6           0.012188265   -0.038810669    0.000000000
      6        6          -0.032142327   -0.025983406   -0.000000000
      7       17          -0.021173785    0.011774416   -0.000000000
      8       17           0.008448200   -0.007503061   -0.000000000
      9       17           0.002151369   -0.021594353   -0.000000000
     10        1          -0.000004188   -0.031302271   -0.000000000
     11        1          -0.018740673   -0.011123781   -0.000000000
 -------------------------------------------------------------------
 Cartesian Forces:  Max     0.150118117 RMS     0.043882079

 GradGradGradGradGradGradGradGradGradGradGradGradGradGradGradGradGradGrad
 Berny optimization.
 Using GEDIIS/GDIIS optimizer.
 FormGI is forming the generalized inverse of G from B-inverse, IUseBI=4.
 Internal  Forces:  Max     0.140765288 RMS     0.032966118
 Search for a local minimum.
 Step number   4 out of a maximum of   57
 All quantities printed in internal units (Hartrees-Bohrs-Radians)
 Mixed Optimization -- RFO/linear search
 Update second derivatives using D2CorX and points    3    4
 ITU=  0  0  1  0
 Use linear search instead of GDIIS.
     Eigenvalues ---    0.02011   0.02011   0.02011   0.02011   0.02011
     Eigenvalues ---    0.02011   0.02011   0.02011   0.06507   0.11557
     Eigenvalues ---    0.16000   0.16000   0.22441   0.24458   0.24944
     Eigenvalues ---    0.25000   0.25000   0.25027   0.28472   0.29033
     Eigenvalues ---    0.29056   0.40845   0.41637   0.44633   0.44656
     Eigenvalues ---    0.44657   0.61268
 RFO step:  Lambda=-9.68543375D-02 EMin= 2.01065489D-02
 Quartic linear search produced a step of -0.03440.
 Maximum step size (   0.505) exceeded in Quadratic search.
    -- Step size scaled by   0.974
 Iteration  1 RMS(Cart)=  0.06967303 RMS(Int)=  0.00866669
 Iteration  2 RMS(Cart)=  0.00719904 RMS(Int)=  0.00037998
 Iteration  3 RMS(Cart)=  0.00000629 RMS(Int)=  0.00037995
 Iteration  4 RMS(Cart)=  0.00000000 RMS(Int)=  0.00037995
 ClnCor:  largest displacement from symmetrization is 7.56D-09 for atom    11.
 Variable       Old X    -DE/DX   Delta X   Delta X   Delta X     New X
                                 (Linear)    (Quad)   (Total)
    R1        2.54169   0.08560   0.00183   0.13938   0.14172   2.68341
    R2        2.55697   0.06262   0.00159   0.09918   0.10073   2.65770
    R3        3.20337   0.02421   0.00212   0.05359   0.05571   3.25908
    R4        2.46282   0.14077   0.00309   0.22758   0.23122   2.69404
    R5        2.20133  -0.03130   0.01810  -0.26818  -0.25008   1.95125
    R6        2.52804   0.10348   0.00205   0.16709   0.16918   2.69722
    R7        2.16586  -0.02179   0.01866  -0.22295  -0.20429   1.96157
    R8        2.62584   0.03957   0.00050   0.06088   0.06086   2.68670
    R9        3.22125   0.01086   0.00183   0.02349   0.02533   3.24658
   R10        2.56132   0.05812   0.00152   0.08881   0.08978   2.65110
   R11        3.19931   0.02163   0.00218   0.04783   0.05002   3.24933
    A1        2.12630  -0.00776  -0.00051  -0.01604  -0.01603   2.11027
    A2        2.06400   0.00517   0.00049   0.01087   0.01109   2.07509
    A3        2.09288   0.00259   0.00003   0.00518   0.00494   2.09783
    A4        2.11369  -0.01793  -0.00031  -0.03319  -0.03236   2.08133
    A5        2.09538   0.00853  -0.00001   0.01556   0.01498   2.11035
    A6        2.07412   0.00939   0.00033   0.01763   0.01738   2.09150
    A7        2.11728  -0.01097  -0.00037  -0.01598  -0.01570   2.10158
    A8        2.09110   0.00492   0.00005   0.00628   0.00601   2.09711
    A9        2.07481   0.00605   0.00031   0.00970   0.00968   2.08449
   A10        2.04829   0.00643   0.00074   0.01528   0.01557   2.06386
   A11        2.07129   0.00184   0.00037   0.00444   0.00503   2.07632
   A12        2.16361  -0.00826  -0.00111  -0.01972  -0.02060   2.14301
   A13        2.13729   0.00109  -0.00068  -0.00812  -0.00984   2.12745
   A14        2.08318  -0.00327   0.00018  -0.00271  -0.00202   2.08116
   A15        2.06272   0.00218   0.00050   0.01084   0.01186   2.07457
   A16        2.02353   0.02915   0.00113   0.05805   0.05835   2.08187
    D1        0.00000   0.00000   0.00000  -0.00000   0.00000   0.00000
    D2        3.14159  -0.00000   0.00000  -0.00000   0.00000   3.14159
    D3        3.14159   0.00000   0.00000   0.00000   0.00000   3.14159
    D4        0.00000  -0.00000   0.00000  -0.00000   0.00000   0.00000
    D5        0.00000   0.00000   0.00000   0.00000   0.00000   0.00000
    D6        3.14159  -0.00000   0.00000  -0.00000   0.00000   3.14159
    D7        0.00000  -0.00000   0.00000  -0.00000   0.00000   0.00000
    D8        3.14159  -0.00000   0.00000  -0.00000   0.00000   3.14159
    D9        3.14159   0.00000   0.00000   0.00000   0.00000   3.14159
   D10        0.00000  -0.00000   0.00000  -0.00000   0.00000   0.00000
   D11        0.00000   0.00000   0.00000   0.00000   0.00000   0.00000
   D12        3.14159  -0.00000   0.00000  -0.00000   0.00000   3.14159
   D13        3.14159   0.00000   0.00000   0.00000   0.00000   3.14159
   D14        0.00000  -0.00000   0.00000   0.00000   0.00000   0.00000
   D15        0.00000   0.00000   0.00000  -0.00000   0.00000   0.00000
   D16        3.14159  -0.00000   0.00000  -0.00000   0.00000   3.14159
   D17        3.14159   0.00000   0.00000   0.00000   0.00000   3.14159
   D18        0.00000   0.00000   0.00000  -0.00000   0.00000   0.00000
   D19        0.00000  -0.00000   0.00000  -0.00000   0.00000   0.00000
   D20        3.14159   0.00000   0.00000   0.00000   0.00000   3.14159
         Item               Value     Threshold  Converged?
 Maximum Force            0.140765     0.000450     NO 
 RMS     Force            0.032966     0.000300     NO 
 Maximum Displacement     0.233337     0.001800     NO 
 RMS     Displacement     0.072658     0.001200     NO 
 Predicted change in Energy=-6.001972D-02
 GradGradGradGradGradGradGradGradGradGradGradGradGradGradGradGradGradGrad

                          Input orientation:                          
 ---------------------------------------------------------------------
 Center     Atomic      Atomic             Coordinates (Angstroms)
 Number     Number       Type             X           Y           Z
 ---------------------------------------------------------------------
      1          6           0       -3.162100    0.289756    0.000000
      2          6           0       -1.959323    1.044555    0.000000
      3          6           0       -0.708103    0.361283    0.000000
      4          6           0       -0.663927   -1.065342    0.000000
      5          6           0       -1.894892   -1.776726    0.000000
      6          6           0       -3.132634   -1.116329    0.000000
      7         17           0       -4.670554    1.125770    0.000000
      8         17           0        0.864233   -1.850394    0.000000
      9         17           0       -1.871420   -3.496036    0.000000
     10          1           0       -1.980873    2.076886    0.000000
     11          1           0        0.179723    0.899098    0.000000
 ---------------------------------------------------------------------
                    Distance matrix (angstroms):
                    1          2          3          4          5
     1  C    0.000000
     2  C    1.419998   0.000000
     3  C    2.455039   1.425627   0.000000
     4  C    2.842035   2.475827   1.427309   0.000000
     5  C    2.424080   2.822017   2.445312   1.421739   0.000000
     6  C    1.406394   2.458878   2.839312   2.469234   1.402901
     7  Cl   1.724631   2.712447   4.035525   4.566622   4.016066
     8  Cl   4.559781   4.043909   2.713624   1.718016   2.760108
     9  Cl   3.999759   4.541442   4.028922   2.714095   1.719470
    10  H    2.142225   1.032555   2.136173   3.407043   3.854571
    11  H    3.396921   2.143985   1.038017   2.137936   3.385862
                    6          7          8          9         10
     6  C    0.000000
     7  Cl   2.718861   0.000000
     8  Cl   4.063717   6.284220   0.000000
     9  Cl   2.693262   5.403354   3.192481   0.000000
    10  H    3.394581   2.852894   4.849552   5.573996   0.000000
    11  H    3.877326   4.855570   2.833419   4.850194   2.460764
                   11
    11  H    0.000000
 Stoichiometry    C6H2Cl3(1-)
 Framework group  CS[SG(C6H2Cl3)]
 Deg. of freedom    19
 Full point group                 CS      NOp   2
 Largest Abelian subgroup         CS      NOp   2
 Largest concise Abelian subgroup C1      NOp   1
                         Standard orientation:                         
 ---------------------------------------------------------------------
 Center     Atomic      Atomic             Coordinates (Angstroms)
 Number     Number       Type             X           Y           Z
 ---------------------------------------------------------------------
      1          6           0       -1.299682    1.194686    0.000000
      2          6           0       -0.108974    1.968384    0.000000
      3          6           0        1.152879    1.304955    0.000000
      4          6           0        1.219578   -0.120795    0.000000
      5          6           0        0.000000   -0.851528    0.000000
      6          6           0       -1.248017   -0.210759    0.000000
      7         17           0       -2.821150    2.006775    0.000000
      8         17           0        2.759944   -0.881617    0.000000
      9         17           0        0.050619   -2.570253    0.000000
     10          1           0       -0.146824    3.000245    0.000000
     11          1           0        2.032101    1.856723    0.000000
 ---------------------------------------------------------------------
 Rotational constants (GHZ):           1.8626651           0.5908608           0.4485691
 Standard basis: VSTO-6G (5D, 7F)
 There are    29 symmetry adapted cartesian basis functions of A'  symmetry.
 There are     9 symmetry adapted cartesian basis functions of A"  symmetry.
 There are    29 symmetry adapted basis functions of A'  symmetry.
 There are     9 symmetry adapted basis functions of A"  symmetry.
    38 basis functions,   228 primitive gaussians,    38 cartesian basis functions
    24 alpha electrons       24 beta electrons
       nuclear repulsion energy       242.3610326764 Hartrees.
 Integral buffers will be    131072 words long.
 Regular integral format.
 Two-electron integral symmetry is turned off.
 Do NDO integrals.
 One-electron integrals computed using PRISM.
 NBasis=    38 RedAO= T EigKep=  1.00D+00  NBF=    29     9
 NBsUse=    38 1.00D-06 EigRej= -1.00D+00 NBFU=    29     9
 Initial guess from the checkpoint file:  "geometry_chks/_234ClBzAnionIntermediate.chk"
 B after Tr=     0.000000    0.000000    0.000000
         Rot=    0.999845    0.000000    0.000000    0.017632 Ang=   2.02 deg.
 Initial guess orbital symmetries:
       Occupied  (A') (A') (A') (A') (A') (A') (A') (A') (A') (A')
                 (A') (A") (A') (A') (A") (A') (A") (A') (A") (A')
                 (A') (A") (A") (A')
       Virtual   (A") (A') (A") (A') (A') (A') (A") (A') (A') (A')
                 (A') (A') (A') (A')
 Keep J ints in memory in canonical form, NReq=863588.
 Overlap will be assumed to be unity.
 Requested convergence on RMS density matrix=1.00D-08 within**** cycles.
 Requested convergence on MAX density matrix=1.00D-06.
 Requested convergence on             energy=1.00D-06.
 No special actions if energy rises.
 Fock symm off for IB=2 I1=    1 I=   30 J=   22 Cut=1.00D-07 Err=7.81D-04
 Fock matrix is not symmetric: symmetry in diagonalization turned off.
 SCF Done:  E(RAM1) =  0.343900302425E-01 A.U. after   14 cycles
            NFock= 13  Conv=0.88D-08     -V/T= 1.0003
 Calling FoFJK, ICntrl=      2127 FMM=F ISym2X=1 I1Cent= 0 IOpClX= 0 NMat=1 NMatS=1 NMatT=0.
 ***** Axes restored to original set *****
 -------------------------------------------------------------------
 Center     Atomic                   Forces (Hartrees/Bohr)
 Number     Number              X              Y              Z
 -------------------------------------------------------------------
      1        6           0.032027692   -0.017608407    0.000000000
      2        6           0.003150424   -0.075545565    0.000000000
      3        6          -0.060444387   -0.039205778    0.000000000
      4        6          -0.029555547    0.018815616    0.000000000
      5        6           0.003283262    0.025337489    0.000000000
      6        6           0.011745928    0.010413199    0.000000000
      7       17           0.005557792   -0.002576246   -0.000000000
      8       17          -0.003751605    0.003131987   -0.000000000
      9       17          -0.000152784    0.002887094   -0.000000000
     10        1           0.000937975    0.050278014   -0.000000000
     11        1           0.037201251    0.024072596   -0.000000000
 -------------------------------------------------------------------
 Cartesian Forces:  Max     0.075545565 RMS     0.023952087

 GradGradGradGradGradGradGradGradGradGradGradGradGradGradGradGradGradGrad
 Berny optimization.
 Using GEDIIS/GDIIS optimizer.
 FormGI is forming the generalized inverse of G from B-inverse, IUseBI=4.
 Internal  Forces:  Max     0.050247487 RMS     0.014862109
 Search for a local minimum.
 Step number   5 out of a maximum of   57
 All quantities printed in internal units (Hartrees-Bohrs-Radians)
 Mixed Optimization -- RFO/linear search
 Update second derivatives using D2CorX and points    4    5
 DE= -2.11D-02 DEPred=-6.00D-02 R= 3.51D-01
 Trust test= 3.51D-01 RLast= 4.91D-01 DXMaxT set to 5.05D-01
 ITU=  0  0  0  1  0
 Use linear search instead of GDIIS.
     Eigenvalues ---    0.02011   0.02011   0.02011   0.02011   0.02011
     Eigenvalues ---    0.02011   0.02011   0.02011   0.06549   0.15996
     Eigenvalues ---    0.16000   0.19465   0.22473   0.24424   0.24977
     Eigenvalues ---    0.24999   0.25001   0.25156   0.28631   0.29026
     Eigenvalues ---    0.29059   0.41058   0.41576   0.44583   0.44657
     Eigenvalues ---    0.44673   0.74645
 RFO step:  Lambda=-9.01242867D-03 EMin= 2.01065537D-02
 Quartic linear search produced a step of -0.35778.
 Iteration  1 RMS(Cart)=  0.03703897 RMS(Int)=  0.00463932
 Iteration  2 RMS(Cart)=  0.00438984 RMS(Int)=  0.00013242
 Iteration  3 RMS(Cart)=  0.00000036 RMS(Int)=  0.00013242
 ClnCor:  largest displacement from symmetrization is 1.35D-11 for atom    11.
 Variable       Old X    -DE/DX   Delta X   Delta X   Delta X     New X
                                 (Linear)    (Quad)   (Total)
    R1        2.68341  -0.02686  -0.05071   0.02810  -0.02278   2.66063
    R2        2.65770  -0.02766  -0.03604   0.00952  -0.02651   2.63119
    R3        3.25908  -0.00611  -0.01993   0.01514  -0.00479   3.25429
    R4        2.69404  -0.03604  -0.08273   0.05479  -0.02813   2.66592
    R5        1.95125   0.05025   0.08948   0.14231   0.23178   2.18303
    R6        2.69722  -0.03337  -0.06053   0.03101  -0.02953   2.66769
    R7        1.96157   0.04429   0.07309   0.10453   0.17762   2.13919
    R8        2.68670  -0.02751  -0.02177  -0.01062  -0.03222   2.65448
    R9        3.24658  -0.00477  -0.00906   0.00356  -0.00551   3.24107
   R10        2.65110  -0.02759  -0.03212   0.00427  -0.02766   2.62344
   R11        3.24933  -0.00289  -0.01789   0.01965   0.00176   3.25109
    A1        2.11027   0.01040   0.00573   0.01850   0.02405   2.13432
    A2        2.07509  -0.00592  -0.00397  -0.00968  -0.01356   2.06153
    A3        2.09783  -0.00448  -0.00177  -0.00882  -0.01049   2.08733
    A4        2.08133  -0.00264   0.01158  -0.02134  -0.01016   2.07117
    A5        2.11035   0.00326  -0.00536   0.01775   0.01259   2.12295
    A6        2.09150  -0.00062  -0.00622   0.00359  -0.00243   2.08907
    A7        2.10158  -0.00369   0.00562  -0.01728  -0.01189   2.08969
    A8        2.09711   0.00056  -0.00215   0.00287   0.00083   2.09794
    A9        2.08449   0.00314  -0.00346   0.01441   0.01106   2.09555
   A10        2.06386   0.00681  -0.00557   0.02421   0.01879   2.08265
   A11        2.07632  -0.00515  -0.00180  -0.00990  -0.01178   2.06454
   A12        2.14301  -0.00167   0.00737  -0.01431  -0.00702   2.13599
   A13        2.12745   0.00044   0.00352  -0.00466  -0.00078   2.12667
   A14        2.08116  -0.00004   0.00072  -0.00063  -0.00008   2.08108
   A15        2.07457  -0.00040  -0.00424   0.00528   0.00086   2.07543
   A16        2.08187  -0.01132  -0.02088   0.00057  -0.02001   2.06186
    D1        0.00000  -0.00000   0.00000  -0.00000   0.00000   0.00000
    D2        3.14159  -0.00000   0.00000  -0.00000   0.00000   3.14159
    D3        3.14159   0.00000   0.00000   0.00000   0.00000   3.14159
    D4        0.00000   0.00000   0.00000   0.00000   0.00000   0.00000
    D5        0.00000   0.00000   0.00000   0.00000   0.00000   0.00000
    D6        3.14159  -0.00000   0.00000  -0.00000   0.00000   3.14159
    D7        0.00000   0.00000   0.00000   0.00000   0.00000   0.00000
    D8        3.14159  -0.00000   0.00000  -0.00000   0.00000   3.14159
    D9        3.14159   0.00000   0.00000   0.00000   0.00000   3.14159
   D10        0.00000   0.00000   0.00000   0.00000   0.00000   0.00000
   D11        0.00000  -0.00000   0.00000   0.00000   0.00000   0.00000
   D12        3.14159  -0.00000   0.00000  -0.00000   0.00000   3.14159
   D13        3.14159   0.00000   0.00000   0.00000   0.00000   3.14159
   D14        0.00000  -0.00000   0.00000   0.00000   0.00000   0.00000
   D15        0.00000   0.00000   0.00000  -0.00000   0.00000   0.00000
   D16        3.14159  -0.00000   0.00000  -0.00000   0.00000   3.14159
   D17        3.14159   0.00000   0.00000   0.00000   0.00000   3.14159
   D18        0.00000  -0.00000   0.00000  -0.00000   0.00000   0.00000
   D19        0.00000  -0.00000   0.00000   0.00000   0.00000   0.00000
   D20        3.14159   0.00000   0.00000   0.00000   0.00000   3.14159
         Item               Value     Threshold  Converged?
 Maximum Force            0.050247     0.000450     NO 
 RMS     Force            0.014862     0.000300     NO 
 Maximum Displacement     0.184106     0.001800     NO 
 RMS     Displacement     0.039969     0.001200     NO 
 Predicted change in Energy=-1.219403D-02
 GradGradGradGradGradGradGradGradGradGradGradGradGradGradGradGradGradGrad

                          Input orientation:                          
 ---------------------------------------------------------------------
 Center     Atomic      Atomic             Coordinates (Angstroms)
 Number     Number       Type             X           Y           Z
 ---------------------------------------------------------------------
      1          6           0       -3.146636    0.257878    0.000000
      2          6           0       -1.962358    1.019315    0.000000
      3          6           0       -0.723650    0.344185    0.000000
      4          6           0       -0.695588   -1.067217    0.000000
      5          6           0       -1.906333   -1.779433    0.000000
      6          6           0       -3.135666   -1.134443    0.000000
      7         17           0       -4.650714    1.096547    0.000000
      8         17           0        0.830529   -1.849869    0.000000
      9         17           0       -1.869430   -3.499438    0.000000
     10          1           0       -1.984602    2.174310    0.000000
     11          1           0        0.244577    0.930685    0.000000
 ---------------------------------------------------------------------
                    Distance matrix (angstroms):
                    1          2          3          4          5
     1  C    0.000000
     2  C    1.407942   0.000000
     3  C    2.424522   1.410743   0.000000
     4  C    2.786308   2.440968   1.411681   0.000000
     5  C    2.385160   2.799309   2.430739   1.404690   0.000000
     6  C    1.392364   2.452616   2.829162   2.441004   1.388262
     7  Cl   1.722097   2.689466   3.998484   4.508314   3.975285
     8  Cl   4.501160   4.004053   2.688745   1.715103   2.737768
     9  Cl   3.968460   4.519709   4.010767   2.700668   1.720400
    10  H    2.241213   1.155209   2.222467   3.488417   3.954518
    11  H    3.457310   2.208714   1.132010   2.208058   3.459935
                    6          7          8          9         10
     6  C    0.000000
     7  Cl   2.696793   0.000000
     8  Cl   4.030203   6.222973   0.000000
     9  Cl   2.682639   5.372022   3.163994   0.000000
    10  H    3.503255   2.875713   4.911109   5.674917   0.000000
    11  H    3.961161   4.898100   2.841623   4.908667   2.552615
                   11
    11  H    0.000000
 Stoichiometry    C6H2Cl3(1-)
 Framework group  CS[SG(C6H2Cl3)]
 Deg. of freedom    19
 Full point group                 CS      NOp   2
 Largest Abelian subgroup         CS      NOp   2
 Largest concise Abelian subgroup C1      NOp   1
                         Standard orientation:                         
 ---------------------------------------------------------------------
 Center     Atomic      Atomic             Coordinates (Angstroms)
 Number     Number       Type             X           Y           Z
 ---------------------------------------------------------------------
      1          6           0       -1.288247    1.164188    0.000000
      2          6           0       -0.122350    1.953483    0.000000
      3          6           0        1.132012    1.307905    0.000000
      4          6           0        1.193522   -0.102435    0.000000
      5          6           0       -0.000000   -0.843151    0.000000
      6          6           0       -1.244276   -0.227482    0.000000
      7         17           0       -2.811782    1.966969    0.000000
      8         17           0        2.737762   -0.848693    0.000000
      9         17           0        0.077663   -2.561798    0.000000
     10          1           0       -0.171967    3.107626    0.000000
     11          1           0        2.086065    1.917190    0.000000
 ---------------------------------------------------------------------
 Rotational constants (GHZ):           1.8784885           0.6014027           0.4555555
 Standard basis: VSTO-6G (5D, 7F)
 There are    29 symmetry adapted cartesian basis functions of A'  symmetry.
 There are     9 symmetry adapted cartesian basis functions of A"  symmetry.
 There are    29 symmetry adapted basis functions of A'  symmetry.
 There are     9 symmetry adapted basis functions of A"  symmetry.
    38 basis functions,   228 primitive gaussians,    38 cartesian basis functions
    24 alpha electrons       24 beta electrons
       nuclear repulsion energy       242.9779490850 Hartrees.
 Integral buffers will be    131072 words long.
 Regular integral format.
 Two-electron integral symmetry is turned off.
 Do NDO integrals.
 One-electron integrals computed using PRISM.
 NBasis=    38 RedAO= T EigKep=  1.00D+00  NBF=    29     9
 NBsUse=    38 1.00D-06 EigRej= -1.00D+00 NBFU=    29     9
 Initial guess from the checkpoint file:  "geometry_chks/_234ClBzAnionIntermediate.chk"
 B after Tr=    -0.000000    0.000000    0.000000
         Rot=    0.999991   -0.000000   -0.000000   -0.004351 Ang=  -0.50 deg.
 Initial guess orbital symmetries:
       Occupied  (A') (A') (A') (A') (A') (A') (A') (A') (A') (A')
[...]
            NFock=  9  Conv=0.44D-08     -V/T= 1.0002
 Calling FoFJK, ICntrl=      2127 FMM=F ISym2X=1 I1Cent= 0 IOpClX= 0 NMat=1 NMatS=1 NMatT=0.
 ***** Axes restored to original set *****
 -------------------------------------------------------------------
 Center     Atomic                   Forces (Hartrees/Bohr)
 Number     Number              X              Y              Z
 -------------------------------------------------------------------
      1        6           0.000015058    0.000023990    0.000000000
      2        6           0.000032022   -0.000032390    0.000000000
      3        6          -0.000028495   -0.000019287    0.000000000
      4        6          -0.000068452   -0.000001996   -0.000000000
      5        6           0.000136581   -0.000059979    0.000000000
      6        6          -0.000074426   -0.000047628   -0.000000000
      7       17          -0.000050712    0.000022602   -0.000000000
      8       17           0.000014915   -0.000022549   -0.000000000
      9       17          -0.000008485    0.000064787   -0.000000000
     10        1          -0.000008604    0.000060579   -0.000000000
     11        1           0.000040598    0.000011870   -0.000000000
 -------------------------------------------------------------------
 Cartesian Forces:  Max     0.000136581 RMS     0.000039858

 GradGradGradGradGradGradGradGradGradGradGradGradGradGradGradGradGradGrad
 Berny optimization.
 Using GEDIIS/GDIIS optimizer.
 FormGI is forming the generalized inverse of G from B-inverse, IUseBI=4.
 Internal  Forces:  Max     0.000067326 RMS     0.000025480
 Search for a local minimum.
 Step number  11 out of a maximum of   57
 All quantities printed in internal units (Hartrees-Bohrs-Radians)
 Mixed Optimization -- En-DIIS/RFO-DIIS
 Swapping is turned off.
 Update second derivatives using D2CorX and points    4    5    6    8    7
                                                      9   10   11
 DE= -1.28D-06 DEPred=-1.32D-06 R= 9.71D-01
 TightC=F SS=  1.41D+00  RLast= 2.27D-03 DXNew= 7.1352D-01 6.8171D-03
 Trust test= 9.71D-01 RLast= 2.27D-03 DXMaxT set to 4.24D-01
 ITU=  1  1  1 -1  1  1  0  0  0  1  0
     Eigenvalues ---    0.02011   0.02011   0.02011   0.02011   0.02011
     Eigenvalues ---    0.02011   0.02011   0.02011   0.15543   0.16002
     Eigenvalues ---    0.17960   0.22108   0.24458   0.24979   0.25004
     Eigenvalues ---    0.25569   0.28228   0.28610   0.29359   0.33406
     Eigenvalues ---    0.34958   0.42017   0.43706   0.44620   0.45193
     Eigenvalues ---    0.60040   0.77753
 En-DIIS/RFO-DIIS/Sim-DIIS IScMMF=       -3 using points:    11   10    9
 RFO step:  Lambda=-7.24298766D-08.
 DidBck=F Rises=F RFO-DIIS coefs:    0.97914    0.01383    0.00704
 Iteration  1 RMS(Cart)=  0.00007074 RMS(Int)=  0.00000000
 Iteration  2 RMS(Cart)=  0.00000000 RMS(Int)=  0.00000000
 ClnCor:  largest displacement from symmetrization is 9.27D-12 for atom     7.
 Variable       Old X    -DE/DX   Delta X   Delta X   Delta X     New X
                                 (Linear)    (Quad)   (Total)
    R1        2.64190   0.00004   0.00000   0.00005   0.00005   2.64196
    R2        2.61823   0.00006   0.00001   0.00012   0.00012   2.61836
    R3        3.26157   0.00006  -0.00000   0.00019   0.00019   3.26176
    R4        2.63820   0.00002  -0.00001  -0.00000  -0.00001   2.63819
    R5        2.07549   0.00006   0.00004   0.00010   0.00014   2.07563
    R6        2.64628   0.00001  -0.00000  -0.00002  -0.00002   2.64626
    R7        2.07332   0.00004   0.00000   0.00012   0.00012   2.07344
    R8        2.64820  -0.00006   0.00001  -0.00012  -0.00011   2.64808
    R9        3.24877   0.00002   0.00000   0.00010   0.00010   3.24887
   R10        2.62021   0.00007  -0.00000   0.00017   0.00017   2.62038
   R11        3.24871  -0.00006   0.00001  -0.00021  -0.00020   3.24851
    A1        2.14586  -0.00001  -0.00002   0.00003   0.00001   2.14587
    A2        2.05263   0.00001   0.00001   0.00002   0.00002   2.05265
    A3        2.08470  -0.00000   0.00001  -0.00004  -0.00003   2.08467
    A4        2.07055  -0.00000   0.00001  -0.00000   0.00000   2.07056
    A5        2.12686  -0.00001  -0.00000  -0.00005  -0.00005   2.12681
    A6        2.08578   0.00001  -0.00001   0.00005   0.00005   2.08582
    A7        2.08904   0.00001   0.00001  -0.00001  -0.00000   2.08904
    A8        2.09492   0.00001  -0.00001   0.00007   0.00007   2.09499
    A9        2.09922  -0.00001  -0.00000  -0.00006  -0.00006   2.09916
   A10        2.08876   0.00002  -0.00001   0.00007   0.00006   2.08881
   A11        2.05634   0.00001   0.00001   0.00003   0.00004   2.05638
   A12        2.13809  -0.00003   0.00001  -0.00011  -0.00010   2.13799
   A13        2.12220   0.00001   0.00000   0.00001   0.00002   2.12222
   A14        2.08530   0.00000  -0.00001   0.00007   0.00006   2.08536
   A15        2.07568  -0.00002   0.00001  -0.00008  -0.00008   2.07561
   A16        2.04997  -0.00002   0.00001  -0.00010  -0.00009   2.04988
    D1        0.00000   0.00000   0.00000   0.00000   0.00000   0.00000
    D2        3.14159  -0.00000   0.00000  -0.00000   0.00000   3.14159
    D3        3.14159   0.00000   0.00000   0.00000   0.00000   3.14159
    D4        0.00000  -0.00000   0.00000  -0.00000   0.00000   0.00000
    D5        0.00000   0.00000   0.00000   0.00000   0.00000   0.00000
    D6        3.14159  -0.00000   0.00000  -0.00000   0.00000   3.14159
    D7        0.00000  -0.00000   0.00000  -0.00000   0.00000   0.00000
    D8        3.14159  -0.00000   0.00000  -0.00000   0.00000   3.14159
    D9        3.14159   0.00000   0.00000   0.00000   0.00000   3.14159
   D10        0.00000   0.00000   0.00000   0.00000   0.00000   0.00000
   D11        0.00000  -0.00000   0.00000  -0.00000   0.00000   0.00000
   D12        3.14159  -0.00000   0.00000  -0.00000   0.00000   3.14159
   D13        3.14159   0.00000   0.00000   0.00000   0.00000   3.14159
   D14        0.00000   0.00000   0.00000   0.00000   0.00000   0.00000
   D15        0.00000   0.00000   0.00000   0.00000   0.00000   0.00000
   D16        3.14159  -0.00000   0.00000  -0.00000   0.00000   3.14159
   D17        3.14159   0.00000   0.00000   0.00000   0.00000   3.14159
   D18        0.00000  -0.00000   0.00000  -0.00000   0.00000   0.00000
   D19        0.00000  -0.00000   0.00000  -0.00000   0.00000   0.00000
   D20        3.14159   0.00000   0.00000   0.00000   0.00000   3.14159
         Item               Value     Threshold  Converged?
 Maximum Force            0.000067     0.000450     YES
 RMS     Force            0.000025     0.000300     YES
 Maximum Displacement     0.000226     0.001800     YES
 RMS     Displacement     0.000071     0.001200     YES
 Predicted change in Energy=-3.937245D-08
 Optimization completed.
    -- Stationary point found.
                           ----------------------------
                           !   Optimized Parameters   !
                           ! (Angstroms and Degrees)  !
 --------------------------                            --------------------------
 ! Name  Definition              Value          Derivative Info.                !
 --------------------------------------------------------------------------------
 ! R1    R(1,2)                  1.398          -DE/DX =    0.0                 !
 ! R2    R(1,6)                  1.3855         -DE/DX =    0.0001              !
 ! R3    R(1,7)                  1.726          -DE/DX =    0.0001              !
 ! R4    R(2,3)                  1.3961         -DE/DX =    0.0                 !
 ! R5    R(2,10)                 1.0983         -DE/DX =    0.0001              !
 ! R6    R(3,4)                  1.4004         -DE/DX =    0.0                 !
 ! R7    R(3,11)                 1.0972         -DE/DX =    0.0                 !
 ! R8    R(4,5)                  1.4014         -DE/DX =   -0.0001              !
 ! R9    R(4,8)                  1.7192         -DE/DX =    0.0                 !
 ! R10   R(5,6)                  1.3866         -DE/DX =    0.0001              !
 ! R11   R(5,9)                  1.7191         -DE/DX =   -0.0001              !
 ! A1    A(2,1,6)              122.9486         -DE/DX =    0.0                 !
 ! A2    A(2,1,7)              117.6069         -DE/DX =    0.0                 !
 ! A3    A(6,1,7)              119.4445         -DE/DX =    0.0                 !
 ! A4    A(1,2,3)              118.634          -DE/DX =    0.0                 !
 ! A5    A(1,2,10)             121.8599         -DE/DX =    0.0                 !
 ! A6    A(3,2,10)             119.5061         -DE/DX =    0.0                 !
 ! A7    A(2,3,4)              119.693          -DE/DX =    0.0                 !
 ! A8    A(2,3,11)             120.0303         -DE/DX =    0.0                 !
 ! A9    A(4,3,11)             120.2767         -DE/DX =    0.0                 !
 ! A10   A(3,4,5)              119.6769         -DE/DX =    0.0                 !
 ! A11   A(3,4,8)              117.8197         -DE/DX =    0.0                 !
 ! A12   A(5,4,8)              122.5034         -DE/DX =    0.0                 !
 ! A13   A(4,5,6)              121.5931         -DE/DX =    0.0                 !
 ! A14   A(4,5,9)              119.4789         -DE/DX =    0.0                 !
 ! A15   A(6,5,9)              118.9279         -DE/DX =    0.0                 !
 ! A16   A(1,6,5)              117.4544         -DE/DX =    0.0                 !
 ! D1    D(6,1,2,3)              0.0            -DE/DX =    0.0                 !
 ! D2    D(6,1,2,10)           180.0            -DE/DX =    0.0                 !
 ! D3    D(7,1,2,3)            180.0            -DE/DX =    0.0                 !
 ! D4    D(7,1,2,10)             0.0            -DE/DX =    0.0                 !
 ! D5    D(2,1,6,5)              0.0            -DE/DX =    0.0                 !
 ! D6    D(7,1,6,5)            180.0            -DE/DX =    0.0                 !
 ! D7    D(1,2,3,4)              0.0            -DE/DX =    0.0                 !
 ! D8    D(1,2,3,11)           180.0            -DE/DX =    0.0                 !
 ! D9    D(10,2,3,4)           180.0            -DE/DX =    0.0                 !
 ! D10   D(10,2,3,11)            0.0            -DE/DX =    0.0                 !
 ! D11   D(2,3,4,5)              0.0            -DE/DX =    0.0                 !
 ! D12   D(2,3,4,8)            180.0            -DE/DX =    0.0                 !
 ! D13   D(11,3,4,5)           180.0            -DE/DX =    0.0                 !
 ! D14   D(11,3,4,8)             0.0            -DE/DX =    0.0                 !
 ! D15   D(3,4,5,6)              0.0            -DE/DX =    0.0                 !
 ! D16   D(3,4,5,9)            180.0            -DE/DX =    0.0                 !
 ! D17   D(8,4,5,6)            180.0            -DE/DX =    0.0                 !
 ! D18   D(8,4,5,9)              0.0            -DE/DX =    0.0                 !
 ! D19   D(4,5,6,1)              0.0            -DE/DX =    0.0                 !
 ! D20   D(9,5,6,1)            180.0            -DE/DX =    0.0                 !
 --------------------------------------------------------------------------------
 GradGradGradGradGradGradGradGradGradGradGradGradGradGradGradGradGradGrad

                          Input orientation:                          
 ---------------------------------------------------------------------
 Center     Atomic      Atomic             Coordinates (Angstroms)
 Number     Number       Type             X           Y           Z
 ---------------------------------------------------------------------
      1          6           0       -3.131662    0.257650    0.000000
      2          6           0       -1.956275    1.014597    0.000000
      3          6           0       -0.730364    0.346637    0.000000
      4          6           0       -0.703274   -1.053451    0.000000
      5          6           0       -1.907174   -1.770702    0.000000
      6          6           0       -3.135704   -1.127854    0.000000
      7         17           0       -4.632194    1.110476    0.000000
      8         17           0        0.832436   -1.826210    0.000000
      9         17           0       -1.867979   -3.489398    0.000000
     10          1           0       -1.973940    2.112754    0.000000
     11          1           0        0.206260    0.918022    0.000000
 ---------------------------------------------------------------------
                    Distance matrix (angstroms):
                    1          2          3          4          5
     1  C    0.000000
     2  C    1.398035   0.000000
     3  C    2.402946   1.396076   0.000000
     4  C    2.759720   2.418023   1.400351   0.000000
     5  C    2.369301   2.785732   2.422397   1.401365   0.000000
     6  C    1.385510   2.445639   2.821309   2.433568   1.386557
     7  Cl   1.725951   2.677636   3.975893   4.485420   3.965718
     8  Cl   4.478454   3.980841   2.676492   1.719174   2.740172
     9  Cl   3.954399   4.504861   4.001167   2.700070   1.719143
    10  H    2.186717   1.098299   2.160012   3.411664   3.884030
    11  H    3.402618   2.164690   1.097153   2.171165   3.419918
                    6          7          8          9         10
     6  C    0.000000
     7  Cl   2.692508   0.000000
     8  Cl   4.029124   6.203733   0.000000
     9  Cl   2.680302   5.366537   3.171504   0.000000
    10  H    3.442563   2.840928   4.836443   5.603155   0.000000
    11  H    3.918460   4.842279   2.814765   4.871121   2.486093
                   11
    11  H    0.000000
 Stoichiometry    C6H2Cl3(1-)
 Framework group  CS[SG(C6H2Cl3)]
 Deg. of freedom    19
 Full point group                 CS      NOp   2
 Largest Abelian subgroup         CS      NOp   2
 Largest concise Abelian subgroup C1      NOp   1
                         Standard orientation:                         
 ---------------------------------------------------------------------
 Center     Atomic      Atomic             Coordinates (Angstroms)
 Number     Number       Type             X           Y           Z
 ---------------------------------------------------------------------
      1          6           0       -1.284190    1.146479    0.000000
      2          6           0       -0.131803    1.938000    0.000000
      3          6           0        1.113406    1.306745    0.000000
      4          6           0        1.182067   -0.091922    0.000000
      5          6           0        0.000000   -0.844612    0.000000
      6          6           0       -1.247081   -0.238534    0.000000
      7         17           0       -2.809388    1.954363    0.000000
      8         17           0        2.740050   -0.818729    0.000000
      9         17           0        0.090223   -2.561386    0.000000
     10          1           0       -0.182075    3.035149    0.000000
     11          1           0        2.032647    1.905695    0.000000
 ---------------------------------------------------------------------
 Rotational constants (GHZ):           1.8822312           0.6055096           0.4581302

 **********************************************************************

            Population analysis using the SCF Density.

 **********************************************************************

 Orbital symmetries:
       Occupied  (A') (A') (A') (A') (A') (A') (A') (A') (A') (A')
                 (A') (A') (A") (A') (A") (A') (A") (A') (A') (A")
                 (A') (A") (A") (A')
       Virtual   (A") (A") (A') (A') (A') (A") (A') (A') (A') (A')
                 (A') (A') (A') (A')
 The electronic state is 1-A'.
 Alpha  occ. eigenvalues --   -1.28539  -1.23051  -1.21289  -1.19151  -0.97273
 Alpha  occ. eigenvalues --   -0.95619  -0.69222  -0.67821  -0.50675  -0.45352
 Alpha  occ. eigenvalues --   -0.44226  -0.39771  -0.38755  -0.35248  -0.33724
 Alpha  occ. eigenvalues --   -0.32106  -0.31614  -0.29897  -0.28050  -0.27457
 Alpha  occ. eigenvalues --   -0.26391  -0.18382  -0.17079  -0.12341
 Alpha virt. eigenvalues --    0.16558   0.18702   0.19289   0.21332   0.22785
 Alpha virt. eigenvalues --    0.27967   0.29337   0.29920   0.32575   0.33116
 Alpha virt. eigenvalues --    0.34313   0.35361   0.38121   0.39727
          Condensed to atoms (all electrons):
               1          2          3          4          5          6
     1  C    4.054586   0.000000   0.000000   0.000000   0.000000   0.000000
     2  C    0.000000   4.150094   0.000000   0.000000   0.000000   0.000000
     3  C    0.000000   0.000000   4.204797   0.000000   0.000000   0.000000
     4  C    0.000000   0.000000   0.000000   4.069001   0.000000   0.000000
     5  C    0.000000   0.000000   0.000000   0.000000   4.046361   0.000000
     6  C    0.000000   0.000000   0.000000   0.000000   0.000000   4.348638
     7  Cl   0.000000   0.000000   0.000000   0.000000   0.000000   0.000000
     8  Cl   0.000000   0.000000   0.000000   0.000000   0.000000   0.000000
     9  Cl   0.000000   0.000000   0.000000   0.000000   0.000000   0.000000
    10  H    0.000000   0.000000   0.000000   0.000000   0.000000   0.000000
    11  H    0.000000   0.000000   0.000000   0.000000   0.000000   0.000000
               7          8          9         10         11
     1  C    0.000000   0.000000   0.000000   0.000000   0.000000
     2  C    0.000000   0.000000   0.000000   0.000000   0.000000
     3  C    0.000000   0.000000   0.000000   0.000000   0.000000
     4  C    0.000000   0.000000   0.000000   0.000000   0.000000
     5  C    0.000000   0.000000   0.000000   0.000000   0.000000
     6  C    0.000000   0.000000   0.000000   0.000000   0.000000
     7  Cl   7.128199   0.000000   0.000000   0.000000   0.000000
     8  Cl   0.000000   7.105941   0.000000   0.000000   0.000000
     9  Cl   0.000000   0.000000   7.102446   0.000000   0.000000
    10  H    0.000000   0.000000   0.000000   0.897977   0.000000
    11  H    0.000000   0.000000   0.000000   0.000000   0.891961
 Mulliken charges:
               1
     1  C   -0.054586
     2  C   -0.150094
     3  C   -0.204797
     4  C   -0.069001
     5  C   -0.046361
     6  C   -0.348638
     7  Cl  -0.128199
     8  Cl  -0.105941
     9  Cl  -0.102446
    10  H    0.102023
    11  H    0.108039
 Sum of Mulliken charges =  -1.00000
 Mulliken charges with hydrogens summed into heavy atoms:
               1
     1  C   -0.054586
     2  C   -0.048071
     3  C   -0.096758
     4  C   -0.069001
     5  C   -0.046361
     6  C   -0.348638
     7  Cl  -0.128199
     8  Cl  -0.105941
     9  Cl  -0.102446
 Charge=             -1.0000 electrons
 Dipole moment (field-independent basis, Debye):
    X=              3.9082    Y=              1.6160    Z=              0.0000  Tot=              4.2291
 N-N= 2.436271360554D+02 E-N=-3.464724699478D+02  KE=-1.140724704992D+02
 Symmetry A'   KE=-8.801879370077D+01
 Symmetry A"   KE=-2.605367679845D+01
 1\1\GINC-SH03-01N69\FOpt\RAM1\ZDO\C6H2Cl3(1-)\JLAPIER\08-Dec-2025\0\\#
  opt am1 SCF(maxcyc=10000)\\Anion Intermediate (removed 1) _234\\-1,1\
 C,-3.1316621315,0.2576500732,0.\C,-1.9562751523,1.0145968613,0.\C,-0.7
 30364147,0.3466371807,0.\C,-0.70327381,-1.0534513146,0.\C,-1.907173704
 3,-1.770702329,0.\C,-3.1357043666,-1.1278540441,0.\Cl,-4.6321935727,1.
 1104755771,0.\Cl,0.8324361997,-1.8262095286,0.\Cl,-1.8679787193,-3.489
 3983492,0.\H,-1.9739402091,2.1127542635,0.\H,0.2062596131,0.9180216096
 ,0.\\Version=ES64L-G16RevB.01\State=1-A'\HF=0.0243377\RMSD=4.383e-09\R
 MSF=3.986e-05\Dipole=1.5557923,0.5898415,0.\PG=CS [SG(C6H2Cl3)]\\@


 ONE OF THE BENEFITS OF A COLLEGE EDUCATION
 IS TO SHOW THE BOY ITS LITTLE AVAIL 
                                    EMERSON IN 'CULTURE'
 Job cpu time:       0 days  0 hours  0 minutes  3.9 seconds.
 Elapsed time:       0 days  0 hours  0 minutes 23.5 seconds.
 File lengths (MBytes):  RWF=     10 Int=      0 D2E=      0 Chk=      2 Scr=      1
 Normal termination of Gaussian 16 at Mon Dec  8 17:08:55 2025.
