 Entering Gaussian System, Link 0=g16
 Initial command:
 /share/software/user/restricted/gaussian/g16.B01/l1.exe "/home/users/jlapier/Chloroaromatics/Gau-25731.inp" -scrdir="/home/users/jlapier/Chloroaromatics/"
 Entering Link 1 = /share/software/user/restricted/gaussian/g16.B01/l1.exe PID=     25732.
  
 Copyright (c) 1988-2017, Gaussian, Inc.  All Rights Reserved.
  
 This is part of the Gaussian(R) 16 program.  It is based on
 the Gaussian(R) 09 system (copyright 2009, Gaussian, Inc.),
 the Gaussian(R) 03 system (copyright 2003, Gaussian, Inc.),
 the Gaussian(R) 98 system (copyright 1998, Gaussian, Inc.),
 the Gaussian(R) 94 system (copyright 1995, Gaussian, Inc.),
 the Gaussian 92(TM) system (copyright 1992, Gaussian, Inc.),
 the Gaussian 90(TM) system (copyright 1990, Gaussian, Inc.),
 the Gaussian 88(TM) system (copyright 1988, Gaussian, Inc.),
 the Gaussian 86(TM) system (copyright 1986, Carnegie Mellon
 University), and the Gaussian 82(TM) system (copyright 1983,
 Carnegie Mellon University). Gaussian is a federally registered
 trademark of Gaussian, Inc.
  
 This software contains proprietary and confidential information,
 including trade secrets, belonging to Gaussian, Inc.
  
 This software is provided under written license and may be
 used, copied, transmitted, or stored only in accord with that
 written license.
  
 The following legend is applicable only to US Government
 contracts under FAR:
  
                    RESTRICTED RIGHTS LEGEND
  
 Use, reproduction and disclosure by the US Government is
 subject to restrictions as set forth in subparagraphs (a)
 and (c) of the Commercial Computer Software - Restricted
 Rights clause in FAR 52.227-19.
  
 Gaussian, Inc.
 340 Quinnipiac St., Bldg. 40, Wallingford CT 06492
  
  
 ---------------------------------------------------------------
 Warning -- This program may not be used in any manner that
 competes with the business of Gaussian, Inc. or will provide
 assistance to any competitor of Gaussian, Inc.  The licensee
 of this program is prohibited from giving any competitor of
 Gaussian, Inc. access to this program.  By using this program,
 the user acknowledges that Gaussian, Inc. is engaged in the
 business of creating and licensing software in the field of
 computational chemistry and represents and warrants to the
 licensee that it is not a competitor of Gaussian, Inc. and that
 it will not use this program in any manner prohibited above.
 ---------------------------------------------------------------
  

 Cite this work as:
 Gaussian 16, Revision B.01,
 M. J. Frisch, G. W. Trucks, H. B. Schlegel, G. E. Scuseria, 
 M. A. Robb, J. R. Cheeseman, G. Scalmani, V. Barone, 
 G. A. Petersson, H. Nakatsuji, X. Li, M. Caricato, A. V. Marenich, 
 J. Bloino, B. G. Janesko, R. Gomperts, B. Mennucci, H. P. Hratchian, 
 J. V. Ortiz, A. F. Izmaylov, J. L. Sonnenberg, D. Williams-Young, 
 F. Ding, F. Lipparini, F. Egidi, J. Goings, B. Peng, A. Petrone, 
 T. Henderson, D. Ranasinghe, V. G. Zakrzewski, J. Gao, N. Rega, 
 G. Zheng, W. Liang, M. Hada, M. Ehara, K. Toyota, R. Fukuda, 
 J. Hasegawa, M. Ishida, T. Nakajima, Y. Honda, O. Kitao, H. Nakai, 
 T. Vreven, K. Throssell, J. A. Montgomery, Jr., J. E. Peralta, 
 F. Ogliaro, M. J. Bearpark, J. J. Heyd, E. N. Brothers, K. N. Kudin, 
 V. N. Staroverov, T. A. Keith, R. Kobayashi, J. Normand, 
 K. Raghavachari, A. P. Rendell, J. C. Burant, S. S. Iyengar, 
 J. Tomasi, M. Cossi, J. M. Millam, M. Klene, C. Adamo, R. Cammi, 
 J. W. Ochterski, R. L. Martin, K. Morokuma, O. Farkas, 
 J. B. Foresman, and D. J. Fox, Gaussian, Inc., Wallingford CT, 2016.
 
 ******************************************
 Gaussian 16:  ES64L-G16RevB.01 20-Dec-2017
                 9-Dec-2025 
 ******************************************
 %mem=2GB
 %nprocshare=1
 Will use up to    1 processors via shared memory.
 %chk=geometry_chks/_23456ClBzNeutralRadical.chk
 -----------------
 # opt am1 SCF=XQC
 -----------------
 1/18=20,19=15,26=1,38=1/1,3;
 2/9=110,12=2,17=6,18=5,40=1/2;
 3/5=2,25=1,41=700000,71=1/1,2,3;
 4/35=1/1;
 5/5=2,8=3,13=1,35=1,38=5/2,8;
 6/7=2,8=2,9=2,10=2,28=1/1;
 7//1,2,3,16;
 1/18=20,19=15,26=1/3(2);
 2/9=110/2;
 99//99;
 2/9=110/2;
 3/5=2,25=1,41=700000,71=1,135=20/1,2,3;
 4/5=5,16=3,35=1/1;
 5/5=2,8=3,13=1,35=1,38=5/2,8;
 7//1,2,3,16;
 1/18=20,19=15,26=1/3(-5);
 2/9=110/2;
 6/7=2,8=2,9=2,10=2,19=2,28=1/1;
 99/9=1/99;
 ----------------------------------
 Neutral Radical (removed 1) _23456
 ----------------------------------
 Symbolic Z-matrix:
 Charge =  0 Multiplicity = 2
 C                    -3.20928   0.19943   0. 
 C                    -2.0115    0.93555   0. 
 C                    -0.77511   0.2663    0. 
 C                    -0.7365   -1.13907   0. 
 C                    -1.93429  -1.87519   0. 
 C                    -3.17067  -1.20594   0. 
 Cl                   -4.76193   1.03987   0. 
 Cl                   -2.05998   2.7004    0. 
 Cl                    0.72905   1.19071   0. 
 Cl                    0.81614  -1.97951   0. 
 Cl                   -1.8858   -3.64003   0. 
 

 GradGradGradGradGradGradGradGradGradGradGradGradGradGradGradGradGradGrad
 Berny optimization.
 Initialization pass.
                           ----------------------------
                           !    Initial Parameters    !
                           ! (Angstroms and Degrees)  !
 --------------------------                            --------------------------
 ! Name  Definition              Value          Derivative Info.                !
 --------------------------------------------------------------------------------
 ! R1    R(1,2)                  1.4059         estimate D2E/DX2                !
 ! R2    R(1,6)                  1.4059         estimate D2E/DX2                !
 ! R3    R(1,7)                  1.7655         estimate D2E/DX2                !
 ! R4    R(2,3)                  1.4059         estimate D2E/DX2                !
 ! R5    R(2,8)                  1.7655         estimate D2E/DX2                !
 ! R6    R(3,4)                  1.4059         estimate D2E/DX2                !
 ! R7    R(3,9)                  1.7655         estimate D2E/DX2                !
 ! R8    R(4,5)                  1.4059         estimate D2E/DX2                !
 ! R9    R(4,10)                 1.7655         estimate D2E/DX2                !
 ! R10   R(5,6)                  1.4059         estimate D2E/DX2                !
 ! R11   R(5,11)                 1.7655         estimate D2E/DX2                !
 ! A1    A(2,1,6)              119.9999         estimate D2E/DX2                !
 ! A2    A(2,1,7)              119.9999         estimate D2E/DX2                !
 ! A3    A(6,1,7)              120.0001         estimate D2E/DX2                !
 ! A4    A(1,2,3)              120.0            estimate D2E/DX2                !
 ! A5    A(1,2,8)              120.0001         estimate D2E/DX2                !
 ! A6    A(3,2,8)              119.9999         estimate D2E/DX2                !
 ! A7    A(2,3,4)              120.0001         estimate D2E/DX2                !
 ! A8    A(2,3,9)              120.0            estimate D2E/DX2                !
 ! A9    A(4,3,9)              119.9999         estimate D2E/DX2                !
 ! A10   A(3,4,5)              119.9997         estimate D2E/DX2                !
 ! A11   A(3,4,10)             120.0003         estimate D2E/DX2                !
 ! A12   A(5,4,10)             120.0            estimate D2E/DX2                !
 ! A13   A(4,5,6)              120.0            estimate D2E/DX2                !
 ! A14   A(4,5,11)             119.9996         estimate D2E/DX2                !
 ! A15   A(6,5,11)             120.0004         estimate D2E/DX2                !
 ! A16   A(1,6,5)              120.0003         estimate D2E/DX2                !
 ! D1    D(6,1,2,3)              0.0            estimate D2E/DX2                !
 ! D2    D(6,1,2,8)            180.0            estimate D2E/DX2                !
 ! D3    D(7,1,2,3)            180.0            estimate D2E/DX2                !
 ! D4    D(7,1,2,8)              0.0            estimate D2E/DX2                !
 ! D5    D(2,1,6,5)              0.0            estimate D2E/DX2                !
 ! D6    D(7,1,6,5)            180.0            estimate D2E/DX2                !
 ! D7    D(1,2,3,4)              0.0            estimate D2E/DX2                !
 ! D8    D(1,2,3,9)            180.0            estimate D2E/DX2                !
 ! D9    D(8,2,3,4)            180.0            estimate D2E/DX2                !
 ! D10   D(8,2,3,9)              0.0            estimate D2E/DX2                !
 ! D11   D(2,3,4,5)              0.0            estimate D2E/DX2                !
 ! D12   D(2,3,4,10)           180.0            estimate D2E/DX2                !
 ! D13   D(9,3,4,5)            180.0            estimate D2E/DX2                !
 ! D14   D(9,3,4,10)             0.0            estimate D2E/DX2                !
 ! D15   D(3,4,5,6)              0.0            estimate D2E/DX2                !
 ! D16   D(3,4,5,11)           180.0            estimate D2E/DX2                !
 ! D17   D(10,4,5,6)           180.0            estimate D2E/DX2                !
 ! D18   D(10,4,5,11)            0.0            estimate D2E/DX2                !
 ! D19   D(4,5,6,1)              0.0            estimate D2E/DX2                !
 ! D20   D(11,5,6,1)           180.0            estimate D2E/DX2                !
 --------------------------------------------------------------------------------
 Trust Radius=3.00D-01 FncErr=1.00D-07 GrdErr=1.00D-07 EigMax=2.50D+02 EigMin=1.00D-04
 Number of steps in this run=     57 maximum allowed number of steps=    100.
 GradGradGradGradGradGradGradGradGradGradGradGradGradGradGradGradGradGrad

                          Input orientation:                          
 ---------------------------------------------------------------------
 Center     Atomic      Atomic             Coordinates (Angstroms)
 Number     Number       Type             X           Y           Z
 ---------------------------------------------------------------------
      1          6           0       -3.209280    0.199430    0.000000
      2          6           0       -2.011500    0.935550    0.000000
      3          6           0       -0.775110    0.266300    0.000000
      4          6           0       -0.736500   -1.139070    0.000000
      5          6           0       -1.934290   -1.875190    0.000000
      6          6           0       -3.170670   -1.205940    0.000000
      7         17           0       -4.761930    1.039870    0.000000
      8         17           0       -2.059980    2.700400    0.000000
      9         17           0        0.729050    1.190710    0.000000
     10         17           0        0.816140   -1.979510    0.000000
     11         17           0       -1.885800   -3.640030    0.000000
 ---------------------------------------------------------------------
                    Distance matrix (angstroms):
                    1          2          3          4          5
     1  C    0.000000
     2  C    1.405898   0.000000
     3  C    2.435088   1.405900   0.000000
     4  C    2.811801   2.435092   1.405900   0.000000
     5  C    2.435087   2.811800   2.435093   1.405907   0.000000
     6  C    1.405900   2.435088   2.811796   2.435088   1.405892
     7  Cl   1.765520   2.752408   4.061175   4.577321   4.061173
     8  Cl   2.752406   1.765516   2.752405   4.061173   4.577316
     9  Cl   4.061167   2.752403   1.765512   2.752401   4.061173
    10  Cl   4.577312   4.061173   2.752406   1.765511   2.752408
    11  Cl   4.061164   4.577306   4.061163   2.752397   1.765506
                    6          7          8          9         10
     6  C    0.000000
     7  Cl   2.752412   0.000000
     8  Cl   4.061173   3.171418   0.000000
     9  Cl   4.577308   5.493051   3.171412   0.000000
    10  Cl   4.061165   6.342832   5.493052   3.171416   0.000000
    11  Cl   2.752396   5.493049   6.342822   5.493040   3.171404
                   11
    11  Cl   0.000000
 Stoichiometry    C6Cl5(2)
 Framework group  CS[SG(C6Cl5)]
 Deg. of freedom    19
 Full point group                 CS      NOp   2
 Largest Abelian subgroup         CS      NOp   2
 Largest concise Abelian subgroup C1      NOp   1
                         Standard orientation:                         
 ---------------------------------------------------------------------
 Center     Atomic      Atomic             Coordinates (Angstroms)
 Number     Number       Type             X           Y           Z
 ---------------------------------------------------------------------
      1          6           0       -0.385875    1.628683    0.000000
      2          6           0        0.831669    0.925735    0.000000
      3          6           0        0.831669   -0.480166    0.000000
      4          6           0       -0.385875   -1.183118    0.000000
      5          6           0       -1.603424   -0.480161    0.000000
      6          6           0       -1.603419    0.925731    0.000000
      7         17           0       -0.385875    3.394203    0.000000
      8         17           0        2.360652    1.808490    0.000000
      9         17           0        2.360647   -1.362922    0.000000
     10         17           0       -0.385880   -2.948629    0.000000
     11         17           0       -3.132394   -1.362920    0.000000
 ---------------------------------------------------------------------
 Rotational constants (GHZ):           0.6973111           0.4487103           0.2730234
 Standard basis: VSTO-6G (5D, 7F)
 There are    33 symmetry adapted cartesian basis functions of A'  symmetry.
 There are    11 symmetry adapted cartesian basis functions of A"  symmetry.
 There are    33 symmetry adapted basis functions of A'  symmetry.
 There are    11 symmetry adapted basis functions of A"  symmetry.
    44 basis functions,   264 primitive gaussians,    44 cartesian basis functions
    30 alpha electrons       29 beta electrons
       nuclear repulsion energy       349.2652422331 Hartrees.
 Integral buffers will be    131072 words long.
 Regular integral format.
 Two-electron integral symmetry is turned off.
 Do NDO integrals.
 One-electron integrals computed using PRISM.
 NBasis=    44 RedAO= T EigKep=  1.00D+00  NBF=    33    11
 NBsUse=    44 1.00D-06 EigRej= -1.00D+00 NBFU=    33    11
 Simple Huckel Guess.
 Initial guess orbital symmetries:
 Alpha Orbitals:
       Occupied  (A') (A') (A') (A') (A') (A') (A') (A') (A') (A')
                 (A') (A") (A') (A') (A') (A") (A') (A") (A') (A")
                 (A") (A') (A') (A') (A") (A') (A') (A") (A") (A')
       Virtual   (A") (A") (A") (A') (A') (A') (A') (A') (A') (A')
                 (A') (A') (A') (A')
 Beta  Orbitals:
       Occupied  (A') (A') (A') (A') (A') (A') (A') (A') (A') (A')
                 (A') (A") (A') (A') (A') (A") (A') (A") (A') (A")
                 (A") (A') (A') (A') (A") (A') (A') (A") (A")
       Virtual   (A') (A") (A") (A") (A') (A') (A') (A') (A') (A')
                 (A') (A') (A') (A') (A')
 The electronic state of the initial guess is 2-A'.
 Initial guess <Sx>= 0.0000 <Sy>= 0.0000 <Sz>= 0.5000 <S**2>= 0.7500 S= 0.5000
 Keep J ints in memory in canonical form, NReq=865421.
 Overlap will be assumed to be unity.
 Requested convergence on RMS density matrix=1.00D-08 within  32 cycles.
 Requested convergence on MAX density matrix=1.00D-06.
 Requested convergence on             energy=1.00D-06.
 No special actions if energy rises.
 Fock symm off for IB=2 I1=    1 I=   34 J=   28 Cut=1.00D-07 Err=4.16D-03
 Fock matrix is not symmetric: symmetry in diagonalization turned off.
 Rare condition: small coef for last iteration:  0.000D+00
 Rare condition: small coef for last iteration:  0.000D+00
 Rare condition: small coef for last iteration:  0.000D+00
 Rare condition: small coef for last iteration:  0.000D+00
 Rare condition: small coef for last iteration:  0.000D+00
 Rare condition: small coef for last iteration:  0.000D+00
 Rare condition: small coef for last iteration:  0.000D+00
 Rare condition: small coef for last iteration:  0.000D+00
 Rare condition: small coef for last iteration:  0.000D+00
 Rare condition: small coef for last iteration:  0.000D+00
 Rare condition: small coef for last iteration:  0.000D+00
 Rare condition: small coef for last iteration:  0.000D+00
 >>>>>>>>>> Convergence criterion not met.
 SCF Done:  E(UAM1) =  0.109271984685     A.U. after   33 cycles
            NFock= 32  Conv=0.86D-03     -V/T= 1.0007
 <Sx>= 0.0000 <Sy>= 0.0000 <Sz>= 0.5000 <S**2>= 0.9301 S= 0.5863
 <L.S>=  0.00000000000    
 Annihilation of the first spin contaminant:
 S**2 before annihilation     0.9301,   after     0.7711
 Keep J ints in memory in canonical form, NReq=865821.
 LinEq1:  Iter=  0 NonCon=     1 RMS=4.53D-04 Max=5.92D-03 NDo=     1
 AX will form     1 AO Fock derivatives at one time.
 LinEq1:  Iter=  1 NonCon=     1 RMS=2.18D-05 Max=2.05D-04 NDo=     1
 LinEq1:  Iter=  2 NonCon=     1 RMS=5.46D-06 Max=4.81D-05 NDo=     1
 LinEq1:  Iter=  3 NonCon=     1 RMS=1.24D-06 Max=9.25D-06 NDo=     1
 LinEq1:  Iter=  4 NonCon=     1 RMS=2.44D-07 Max=1.73D-06 NDo=     1
 LinEq1:  Iter=  5 NonCon=     1 RMS=5.51D-08 Max=4.55D-07 NDo=     1
 LinEq1:  Iter=  6 NonCon=     1 RMS=1.06D-08 Max=8.67D-08 NDo=     1
 LinEq1:  Iter=  7 NonCon=     0 RMS=1.98D-09 Max=1.73D-08 NDo=     1
 Linear equations converged to 2.924D-09 2.924D-08 after     7 iterations.
 LinEq1:  Iter=  0 NonCon=     1 RMS=7.51D-04 Max=1.32D-02 NDo=     1
 LinEq1:  Iter=  1 NonCon=     1 RMS=1.33D-04 Max=1.23D-03 NDo=     1
 LinEq1:  Iter=  2 NonCon=     1 RMS=3.69D-05 Max=4.03D-04 NDo=     1
 LinEq1:  Iter=  3 NonCon=     1 RMS=8.01D-06 Max=1.08D-04 NDo=     1
 LinEq1:  Iter=  4 NonCon=     1 RMS=1.25D-06 Max=2.00D-05 NDo=     1
 LinEq1:  Iter=  5 NonCon=     1 RMS=3.07D-07 Max=4.82D-06 NDo=     1
 LinEq1:  Iter=  6 NonCon=     1 RMS=5.90D-08 Max=6.41D-07 NDo=     1
 LinEq1:  Iter=  7 NonCon=     1 RMS=8.23D-09 Max=5.37D-08 NDo=     1
 LinEq1:  Iter=  8 NonCon=     0 RMS=1.11D-09 Max=6.94D-09 NDo=     1
 Linear equations converged to 2.924D-09 2.924D-08 after     8 iterations.
 LinEq1:  Iter=  0 NonCon=     1 RMS=3.57D-04 Max=6.38D-03 NDo=     1
 LinEq1:  Iter=  1 NonCon=     1 RMS=8.58D-05 Max=8.28D-04 NDo=     1
 LinEq1:  Iter=  2 NonCon=     1 RMS=2.39D-05 Max=3.16D-04 NDo=     1
 LinEq1:  Iter=  3 NonCon=     1 RMS=4.50D-06 Max=5.78D-05 NDo=     1
 LinEq1:  Iter=  4 NonCon=     1 RMS=7.20D-07 Max=1.12D-05 NDo=     1
 LinEq1:  Iter=  5 NonCon=     1 RMS=1.46D-07 Max=2.42D-06 NDo=     1
 LinEq1:  Iter=  6 NonCon=     1 RMS=2.91D-08 Max=3.52D-07 NDo=     1
 LinEq1:  Iter=  7 NonCon=     1 RMS=3.79D-09 Max=2.68D-08 NDo=     1
 LinEq1:  Iter=  8 NonCon=     0 RMS=5.99D-10 Max=3.77D-09 NDo=     1
 Linear equations converged to 2.924D-09 2.924D-08 after     8 iterations.
     Accept linear search using points  1 and  2.
 LinEq1:  Iter=  0 NonCon=     1 RMS=2.69D-05 Max=4.01D-04 NDo=     1
 LinEq1:  Iter=  1 NonCon=     1 RMS=7.46D-06 Max=6.74D-05 NDo=     1
 LinEq1:  Iter=  2 NonCon=     1 RMS=1.37D-06 Max=1.41D-05 NDo=     1
 LinEq1:  Iter=  3 NonCon=     1 RMS=3.42D-07 Max=4.02D-06 NDo=     1
 LinEq1:  Iter=  4 NonCon=     1 RMS=7.82D-08 Max=1.14D-06 NDo=     1
 LinEq1:  Iter=  5 NonCon=     1 RMS=1.53D-08 Max=2.24D-07 NDo=     1
 LinEq1:  Iter=  6 NonCon=     1 RMS=2.83D-09 Max=3.40D-08 NDo=     1
 LinEq1:  Iter=  7 NonCon=     0 RMS=4.15D-10 Max=3.99D-09 NDo=     1
 Linear equations converged to 2.924D-09 2.924D-08 after     7 iterations.
     Minimum is close to point  2 DX=  9.19D-04 DF= -5.16D-13 DXR=  9.18D-04 DFR=  8.43D-07 which will be used.
 LinEq1:  Iter=  0 NonCon=     1 RMS=6.39D-08 Max=7.94D-07 NDo=     1
 LinEq1:  Iter=  1 NonCon=     1 RMS=1.52D-08 Max=1.76D-07 NDo=     1
 LinEq1:  Iter=  2 NonCon=     1 RMS=3.90D-09 Max=5.41D-08 NDo=     1
 LinEq1:  Iter=  3 NonCon=     1 RMS=9.93D-10 Max=1.60D-08 NDo=     1
 LinEq1:  Iter=  4 NonCon=     1 RMS=1.90D-10 Max=1.38D-09 NDo=     1
 LinEq1:  Iter=  5 NonCon=     1 RMS=3.27D-11 Max=2.99D-10 NDo=     1
 LinEq1:  Iter=  6 NonCon=     0 RMS=4.38D-12 Max=3.24D-11 NDo=     1
 Linear equations converged to 1.386D-11 1.386D-10 after     6 iterations.
 SCF Done:  E(UAM1) =  0.993053779722E-01 a.u. after    6 cycles
            Convg  =    0.8886D-08                    48 Fock formations.
              S**2 =  1.3757                  -V/T =  1.0006
 <Sx>= 0.0000 <Sy>= 0.0000 <Sz>= 0.5000 <S**2>= 1.3757 S= 0.7750
 <L.S>=  0.00000000000    
 Annihilation of the first spin contaminant:
 S**2 before annihilation     1.3757,   after     1.1028

 **********************************************************************

            Population analysis using the SCF Density.

 **********************************************************************

 Orbital symmetries:
 Alpha Orbitals:
       Occupied  (A') (A') (A') (A') (A') (A') (A') (A') (A') (A')
                 (A') (A') (A') (A') (A") (A') (A') (A") (A") (A')
                 (A") (A") (A') (A') (A') (A') (A") (A') (A") (A")
       Virtual   (A") (A") (A') (A') (A') (A') (A') (A") (A') (A')
                 (A') (A') (A') (A')
 Beta  Orbitals:
       Occupied  (A') (A') (A') (A') (A') (A') (A') (A') (A') (A')
                 (A') (A') (A') (A') (A") (A') (A') (A") (A") (A")
                 (A") (A') (A') (A') (A') (A') (A") (A") (A")
       Virtual   (A') (A") (A") (A') (A') (A') (A') (A') (A") (A')
                 (A') (A') (A') (A') (A')
 The electronic state is 2-A'.
 Alpha  occ. eigenvalues --   -1.48502  -1.40983  -1.40204  -1.39312  -1.38988
 Alpha  occ. eigenvalues --   -1.37221  -1.16915  -1.16543  -0.89875  -0.89501
 Alpha  occ. eigenvalues --   -0.70282  -0.67161  -0.64928  -0.60515  -0.59477
 Alpha  occ. eigenvalues --   -0.57377  -0.53303  -0.52482  -0.50659  -0.48962
 Alpha  occ. eigenvalues --   -0.48027  -0.47657  -0.46736  -0.46107  -0.45803
 Alpha  occ. eigenvalues --   -0.44593  -0.44371  -0.44208  -0.39770  -0.38431
 Alpha virt. eigenvalues --   -0.03408  -0.03178  -0.00985  -0.00047   0.00369
 Alpha virt. eigenvalues --    0.02344   0.02764   0.04242   0.10166   0.10310
 Alpha virt. eigenvalues --    0.11907   0.12133   0.13483   0.13849
  Beta  occ. eigenvalues --   -1.48010  -1.40903  -1.40207  -1.39260  -1.38923
  Beta  occ. eigenvalues --   -1.36903  -1.16693  -1.14924  -0.89703  -0.87229
  Beta  occ. eigenvalues --   -0.70151  -0.66668  -0.63686  -0.60373  -0.59320
  Beta  occ. eigenvalues --   -0.56574  -0.52952  -0.52493  -0.51332  -0.48057
  Beta  occ. eigenvalues --   -0.47569  -0.47442  -0.46687  -0.45904  -0.45729
  Beta  occ. eigenvalues --   -0.44561  -0.43901  -0.38604  -0.38593
  Beta virt. eigenvalues --   -0.04959  -0.03477  -0.01600  -0.01337   0.00355
  Beta virt. eigenvalues --    0.00573   0.02305   0.02846   0.05369   0.10590
  Beta virt. eigenvalues --    0.10656   0.12669   0.12771   0.13851   0.15660
          Condensed to atoms (all electrons):
               1          2          3          4          5          6
     1  C    4.043036   0.000000   0.000000   0.000000   0.000000   0.000000
     2  C    0.000000   4.031239   0.000000   0.000000   0.000000   0.000000
     3  C    0.000000   0.000000   4.038169   0.000000   0.000000   0.000000
     4  C    0.000000   0.000000   0.000000   4.031241   0.000000   0.000000
     5  C    0.000000   0.000000   0.000000   0.000000   4.043041   0.000000
     6  C    0.000000   0.000000   0.000000   0.000000   0.000000   3.965428
     7  Cl   0.000000   0.000000   0.000000   0.000000   0.000000   0.000000
     8  Cl   0.000000   0.000000   0.000000   0.000000   0.000000   0.000000
     9  Cl   0.000000   0.000000   0.000000   0.000000   0.000000   0.000000
    10  Cl   0.000000   0.000000   0.000000   0.000000   0.000000   0.000000
    11  Cl   0.000000   0.000000   0.000000   0.000000   0.000000   0.000000
               7          8          9         10         11
     1  C    0.000000   0.000000   0.000000   0.000000   0.000000
     2  C    0.000000   0.000000   0.000000   0.000000   0.000000
     3  C    0.000000   0.000000   0.000000   0.000000   0.000000
     4  C    0.000000   0.000000   0.000000   0.000000   0.000000
     5  C    0.000000   0.000000   0.000000   0.000000   0.000000
     6  C    0.000000   0.000000   0.000000   0.000000   0.000000
     7  Cl   6.972457   0.000000   0.000000   0.000000   0.000000
     8  Cl   0.000000   6.967387   0.000000   0.000000   0.000000
     9  Cl   0.000000   0.000000   6.968164   0.000000   0.000000
    10  Cl   0.000000   0.000000   0.000000   6.967385   0.000000
    11  Cl   0.000000   0.000000   0.000000   0.000000   6.972452
          Atomic-Atomic Spin Densities.
               1          2          3          4          5          6
     1  C   -0.516476   0.000000   0.000000   0.000000   0.000000   0.000000
     2  C    0.000000   0.515192   0.000000   0.000000   0.000000   0.000000
     3  C    0.000000   0.000000  -0.496305   0.000000   0.000000   0.000000
     4  C    0.000000   0.000000   0.000000   0.515200   0.000000   0.000000
     5  C    0.000000   0.000000   0.000000   0.000000  -0.516476   0.000000
     6  C    0.000000   0.000000   0.000000   0.000000   0.000000   1.462274
     7  Cl   0.000000   0.000000   0.000000   0.000000   0.000000   0.000000
     8  Cl   0.000000   0.000000   0.000000   0.000000   0.000000   0.000000
     9  Cl   0.000000   0.000000   0.000000   0.000000   0.000000   0.000000
    10  Cl   0.000000   0.000000   0.000000   0.000000   0.000000   0.000000
    11  Cl   0.000000   0.000000   0.000000   0.000000   0.000000   0.000000
               7          8          9         10         11
     1  C    0.000000   0.000000   0.000000   0.000000   0.000000
     2  C    0.000000   0.000000   0.000000   0.000000   0.000000
     3  C    0.000000   0.000000   0.000000   0.000000   0.000000
     4  C    0.000000   0.000000   0.000000   0.000000   0.000000
     5  C    0.000000   0.000000   0.000000   0.000000   0.000000
     6  C    0.000000   0.000000   0.000000   0.000000   0.000000
     7  Cl   0.009292   0.000000   0.000000   0.000000   0.000000
     8  Cl   0.000000   0.005627   0.000000   0.000000   0.000000
     9  Cl   0.000000   0.000000   0.006754   0.000000   0.000000
    10  Cl   0.000000   0.000000   0.000000   0.005627   0.000000
    11  Cl   0.000000   0.000000   0.000000   0.000000   0.009290
 Mulliken charges and spin densities:
               1          2
     1  C   -0.043036  -0.516476
     2  C   -0.031239   0.515192
     3  C   -0.038169  -0.496305
     4  C   -0.031241   0.515200
     5  C   -0.043041  -0.516476
     6  C    0.034572   1.462274
     7  Cl   0.027543   0.009292
     8  Cl   0.032613   0.005627
     9  Cl   0.031836   0.006754
    10  Cl   0.032615   0.005627
    11  Cl   0.027548   0.009290
 Sum of Mulliken charges =  -0.00000   1.00000
 Mulliken charges and spin densities with hydrogens summed into heavy atoms:
               1          2
     1  C   -0.043036  -0.516476
     2  C   -0.031239   0.515192
     3  C   -0.038169  -0.496305
     4  C   -0.031241   0.515200
     5  C   -0.043041  -0.516476
     6  C    0.034572   1.462274
     7  Cl   0.027543   0.009292
     8  Cl   0.032613   0.005627
     9  Cl   0.031836   0.006754
    10  Cl   0.032615   0.005627
    11  Cl   0.027548   0.009290
 Charge=             -0.0000 electrons
 Dipole moment (field-independent basis, Debye):
    X=              0.1402    Y=             -0.0810    Z=              0.0000  Tot=              0.1619
 N-N= 3.492652422331D+02 E-N=-4.977809620749D+02  KE=-1.553284970094D+02
 Symmetry A'   KE=-1.181614557588D+02
 Symmetry A"   KE=-3.716704125056D+01
 Symmetry A'   SP= 1.000000000000D+00
 Symmetry A"   SP=-5.551115123126D-16
 Calling FoFJK, ICntrl=      2127 FMM=F ISym2X=1 I1Cent= 0 IOpClX= 1 NMat=1 NMatS=1 NMatT=0.
 ***** Axes restored to original set *****
 -------------------------------------------------------------------
 Center     Atomic                   Forces (Hartrees/Bohr)
 Number     Number              X              Y              Z
 -------------------------------------------------------------------
      1        6          -0.049735284   -0.002285112    0.000000000
      2        6          -0.000281122    0.034858634   -0.000000000
      3        6           0.030638945    0.018827595   -0.000000000
      4        6           0.030966859   -0.015996535    0.000000000
      5        6          -0.024494190   -0.043335501   -0.000000000
      6        6           0.052037211    0.031987369   -0.000000000
      7       17           0.035954569   -0.022208329   -0.000000000
      8       17           0.000928694   -0.041827177    0.000000000
      9       17          -0.035546299   -0.021845590    0.000000000
     10       17          -0.036896226    0.019721868    0.000000000
     11       17          -0.003573157    0.042102778    0.000000000
 -------------------------------------------------------------------
 Cartesian Forces:  Max     0.052037211 RMS     0.025360347

 GradGradGradGradGradGradGradGradGradGradGradGradGradGradGradGradGradGrad
 Berny optimization.
 FormGI is forming the generalized inverse of G from B-inverse, IUseBI=4.
 Internal  Forces:  Max     0.042191322 RMS     0.016257803
 Search for a local minimum.
 Step number   1 out of a maximum of   57
 All quantities printed in internal units (Hartrees-Bohrs-Radians)
 Mixed Optimization -- RFO/linear search
 Second derivative matrix not updated -- first step.
 ITU=  0
     Eigenvalues ---    0.02011   0.02011   0.02011   0.02011   0.02011
     Eigenvalues ---    0.02011   0.02011   0.02011   0.25000   0.25000
     Eigenvalues ---    0.25000   0.25000   0.25000   0.25000   0.25000
     Eigenvalues ---    0.25000   0.29033   0.29033   0.29033   0.29033
     Eigenvalues ---    0.29034   0.41211   0.41600   0.44656   0.44657
     Eigenvalues ---    0.44657   0.44657
 RFO step:  Lambda=-3.63546185D-02 EMin= 2.01065650D-02
 Linear search not attempted -- first point.
 Maximum step size (   0.300) exceeded in Quadratic search.
    -- Step size scaled by   0.911
 Iteration  1 RMS(Cart)=  0.04878258 RMS(Int)=  0.00080769
 Iteration  2 RMS(Cart)=  0.00111024 RMS(Int)=  0.00022979
 Iteration  3 RMS(Cart)=  0.00000041 RMS(Int)=  0.00022979
 ClnCor:  largest displacement from symmetrization is 3.70D-10 for atom    10.
 Variable       Old X    -DE/DX   Delta X   Delta X   Delta X     New X
                                 (Linear)    (Quad)   (Total)
    R1        2.65676  -0.00598   0.00000  -0.01128  -0.01128   2.64549
    R2        2.65677  -0.03266   0.00000  -0.06362  -0.06330   2.59347
    R3        3.33635  -0.04219   0.00000  -0.11766  -0.11766   3.21869
    R4        2.65677  -0.00131   0.00000  -0.00046  -0.00078   2.65599
    R5        3.33634  -0.04184   0.00000  -0.11667  -0.11667   3.21967
    R6        2.65677  -0.00131   0.00000  -0.00047  -0.00078   2.65598
    R7        3.33633  -0.04172   0.00000  -0.11635  -0.11635   3.21998
    R8        2.65678  -0.00598   0.00000  -0.01128  -0.01128   2.64549
    R9        3.33633  -0.04184   0.00000  -0.11667  -0.11667   3.21967
   R10        2.65675  -0.03266   0.00000  -0.06361  -0.06328   2.59347
   R11        3.33632  -0.04219   0.00000  -0.11764  -0.11764   3.21868
    A1        2.09439  -0.01190   0.00000  -0.04076  -0.04048   2.05391
    A2        2.09439   0.00998   0.00000   0.03320   0.03306   2.12745
    A3        2.09440   0.00192   0.00000   0.00756   0.00742   2.10182
    A4        2.09439  -0.00343   0.00000  -0.00695  -0.00731   2.08708
    A5        2.09440   0.00135   0.00000   0.00231   0.00249   2.09689
    A6        2.09439   0.00208   0.00000   0.00464   0.00482   2.09922
    A7        2.09440   0.00088   0.00000   0.01022   0.00953   2.10393
    A8        2.09440  -0.00044   0.00000  -0.00511  -0.00477   2.08963
    A9        2.09439  -0.00044   0.00000  -0.00511  -0.00477   2.08963
   A10        2.09439  -0.00343   0.00000  -0.00695  -0.00731   2.08708
   A11        2.09440   0.00208   0.00000   0.00464   0.00482   2.09922
   A12        2.09440   0.00135   0.00000   0.00231   0.00249   2.09688
   A13        2.09439  -0.01190   0.00000  -0.04076  -0.04048   2.05391
   A14        2.09439   0.00998   0.00000   0.03320   0.03306   2.12745
   A15        2.09440   0.00192   0.00000   0.00756   0.00742   2.10183
   A16        2.09440   0.02978   0.00000   0.08520   0.08606   2.18046
    D1        0.00000  -0.00000   0.00000  -0.00000   0.00000   0.00000
    D2        3.14159   0.00000   0.00000   0.00000   0.00000   3.14159
    D3        3.14159  -0.00000   0.00000   0.00000   0.00000   3.14159
    D4        0.00000   0.00000   0.00000   0.00000   0.00000   0.00000
    D5        0.00000   0.00000   0.00000   0.00000   0.00000   0.00000
    D6        3.14159   0.00000   0.00000   0.00000   0.00000   3.14159
    D7        0.00000  -0.00000   0.00000  -0.00000   0.00000   0.00000
    D8        3.14159   0.00000   0.00000  -0.00000   0.00000   3.14159
    D9        3.14159  -0.00000   0.00000  -0.00000   0.00000   3.14159
   D10        0.00000  -0.00000   0.00000  -0.00000   0.00000   0.00000
   D11        0.00000   0.00000   0.00000   0.00000   0.00000   0.00000
   D12        3.14159   0.00000   0.00000   0.00000   0.00000   3.14159
   D13        3.14159   0.00000   0.00000   0.00000   0.00000   3.14159
   D14        0.00000   0.00000   0.00000   0.00000   0.00000   0.00000
   D15        0.00000  -0.00000   0.00000   0.00000   0.00000   0.00000
   D16        3.14159   0.00000   0.00000   0.00000   0.00000   3.14159
   D17        3.14159  -0.00000   0.00000  -0.00000   0.00000   3.14159
   D18        0.00000   0.00000   0.00000   0.00000   0.00000   0.00000
   D19        0.00000  -0.00000   0.00000  -0.00000   0.00000   0.00000
   D20        3.14159  -0.00000   0.00000  -0.00000   0.00000   3.14159
         Item               Value     Threshold  Converged?
 Maximum Force            0.042191     0.000450     NO 
 RMS     Force            0.016258     0.000300     NO 
 Maximum Displacement     0.145691     0.001800     NO 
 RMS     Displacement     0.049179     0.001200     NO 
 Predicted change in Energy=-1.967639D-02
 GradGradGradGradGradGradGradGradGradGradGradGradGradGradGradGradGradGrad

                          Input orientation:                          
 ---------------------------------------------------------------------
 Center     Atomic      Atomic             Coordinates (Angstroms)
 Number     Number       Type             X           Y           Z
 ---------------------------------------------------------------------
      1          6           0       -3.197780    0.205809    0.000000
      2          6           0       -2.006954    0.941839    0.000000
      3          6           0       -0.774130    0.266902    0.000000
      4          6           0       -0.728838   -1.137854    0.000000
      5          6           0       -1.923403   -1.867809    0.000000
      6          6           0       -3.101113   -1.163188    0.000000
      7         17           0       -4.723587    0.962774    0.000000
      8         17           0       -2.053838    2.644970    0.000000
      9         17           0        0.677575    1.159073    0.000000
     10         17           0        0.769462   -1.948990    0.000000
     11         17           0       -1.937264   -3.571006    0.000000
 ---------------------------------------------------------------------
                    Distance matrix (angstroms):
                    1          2          3          4          5
     1  C    0.000000
     2  C    1.399931   0.000000
     3  C    2.424420   1.405487   0.000000
     4  C    2.810890   2.441045   1.405486   0.000000
     5  C    2.433912   2.810890   2.424421   1.399936   0.000000
     6  C    1.372405   2.372408   2.731301   2.372410   1.372404
     7  Cl   1.703257   2.716714   4.010293   4.513386   3.981611
     8  Cl   2.694088   1.703776   2.700530   4.008164   4.514663
     9  Cl   3.990876   2.693304   1.703941   2.693301   3.990877
    10  Cl   4.514661   4.008164   2.700529   1.703774   2.694088
    11  Cl   3.981612   4.513384   4.010290   2.716712   1.703254
                    6          7          8          9         10
     6  C    0.000000
     7  Cl   2.674347   0.000000
     8  Cl   3.949538   3.155526   0.000000
     9  Cl   4.435243   5.404728   3.109422   0.000000
    10  Cl   3.949536   6.217070   5.392170   3.109422   0.000000
    11  Cl   2.674348   5.321537   6.217069   5.404723   3.155519
                   11
    11  Cl   0.000000
 Stoichiometry    C6Cl5(2)
 Framework group  CS[SG(C6Cl5)]
 Deg. of freedom    19
 Full point group                 CS      NOp   2
 Largest Abelian subgroup         CS      NOp   2
 Largest concise Abelian subgroup C1      NOp   1
                         Standard orientation:                         
 ---------------------------------------------------------------------
 Center     Atomic      Atomic             Coordinates (Angstroms)
 Number     Number       Type             X           Y           Z
 ---------------------------------------------------------------------
      1          6           0        1.216956    1.124164   -0.000000
      2          6           0        1.220523   -0.275763   -0.000000
      3          6           0        0.000000   -0.972698    0.000000
      4          6           0       -1.220522   -0.275765    0.000000
      5          6           0       -1.216956    1.124166    0.000000
      6          6           0        0.000000    1.758603   -0.000000
      7         17           0        2.660768    2.027763   -0.000000
      8         17           0        2.696085   -1.127565   -0.000000
      9         17           0       -0.000000   -2.676639    0.000000
     10         17           0       -2.696084   -1.127564    0.000000
     11         17           0       -2.660769    2.027757    0.000000
 ---------------------------------------------------------------------
 Rotational constants (GHZ):           0.7141770           0.4702069           0.2835322
 Standard basis: VSTO-6G (5D, 7F)
 There are    33 symmetry adapted cartesian basis functions of A'  symmetry.
 There are    11 symmetry adapted cartesian basis functions of A"  symmetry.
 There are    33 symmetry adapted basis functions of A'  symmetry.
 There are    11 symmetry adapted basis functions of A"  symmetry.
    44 basis functions,   264 primitive gaussians,    44 cartesian basis functions
    30 alpha electrons       29 beta electrons
       nuclear repulsion energy       353.4828553706 Hartrees.
 Integral buffers will be    131072 words long.
 Regular integral format.
 Two-electron integral symmetry is turned off.
 Do NDO integrals.
 One-electron integrals computed using PRISM.
 NBasis=    44 RedAO= T EigKep=  1.00D+00  NBF=    33    11
 NBsUse=    44 1.00D-06 EigRej= -1.00D+00 NBFU=    33    11
 Initial guess from the checkpoint file:  "geometry_chks/_23456ClBzNeutralRadical.chk"
 B after Tr=     0.000000    0.000000   -0.000000
         Rot=    0.866026   -0.000000    0.000000    0.500000 Ang=  60.00 deg.
 Initial guess orbital symmetries:
 Alpha Orbitals:
       Occupied  (A') (A') (A') (A') (A') (A') (A') (A') (A') (A')
                 (A') (A') (A') (A') (A") (A') (A') (A") (A") (A')
                 (A") (A") (A') (A') (A') (A') (A") (A') (A") (A")
       Virtual   (A") (A") (A') (A') (A') (A') (A') (A") (A') (A')
                 (A') (A') (A') (A')
 Beta  Orbitals:
       Occupied  (A') (A') (A') (A') (A') (A') (A') (A') (A') (A')
                 (A') (A') (A') (A') (A") (A') (A') (A") (A") (A")
                 (A") (A') (A') (A') (A') (A') (A") (A") (A")
       Virtual   (A') (A") (A") (A') (A') (A') (A') (A') (A") (A')
                 (A') (A') (A') (A') (A')
 Initial guess <Sx>= 0.0000 <Sy>= 0.0000 <Sz>= 0.5000 <S**2>= 1.3757 S= 0.7750
 Keep J ints in memory in canonical form, NReq=865421.
 Overlap will be assumed to be unity.
 Requested convergence on RMS density matrix=1.00D-08 within  32 cycles.
 Requested convergence on MAX density matrix=1.00D-06.
 Requested convergence on             energy=1.00D-06.
 No special actions if energy rises.
 Fock symm off for IB=2 I1=    1 I=   34 J=   20 Cut=1.00D-07 Err=3.50D-03
 Fock matrix is not symmetric: symmetry in diagonalization turned off.
 SCF Done:  E(UAM1) =  0.787720163211E-01 A.U. after   16 cycles
            NFock= 15  Conv=0.57D-08     -V/T= 1.0005
 <Sx>= 0.0000 <Sy>= 0.0000 <Sz>= 0.5000 <S**2>= 1.3294 S= 0.7568
 <L.S>=  0.00000000000    
 Annihilation of the first spin contaminant:
 S**2 before annihilation     1.3294,   after     1.0493
 QCSCF skips out because SCF is already converged.
 Calling FoFJK, ICntrl=      2127 FMM=F ISym2X=1 I1Cent= 0 IOpClX= 1 NMat=1 NMatS=1 NMatT=0.
 ***** Axes restored to original set *****
 -------------------------------------------------------------------
 Center     Atomic                   Forces (Hartrees/Bohr)
 Number     Number              X              Y              Z
 -------------------------------------------------------------------
      1        6          -0.035782272    0.005572785    0.000000000
      2        6           0.006500657    0.022496245    0.000000000
      3        6           0.014680111    0.009022486    0.000000000
      4        6           0.023003087   -0.004363737    0.000000000
      5        6          -0.011187916   -0.034438657   -0.000000000
      6        6           0.010002476    0.006147239   -0.000000000
      7       17           0.009153746   -0.005194240   -0.000000000
      8       17          -0.000168764   -0.009537341   -0.000000000
      9       17          -0.007117064   -0.004373735   -0.000000000
     10       17          -0.008584254    0.004157158   -0.000000000
     11       17          -0.000499809    0.010511797   -0.000000000
 -------------------------------------------------------------------
 Cartesian Forces:  Max     0.035782272 RMS     0.011841314

 GradGradGradGradGradGradGradGradGradGradGradGradGradGradGradGradGradGrad
 Berny optimization.
 Using GEDIIS/GDIIS optimizer.
 FormGI is forming the generalized inverse of G from B-inverse, IUseBI=4.
 Internal  Forces:  Max     0.016606533 RMS     0.006243113
 Search for a local minimum.
 Step number   2 out of a maximum of   57
 All quantities printed in internal units (Hartrees-Bohrs-Radians)
 Mixed Optimization -- RFO/linear search
 Update second derivatives using D2CorX and points    1    2
 DE= -2.05D-02 DEPred=-1.97D-02 R= 1.04D+00
 TightC=F SS=  1.41D+00  RLast= 3.00D-01 DXNew= 5.0454D-01 8.9996D-01
 Trust test= 1.04D+00 RLast= 3.00D-01 DXMaxT set to 5.05D-01
 ITU=  1  0
 Use linear search instead of GDIIS.
     Eigenvalues ---    0.02011   0.02011   0.02011   0.02011   0.02011
     Eigenvalues ---    0.02011   0.02011   0.02011   0.19637   0.25000
     Eigenvalues ---    0.25000   0.25000   0.25000   0.25000   0.25000
     Eigenvalues ---    0.25015   0.27651   0.29033   0.29033   0.29034
     Eigenvalues ---    0.29073   0.40792   0.41294   0.44491   0.44656
     Eigenvalues ---    0.44657   0.59407
 RFO step:  Lambda=-5.22394239D-03 EMin= 2.01065635D-02
 Quartic linear search produced a step of  0.22303.
 Iteration  1 RMS(Cart)=  0.02149685 RMS(Int)=  0.00042097
 Iteration  2 RMS(Cart)=  0.00047550 RMS(Int)=  0.00016012
 Iteration  3 RMS(Cart)=  0.00000014 RMS(Int)=  0.00016012
 ClnCor:  largest displacement from symmetrization is 9.52D-11 for atom     7.
 Variable       Old X    -DE/DX   Delta X   Delta X   Delta X     New X
                                 (Linear)    (Quad)   (Total)
    R1        2.64549   0.01661  -0.00251   0.04626   0.04375   2.68924
    R2        2.59347   0.00596  -0.01412   0.02358   0.00969   2.60316
    R3        3.21869  -0.01051  -0.02624  -0.02575  -0.05199   3.16670
    R4        2.65599   0.01281  -0.00017   0.03524   0.03485   2.69083
    R5        3.21967  -0.00953  -0.02602  -0.02186  -0.04788   3.17179
    R6        2.65598   0.01281  -0.00017   0.03524   0.03485   2.69083
    R7        3.21998  -0.00835  -0.02595  -0.01705  -0.04300   3.17698
    R8        2.64549   0.01660  -0.00252   0.04626   0.04374   2.68924
    R9        3.21967  -0.00953  -0.02602  -0.02185  -0.04787   3.17179
   R10        2.59347   0.00596  -0.01411   0.02357   0.00969   2.60316
   R11        3.21868  -0.01051  -0.02624  -0.02575  -0.05199   3.16670
    A1        2.05391  -0.00774  -0.00903  -0.03144  -0.04027   2.01365
    A2        2.12745   0.00481   0.00737   0.01817   0.02544   2.15289
    A3        2.10182   0.00293   0.00166   0.01327   0.01482   2.11664
    A4        2.08708  -0.00084  -0.00163  -0.00158  -0.00346   2.08362
    A5        2.09689  -0.00027   0.00055  -0.00234  -0.00166   2.09523
    A6        2.09922   0.00111   0.00108   0.00392   0.00512   2.10434
    A7        2.10393   0.00260   0.00213   0.01324   0.01489   2.11882
    A8        2.08963  -0.00130  -0.00106  -0.00662  -0.00745   2.08218
    A9        2.08963  -0.00130  -0.00106  -0.00662  -0.00744   2.08218
   A10        2.08708  -0.00084  -0.00163  -0.00158  -0.00346   2.08362
   A11        2.09922   0.00111   0.00108   0.00392   0.00512   2.10434
   A12        2.09688  -0.00027   0.00055  -0.00234  -0.00166   2.09523
   A13        2.05391  -0.00774  -0.00903  -0.03144  -0.04026   2.01365
   A14        2.12745   0.00481   0.00737   0.01817   0.02544   2.15289
   A15        2.10183   0.00293   0.00166   0.01327   0.01482   2.11665
   A16        2.18046   0.01456   0.01919   0.05279   0.07257   2.25302
    D1        0.00000  -0.00000   0.00000  -0.00000   0.00000   0.00000
    D2        3.14159  -0.00000   0.00000  -0.00000   0.00000   3.14159
    D3        3.14159   0.00000   0.00000   0.00000   0.00000   3.14159
    D4       -0.00000   0.00000   0.00000   0.00000   0.00000   0.00000
    D5       -0.00000   0.00000   0.00000   0.00000   0.00000   0.00000
    D6        3.14159  -0.00000   0.00000  -0.00000   0.00000   3.14159
    D7       -0.00000   0.00000   0.00000   0.00000   0.00000   0.00000
    D8        3.14159  -0.00000   0.00000  -0.00000   0.00000   3.14159
    D9        3.14159   0.00000   0.00000   0.00000   0.00000   3.14159
   D10        0.00000   0.00000   0.00000   0.00000   0.00000   0.00000
   D11        0.00000   0.00000   0.00000   0.00000   0.00000   0.00000
   D12        3.14159  -0.00000   0.00000  -0.00000   0.00000   3.14159
   D13        3.14159   0.00000   0.00000   0.00000   0.00000   3.14159
   D14       -0.00000   0.00000   0.00000   0.00000   0.00000   0.00000
   D15       -0.00000  -0.00000   0.00000  -0.00000   0.00000   0.00000
   D16        3.14159  -0.00000   0.00000  -0.00000   0.00000   3.14159
   D17        3.14159   0.00000   0.00000   0.00000   0.00000   3.14159
   D18       -0.00000  -0.00000   0.00000  -0.00000   0.00000   0.00000
   D19        0.00000  -0.00000   0.00000  -0.00000   0.00000   0.00000
   D20        3.14159   0.00000   0.00000   0.00000   0.00000   3.14159
         Item               Value     Threshold  Converged?
 Maximum Force            0.016607     0.000450     NO 
 RMS     Force            0.006243     0.000300     NO 
 Maximum Displacement     0.056834     0.001800     NO 
 RMS     Displacement     0.021473     0.001200     NO 
 Predicted change in Energy=-3.710362D-03
 GradGradGradGradGradGradGradGradGradGradGradGradGradGradGradGradGradGrad

                          Input orientation:                          
 ---------------------------------------------------------------------
 Center     Atomic      Atomic             Coordinates (Angstroms)
 Number     Number       Type             X           Y           Z
 ---------------------------------------------------------------------
      1          6           0       -3.220231    0.223518   -0.000000
      2          6           0       -2.006743    0.966895   -0.000000
      3          6           0       -0.762871    0.273822    0.000000
      4          6           0       -0.706391   -1.148984    0.000000
      5          6           0       -1.917743   -1.895838    0.000000
      6          6           0       -3.073420   -1.146169   -0.000000
      7         17           0       -4.737027    0.935870   -0.000000
      8         17           0       -2.049033    2.644802   -0.000000
      9         17           0        0.669445    1.154079    0.000000
     10         17           0        0.771483   -1.944627    0.000000
     11         17           0       -1.967339   -3.570849    0.000000
 ---------------------------------------------------------------------
                    Distance matrix (angstroms):
                    1          2          3          4          5
     1  C    0.000000
     2  C    1.423082   0.000000
     3  C    2.457875   1.423927   0.000000
     4  C    2.864115   2.483517   1.423926   0.000000
     5  C    2.487598   2.864116   2.457876   1.423083   0.000000
     6  C    1.377532   2.367031   2.712012   2.367031   1.377531
     7  Cl   1.675743   2.730460   4.028923   4.537911   3.995864
     8  Cl   2.689669   1.678440   2.697361   4.024362   4.542537
     9  Cl   3.999441   2.682726   1.681184   2.682727   3.999442
    10  Cl   4.542536   4.024363   2.697362   1.678440   2.689669
    11  Cl   3.995867   4.537914   4.028925   2.730461   1.675745
                    6          7          8          9         10
     6  C    0.000000
     7  Cl   2.665047   0.000000
     8  Cl   3.926936   3.185241   0.000000
     9  Cl   4.393197   5.410874   3.100383   0.000000
    10  Cl   3.926935   6.216184   5.386851   3.100385   0.000000
    11  Cl   2.665049   5.289772   6.216187   5.410875   3.185238
                   11
    11  Cl   0.000000
 Stoichiometry    C6Cl5(2)
 Framework group  CS[SG(C6Cl5)]
 Deg. of freedom    19
 Full point group                 CS      NOp   2
 Largest Abelian subgroup         CS      NOp   2
 Largest concise Abelian subgroup C1      NOp   1
                         Standard orientation:                         
 ---------------------------------------------------------------------
 Center     Atomic      Atomic             Coordinates (Angstroms)
 Number     Number       Type             X           Y           Z
 ---------------------------------------------------------------------
      1          6           0        1.129237   -1.243799    0.000000
      2          6           0       -0.293843   -1.241759    0.000000
      3          6           0       -0.990696   -0.000001    0.000000
      4          6           0       -0.293844    1.241758    0.000000
      5          6           0        1.129237    1.243799    0.000000
      6          6           0        1.721317    0.000000    0.000000
      7         17           0        2.048517   -2.644884    0.000000
      8         17           0       -1.136354   -2.693426    0.000000
      9         17           0       -2.671880   -0.000002    0.000000
     10         17           0       -1.136354    2.693425    0.000000
     11         17           0        2.048515    2.644888    0.000000
 ---------------------------------------------------------------------
 Rotational constants (GHZ):           0.7083637           0.4719879           0.2832538
 Standard basis: VSTO-6G (5D, 7F)
 There are    33 symmetry adapted cartesian basis functions of A'  symmetry.
 There are    11 symmetry adapted cartesian basis functions of A"  symmetry.
 There are    33 symmetry adapted basis functions of A'  symmetry.
 There are    11 symmetry adapted basis functions of A"  symmetry.
    44 basis functions,   264 primitive gaussians,    44 cartesian basis functions
    30 alpha electrons       29 beta electrons
       nuclear repulsion energy       353.3624737098 Hartrees.
 Integral buffers will be    131072 words long.
 Regular integral format.
 Two-electron integral symmetry is turned off.
 Do NDO integrals.
 One-electron integrals computed using PRISM.
 NBasis=    44 RedAO= T EigKep=  1.00D+00  NBF=    33    11
 NBsUse=    44 1.00D-06 EigRej= -1.00D+00 NBFU=    33    11
 Initial guess from the checkpoint file:  "geometry_chks/_23456ClBzNeutralRadical.chk"
 B after Tr=    -0.000000    0.000000    0.000000
         Rot=    0.707107   -0.000000    0.000000    0.707107 Ang=  90.00 deg.
 Initial guess orbital symmetries:
 Alpha Orbitals:
       Occupied  (A') (A') (A') (A') (A') (A') (A') (A') (A') (A')
                 (A') (A') (A') (A') (A") (A') (A') (A") (A") (A')
                 (A") (A") (A') (A') (A') (A') (A") (A') (A") (A")
       Virtual   (A") (A") (A') (A') (A') (A') (A') (A") (A') (A')
                 (A') (A') (A') (A')
 Beta  Orbitals:
       Occupied  (A') (A') (A') (A') (A') (A') (A') (A') (A') (A')
                 (A') (A') (A') (A') (A") (A') (A') (A") (A") (A")
                 (A") (A') (A') (A') (A') (A') (A") (A") (A")
       Virtual   (A') (A") (A") (A') (A') (A') (A') (A') (A") (A')
                 (A') (A') (A') (A') (A')
 Initial guess <Sx>= 0.0000 <Sy>= 0.0000 <Sz>= 0.5000 <S**2>= 1.3294 S= 0.7568
 Keep J ints in memory in canonical form, NReq=865421.
 Overlap will be assumed to be unity.
 Requested convergence on RMS density matrix=1.00D-08 within  32 cycles.
 Requested convergence on MAX density matrix=1.00D-06.
 Requested convergence on             energy=1.00D-06.
 No special actions if energy rises.
 Fock symm off for IB=2 I1=    1 I=   34 J=   24 Cut=1.00D-07 Err=1.60D-03
 Fock matrix is not symmetric: symmetry in diagonalization turned off.
 SCF Done:  E(UAM1) =  0.759775171394E-01 A.U. after   16 cycles
            NFock= 15  Conv=0.65D-08     -V/T= 1.0005
 <Sx>= 0.0000 <Sy>= 0.0000 <Sz>= 0.5000 <S**2>= 1.4545 S= 0.8056
 <L.S>=  0.00000000000    
 Annihilation of the first spin contaminant:
 S**2 before annihilation     1.4545,   after     1.2160
 QCSCF skips out because SCF is already converged.
 Calling FoFJK, ICntrl=      2127 FMM=F ISym2X=1 I1Cent= 0 IOpClX= 1 NMat=1 NMatS=1 NMatT=0.
 ***** Axes restored to original set *****
 -------------------------------------------------------------------
 Center     Atomic                   Forces (Hartrees/Bohr)
 Number     Number              X              Y              Z
 -------------------------------------------------------------------
      1        6           0.002642041   -0.004039927    0.000000000
      2        6           0.003617138   -0.008171688    0.000000000
      3        6          -0.010659347   -0.006550809    0.000000000
      4        6          -0.005656708    0.006917633    0.000000000
      5        6          -0.002410397    0.004181386   -0.000000000
      6        6           0.006794235    0.004175367   -0.000000000
      7       17          -0.000336819    0.001190431   -0.000000000
      8       17          -0.000569189    0.002661137   -0.000000000
      9       17           0.003552304    0.002183026   -0.000000000
     10       17           0.002116947   -0.001709578   -0.000000000
     11       17           0.000909796   -0.000836979   -0.000000000
 -------------------------------------------------------------------
 Cartesian Forces:  Max     0.010659347 RMS     0.003740405

 GradGradGradGradGradGradGradGradGradGradGradGradGradGradGradGradGradGrad
 Berny optimization.
 Using GEDIIS/GDIIS optimizer.
 FormGI is forming the generalized inverse of G from B-inverse, IUseBI=4.
 Internal  Forces:  Max     0.007111779 RMS     0.002316381
 Search for a local minimum.
 Step number   3 out of a maximum of   57
 All quantities printed in internal units (Hartrees-Bohrs-Radians)
 Mixed Optimization -- RFO/linear search
 Update second derivatives using D2CorX and points    1    2    3
 DE= -2.79D-03 DEPred=-3.71D-03 R= 7.53D-01
 TightC=F SS=  1.41D+00  RLast= 1.70D-01 DXNew= 8.4853D-01 5.1035D-01
 Trust test= 7.53D-01 RLast= 1.70D-01 DXMaxT set to 5.10D-01
 ITU=  1  1  0
 Use linear search instead of GDIIS.
     Eigenvalues ---    0.02011   0.02011   0.02011   0.02011   0.02011
     Eigenvalues ---    0.02011   0.02011   0.02011   0.19110   0.25000
     Eigenvalues ---    0.25000   0.25000   0.25000   0.25000   0.25000
     Eigenvalues ---    0.25167   0.28710   0.29033   0.29033   0.29034
     Eigenvalues ---    0.32603   0.41296   0.41467   0.44623   0.44656
     Eigenvalues ---    0.44657   0.62613
 RFO step:  Lambda=-3.10515759D-04 EMin= 2.01065631D-02
 Quartic linear search produced a step of -0.15706.
 Iteration  1 RMS(Cart)=  0.00467918 RMS(Int)=  0.00001934
 Iteration  2 RMS(Cart)=  0.00001296 RMS(Int)=  0.00001720
 Iteration  3 RMS(Cart)=  0.00000000 RMS(Int)=  0.00001720
 ClnCor:  largest displacement from symmetrization is 8.19D-12 for atom     8.
 Variable       Old X    -DE/DX   Delta X   Delta X   Delta X     New X
                                 (Linear)    (Quad)   (Total)
    R1        2.68924  -0.00446  -0.00687  -0.00005  -0.00692   2.68232
    R2        2.60316  -0.00543  -0.00152  -0.00732  -0.00887   2.59429
    R3        3.16670   0.00081   0.00817  -0.00551   0.00266   3.16935
    R4        2.69083  -0.00711  -0.00547  -0.00714  -0.01259   2.67824
    R5        3.17179   0.00267   0.00752   0.00077   0.00829   3.18008
    R6        2.69083  -0.00711  -0.00547  -0.00714  -0.01259   2.67824
    R7        3.17698   0.00417   0.00675   0.00611   0.01286   3.18984
    R8        2.68924  -0.00446  -0.00687  -0.00005  -0.00692   2.68232
    R9        3.17179   0.00267   0.00752   0.00077   0.00829   3.18008
   R10        2.60316  -0.00543  -0.00152  -0.00732  -0.00887   2.59429
   R11        3.16670   0.00081   0.00816  -0.00551   0.00265   3.16935
    A1        2.01365  -0.00125   0.00632  -0.01112  -0.00481   2.00883
    A2        2.15289  -0.00085  -0.00400   0.00128  -0.00270   2.15019
    A3        2.11664   0.00211  -0.00233   0.00983   0.00752   2.12416
    A4        2.08362   0.00007   0.00054  -0.00055   0.00002   2.08364
    A5        2.09523  -0.00083   0.00026  -0.00309  -0.00284   2.09239
    A6        2.10434   0.00076  -0.00080   0.00363   0.00281   2.10715
    A7        2.11882   0.00096  -0.00234   0.00552   0.00323   2.12205
    A8        2.08218  -0.00048   0.00117  -0.00276  -0.00161   2.08057
    A9        2.08218  -0.00048   0.00117  -0.00276  -0.00161   2.08057
   A10        2.08362   0.00007   0.00054  -0.00055   0.00002   2.08364
   A11        2.10434   0.00076  -0.00080   0.00363   0.00281   2.10715
   A12        2.09523  -0.00083   0.00026  -0.00308  -0.00284   2.09239
   A13        2.01365  -0.00125   0.00632  -0.01111  -0.00481   2.00883
   A14        2.15289  -0.00085  -0.00400   0.00128  -0.00270   2.15019
   A15        2.11665   0.00211  -0.00233   0.00983   0.00752   2.12416
   A16        2.25302   0.00141  -0.01140   0.01781   0.00635   2.25937
    D1        0.00000  -0.00000   0.00000  -0.00000   0.00000   0.00000
    D2        3.14159  -0.00000   0.00000  -0.00000   0.00000   3.14159
    D3        3.14159   0.00000   0.00000   0.00000   0.00000   3.14159
    D4        0.00000   0.00000   0.00000   0.00000   0.00000   0.00000
    D5        0.00000   0.00000   0.00000   0.00000   0.00000   0.00000
    D6        3.14159  -0.00000   0.00000  -0.00000   0.00000   3.14159
    D7        0.00000   0.00000   0.00000   0.00000   0.00000   0.00000
    D8        3.14159  -0.00000   0.00000  -0.00000   0.00000   3.14159
    D9        3.14159   0.00000   0.00000   0.00000   0.00000   3.14159
   D10        0.00000  -0.00000   0.00000  -0.00000   0.00000   0.00000
   D11        0.00000   0.00000   0.00000   0.00000   0.00000   0.00000
   D12        3.14159  -0.00000   0.00000  -0.00000   0.00000   3.14159
   D13        3.14159   0.00000   0.00000   0.00000   0.00000   3.14159
   D14        0.00000   0.00000   0.00000   0.00000   0.00000   0.00000
   D15        0.00000  -0.00000   0.00000  -0.00000   0.00000   0.00000
   D16        3.14159  -0.00000   0.00000  -0.00000   0.00000   3.14159
   D17        3.14159   0.00000   0.00000   0.00000   0.00000   3.14159
   D18        0.00000  -0.00000   0.00000  -0.00000   0.00000   0.00000
   D19        0.00000   0.00000   0.00000  -0.00000   0.00000   0.00000
   D20        3.14159   0.00000   0.00000   0.00000   0.00000   3.14159
         Item               Value     Threshold  Converged?
 Maximum Force            0.007112     0.000450     NO 
 RMS     Force            0.002316     0.000300     NO 
 Maximum Displacement     0.013166     0.001800     NO 
 RMS     Displacement     0.004682     0.001200     NO 
 Predicted change in Energy=-2.541762D-04
 GradGradGradGradGradGradGradGradGradGradGradGradGradGradGradGradGradGrad

                          Input orientation:                          
 ---------------------------------------------------------------------
 Center     Atomic      Atomic             Coordinates (Angstroms)
 Number     Number       Type             X           Y           Z
 ---------------------------------------------------------------------
      1          6           0       -3.218358    0.221888    0.000000
      2          6           0       -2.006777    0.961368    0.000000
      3          6           0       -0.769838    0.269540    0.000000
      4          6           0       -0.711336   -1.146518    0.000000
      5          6           0       -1.918350   -1.893430    0.000000
      6          6           0       -3.067715   -1.142662    0.000000
      7         17           0       -4.733315    0.941425    0.000000
      8         17           0       -2.051194    2.643607    0.000000
      9         17           0        0.668278    1.153360    0.000000
     10         17           0        0.769442   -1.946015    0.000000
     11         17           0       -1.960707   -3.570044    0.000000
 ---------------------------------------------------------------------
                    Distance matrix (angstroms):
                    1          2          3          4          5
     1  C    0.000000
     2  C    1.419422   0.000000
     3  C    2.448983   1.417266   0.000000
     4  C    2.856167   2.474136   1.417266   0.000000
     5  C    2.482859   2.856167   2.448983   1.419422   0.000000
     6  C    1.372841   2.356382   2.697138   2.356381   1.372840
     7  Cl   1.677149   2.726611   4.020022   4.531646   3.995051
     8  Cl   2.688307   1.682826   2.697790   4.019984   4.538982
     9  Cl   3.996696   2.681935   1.687992   2.681935   3.996696
    10  Cl   4.538982   4.019984   2.697790   1.682826   2.688307
    11  Cl   3.995051   4.531646   4.020022   2.726611   1.677149
                    6          7          8          9         10
     6  C    0.000000
     7  Cl   2.667892   0.000000
     8  Cl   3.920351   3.176664   0.000000
     9  Cl   4.385130   5.405749   3.101027   0.000000
    10  Cl   3.920351   6.214310   5.387080   3.101026   0.000000
    11  Cl   2.667892   5.295347   6.214310   5.405748   3.176663
                   11
    11  Cl   0.000000
 Stoichiometry    C6Cl5(2)
 Framework group  CS[SG(C6Cl5)]
 Deg. of freedom    19
 Full point group                 CS      NOp   2
 Largest Abelian subgroup         CS      NOp   2
 Largest concise Abelian subgroup C1      NOp   1
                         Standard orientation:                         
 ---------------------------------------------------------------------
 Center     Atomic      Atomic             Coordinates (Angstroms)
 Number     Number       Type             X           Y           Z
 ---------------------------------------------------------------------
      1          6           0        1.241430    1.129025    0.000000
      2          6           0        1.237068   -0.290391    0.000000
      3          6           0       -0.000000   -0.981987    0.000000
      4          6           0       -1.237068   -0.290391   -0.000000
      5          6           0       -1.241429    1.129025   -0.000000
      6          6           0       -0.000000    1.715151   -0.000000
      7         17           0        2.647674    2.042976    0.000000
      8         17           0        2.693540   -1.133357    0.000000
      9         17           0       -0.000000   -2.669979    0.000000
     10         17           0       -2.693540   -1.133357   -0.000000
     11         17           0       -2.647674    2.042975   -0.000000
 ---------------------------------------------------------------------
 Rotational constants (GHZ):           0.7112914           0.4716995           0.2836166
 Standard basis: VSTO-6G (5D, 7F)
 There are    33 symmetry adapted cartesian basis functions of A'  symmetry.
 There are    11 symmetry adapted cartesian basis functions of A"  symmetry.
 There are    33 symmetry adapted basis functions of A'  symmetry.
 There are    11 symmetry adapted basis functions of A"  symmetry.
    44 basis functions,   264 primitive gaussians,    44 cartesian basis functions
    30 alpha electrons       29 beta electrons
       nuclear repulsion energy       353.5643201942 Hartrees.
 Integral buffers will be    131072 words long.
 Regular integral format.
 Two-electron integral symmetry is turned off.
 Do NDO integrals.
 One-electron integrals computed using PRISM.
 NBasis=    44 RedAO= T EigKep=  1.00D+00  NBF=    33    11
 NBsUse=    44 1.00D-06 EigRej= -1.00D+00 NBFU=    33    11
 Initial guess from the checkpoint file:  "geometry_chks/_23456ClBzNeutralRadical.chk"
 B after Tr=    -0.000000    0.000000   -0.000000
         Rot=    0.707107    0.000000   -0.000000   -0.707107 Ang= -90.00 deg.
 Initial guess orbital symmetries:
 Alpha Orbitals:
       Occupied  (A') (A') (A') (A') (A') (A') (A') (A') (A') (A')
                 (A') (A') (A') (A') (A") (A') (A') (A") (A") (A")
                 (A') (A") (A') (A') (A') (A') (A") (A') (A") (A")
       Virtual   (A") (A") (A') (A') (A') (A') (A') (A") (A') (A')
                 (A') (A') (A') (A')
 Beta  Orbitals:
       Occupied  (A') (A') (A') (A') (A') (A') (A') (A') (A') (A')
                 (A') (A') (A') (A') (A") (A') (A') (A") (A") (A")
                 (A") (A') (A') (A') (A') (A') (A") (A") (A")
       Virtual   (A') (A") (A") (A') (A') (A') (A') (A') (A") (A')
                 (A') (A') (A') (A') (A')
 Initial guess <Sx>= 0.0000 <Sy>= 0.0000 <Sz>= 0.5000 <S**2>= 1.4545 S= 0.8056
 Keep J ints in memory in canonical form, NReq=865421.
 Overlap will be assumed to be unity.
 Requested convergence on RMS density matrix=1.00D-08 within  32 cycles.
 Requested convergence on MAX density matrix=1.00D-06.
 Requested convergence on             energy=1.00D-06.
 No special actions if energy rises.
 Fock symm off for IB=2 I1=    1 I=   34 J=   16 Cut=1.00D-07 Err=4.11D-04
 Fock matrix is not symmetric: symmetry in diagonalization turned off.
 SCF Done:  E(UAM1) =  0.757058526448E-01 A.U. after   14 cycles
            NFock= 13  Conv=0.75D-08     -V/T= 1.0005
 <Sx>= 0.0000 <Sy>= 0.0000 <Sz>= 0.5000 <S**2>= 1.4182 S= 0.7916
 <L.S>=  0.00000000000    
 Annihilation of the first spin contaminant:
 S**2 before annihilation     1.4182,   after     1.1636
 QCSCF skips out because SCF is already converged.
 Calling FoFJK, ICntrl=      2127 FMM=F ISym2X=1 I1Cent= 0 IOpClX= 1 NMat=1 NMatS=1 NMatT=0.
 ***** Axes restored to original set *****
 -------------------------------------------------------------------
 Center     Atomic                   Forces (Hartrees/Bohr)
 Number     Number              X              Y              Z
 -------------------------------------------------------------------
      1        6          -0.001577671   -0.000444231    0.000000000
      2        6           0.001871082   -0.000114054    0.000000000
      3        6          -0.001826614   -0.001122307   -0.000000000
      4        6           0.000743517    0.001720663    0.000000000
      5        6          -0.001108785   -0.001206933    0.000000000
      6        6           0.000220040    0.000135503   -0.000000000
      7       17          -0.000035420    0.000326780   -0.000000000
      8       17          -0.000172370    0.000732609    0.000000000
      9       17           0.001034964    0.000636081   -0.000000000
     10       17           0.000575797   -0.000484703   -0.000000000
     11       17           0.000275460   -0.000179408   -0.000000000
 -------------------------------------------------------------------
 Cartesian Forces:  Max     0.001871082 RMS     0.000776308

 GradGradGradGradGradGradGradGradGradGradGradGradGradGradGradGradGradGrad
 Berny optimization.
 Using GEDIIS/GDIIS optimizer.
 FormGI is forming the generalized inverse of G from B-inverse, IUseBI=4.
 Internal  Forces:  Max     0.001307053 RMS     0.000424773
 Search for a local minimum.
 Step number   4 out of a maximum of   57
 All quantities printed in internal units (Hartrees-Bohrs-Radians)
 Mixed Optimization -- En-DIIS/RFO-DIIS
 Update second derivatives using D2CorX and points    1    2    3    4
 DE= -2.72D-04 DEPred=-2.54D-04 R= 1.07D+00
 TightC=F SS=  1.41D+00  RLast= 3.39D-02 DXNew= 8.5831D-01 1.0167D-01
 Trust test= 1.07D+00 RLast= 3.39D-02 DXMaxT set to 5.10D-01
 ITU=  1  1  1  0
 Use linear search instead of GDIIS.
     Eigenvalues ---    0.02011   0.02011   0.02011   0.02011   0.02011
     Eigenvalues ---    0.02011   0.02011   0.02011   0.18492   0.24551
     Eigenvalues ---    0.25000   0.25000   0.25000   0.25000   0.25000
     Eigenvalues ---    0.25004   0.28516   0.29032   0.29033   0.29033
     Eigenvalues ---    0.29719   0.40759   0.41459   0.42857   0.44656
     Eigenvalues ---    0.44657   0.72903
 RFO step:  Lambda=-2.19681443D-05 EMin= 2.01065648D-02
 Quartic linear search produced a step of  0.06470.
 Iteration  1 RMS(Cart)=  0.00138596 RMS(Int)=  0.00000135
 Iteration  2 RMS(Cart)=  0.00000146 RMS(Int)=  0.00000007
 Iteration  3 RMS(Cart)=  0.00000000 RMS(Int)=  0.00000007
 ClnCor:  largest displacement from symmetrization is 2.39D-12 for atom    11.
 Variable       Old X    -DE/DX   Delta X   Delta X   Delta X     New X
                                 (Linear)    (Quad)   (Total)
    R1        2.68232   0.00131  -0.00045   0.00297   0.00253   2.68485
    R2        2.59429   0.00051  -0.00057   0.00092   0.00035   2.59464
    R3        3.16935   0.00017   0.00017  -0.00023  -0.00006   3.16929
    R4        2.67824  -0.00044  -0.00081  -0.00104  -0.00185   2.67639
    R5        3.18008   0.00074   0.00054   0.00171   0.00225   3.18233
    R6        2.67824  -0.00044  -0.00081  -0.00104  -0.00185   2.67639
    R7        3.18984   0.00121   0.00083   0.00335   0.00418   3.19402
    R8        2.68232   0.00131  -0.00045   0.00298   0.00253   2.68485
    R9        3.18008   0.00074   0.00054   0.00171   0.00225   3.18233
   R10        2.59429   0.00051  -0.00057   0.00092   0.00035   2.59464
   R11        3.16935   0.00017   0.00017  -0.00023  -0.00006   3.16930
    A1        2.00883  -0.00030  -0.00031  -0.00119  -0.00150   2.00734
    A2        2.15019  -0.00030  -0.00017  -0.00110  -0.00127   2.14892
    A3        2.12416   0.00059   0.00049   0.00228   0.00277   2.12693
    A4        2.08364   0.00004   0.00000  -0.00005  -0.00005   2.08359
    A5        2.09239  -0.00027  -0.00018  -0.00094  -0.00113   2.09126
    A6        2.10715   0.00022   0.00018   0.00100   0.00118   2.10833
    A7        2.12205   0.00039   0.00021   0.00127   0.00148   2.12353
    A8        2.08057  -0.00020  -0.00010  -0.00064  -0.00074   2.07983
    A9        2.08057  -0.00020  -0.00010  -0.00064  -0.00074   2.07983
   A10        2.08364   0.00004   0.00000  -0.00005  -0.00005   2.08359
   A11        2.10715   0.00022   0.00018   0.00100   0.00118   2.10833
   A12        2.09239  -0.00027  -0.00018  -0.00094  -0.00113   2.09126
   A13        2.00883  -0.00030  -0.00031  -0.00119  -0.00150   2.00734
   A14        2.15019  -0.00030  -0.00017  -0.00110  -0.00127   2.14892
   A15        2.12416   0.00059   0.00049   0.00228   0.00277   2.12693
   A16        2.25937   0.00011   0.00041   0.00121   0.00162   2.26099
    D1       -0.00000   0.00000   0.00000   0.00000   0.00000   0.00000
    D2        3.14159  -0.00000   0.00000  -0.00000   0.00000   3.14159
    D3        3.14159   0.00000   0.00000   0.00000   0.00000   3.14159
    D4       -0.00000   0.00000   0.00000   0.00000   0.00000   0.00000
    D5        0.00000   0.00000   0.00000   0.00000  -0.00000   0.00000
    D6        3.14159  -0.00000   0.00000  -0.00000   0.00000   3.14159
    D7        0.00000  -0.00000   0.00000  -0.00000   0.00000   0.00000
    D8        3.14159  -0.00000   0.00000  -0.00000   0.00000   3.14159
    D9        3.14159   0.00000   0.00000   0.00000   0.00000   3.14159
   D10       -0.00000  -0.00000   0.00000  -0.00000   0.00000   0.00000
   D11       -0.00000   0.00000   0.00000   0.00000   0.00000   0.00000
   D12        3.14159  -0.00000   0.00000  -0.00000   0.00000   3.14159
   D13        3.14159   0.00000   0.00000   0.00000   0.00000   3.14159
   D14       -0.00000   0.00000   0.00000   0.00000   0.00000   0.00000
   D15        0.00000   0.00000   0.00000   0.00000   0.00000   0.00000
   D16        3.14159  -0.00000   0.00000  -0.00000   0.00000   3.14159
   D17        3.14159   0.00000   0.00000   0.00000   0.00000   3.14159
   D18       -0.00000  -0.00000   0.00000  -0.00000   0.00000   0.00000
   D19       -0.00000  -0.00000   0.00000  -0.00000   0.00000   0.00000
   D20        3.14159   0.00000   0.00000   0.00000   0.00000   3.14159
         Item               Value     Threshold  Converged?
 Maximum Force            0.001307     0.000450     NO 
 RMS     Force            0.000425     0.000300     NO 
 Maximum Displacement     0.005372     0.001800     NO 
 RMS     Displacement     0.001385     0.001200     NO 
 Predicted change in Energy=-1.204946D-05
 GradGradGradGradGradGradGradGradGradGradGradGradGradGradGradGradGradGrad

                          Input orientation:                          
 ---------------------------------------------------------------------
 Center     Atomic      Atomic             Coordinates (Angstroms)
 Number     Number       Type             X           Y           Z
 ---------------------------------------------------------------------
      1          6           0       -3.219763    0.221775   -0.000000
      2          6           0       -2.006531    0.961116   -0.000000
      3          6           0       -0.770958    0.268852    0.000000
      4          6           0       -0.711450   -1.146185    0.000000
      5          6           0       -1.919085   -1.894633    0.000000
      6          6           0       -3.067997   -1.142836   -0.000000
      7         17           0       -4.733279    0.944267   -0.000000
      8         17           0       -2.051718    2.644525   -0.000000
      9         17           0        0.669042    1.153831    0.000000
     10         17           0        0.770025   -1.946896    0.000000
     11         17           0       -1.958156   -3.571297    0.000000
 ---------------------------------------------------------------------
                    Distance matrix (angstroms):
                    1          2          3          4          5
     1  C    0.000000
     2  C    1.420760   0.000000
     3  C    2.449257   1.416287   0.000000
     4  C    2.857088   2.473449   1.416287   0.000000
     5  C    2.484139   2.857088   2.449257   1.420760   0.000000
     6  C    1.373025   2.356549   2.696154   2.356549   1.373025
     7  Cl   1.677119   2.726801   4.019474   4.532671   3.997380
     8  Cl   2.689618   1.684015   2.698920   4.020671   4.541095
     9  Cl   3.998941   2.682504   1.690204   2.682504   3.998941
    10  Cl   4.541095   4.020672   2.698920   1.684015   2.689618
    11  Cl   3.997380   4.532671   4.019475   2.726801   1.677119
                    6          7          8          9         10
     6  C    0.000000
     7  Cl   2.670050   0.000000
     8  Cl   3.921342   3.175161   0.000000
     9  Cl   4.386358   5.406384   3.102371   0.000000
    10  Cl   3.921342   6.216526   5.389191   3.102371   0.000000
    11  Cl   2.670050   5.300154   6.216526   5.406385   3.175162
                   11
    11  Cl   0.000000
 Stoichiometry    C6Cl5(2)
 Framework group  CS[SG(C6Cl5)]
 Deg. of freedom    19
 Full point group                 CS      NOp   2
 Largest Abelian subgroup         CS      NOp   2
 Largest concise Abelian subgroup C1      NOp   1
                         Standard orientation:                         
 ---------------------------------------------------------------------
 Center     Atomic      Atomic             Coordinates (Angstroms)
 Number     Number       Type             X           Y           Z
 ---------------------------------------------------------------------
      1          6           0       -1.130645    1.242070   -0.000000
      2          6           0        0.290105    1.236725   -0.000000
      3          6           0        0.980308   -0.000000   -0.000000
      4          6           0        0.290105   -1.236725    0.000000
      5          6           0       -1.130645   -1.242070    0.000000
      6          6           0       -1.715846    0.000000    0.000000
      7         17           0       -2.041821    2.650077   -0.000000
      8         17           0        1.133028    2.694596   -0.000000
      9         17           0        2.670512    0.000000   -0.000000
     10         17           0        1.133028   -2.694596    0.000000
     11         17           0       -2.041822   -2.650077    0.000000
 ---------------------------------------------------------------------
 Rotational constants (GHZ):           0.7115011           0.4711252           0.2834421
 Standard basis: VSTO-6G (5D, 7F)
 There are    33 symmetry adapted cartesian basis functions of A'  symmetry.
 There are    11 symmetry adapted cartesian basis functions of A"  symmetry.
 There are    33 symmetry adapted basis functions of A'  symmetry.
 There are    11 symmetry adapted basis functions of A"  symmetry.
    44 basis functions,   264 primitive gaussians,    44 cartesian basis functions
    30 alpha electrons       29 beta electrons
       nuclear repulsion energy       353.5004676584 Hartrees.
 Integral buffers will be    131072 words long.
 Regular integral format.
 Two-electron integral symmetry is turned off.
 Do NDO integrals.
 One-electron integrals computed using PRISM.
 NBasis=    44 RedAO= T EigKep=  1.00D+00  NBF=    33    11
 NBsUse=    44 1.00D-06 EigRej= -1.00D+00 NBFU=    33    11
 Initial guess from the checkpoint file:  "geometry_chks/_23456ClBzNeutralRadical.chk"
 B after Tr=     0.000000   -0.000000    0.000000
         Rot=    0.707107    0.000000   -0.000000   -0.707107 Ang= -90.00 deg.
 Initial guess orbital symmetries:
 Alpha Orbitals:
       Occupied  (A') (A') (A') (A') (A') (A') (A') (A') (A') (A')
                 (A') (A') (A') (A') (A") (A') (A') (A") (A") (A")
                 (A') (A") (A') (A') (A') (A') (A") (A') (A") (A")
       Virtual   (A") (A") (A') (A') (A') (A') (A') (A") (A') (A')
                 (A') (A') (A') (A')
 Beta  Orbitals:
       Occupied  (A') (A') (A') (A') (A') (A') (A') (A') (A') (A')
                 (A') (A') (A') (A') (A") (A') (A') (A") (A") (A")
                 (A") (A') (A') (A') (A') (A') (A") (A") (A")
       Virtual   (A') (A") (A") (A') (A') (A') (A') (A') (A") (A')
                 (A') (A') (A') (A') (A')
 Initial guess <Sx>= 0.0000 <Sy>= 0.0000 <Sz>= 0.5000 <S**2>= 1.4182 S= 0.7916
 Keep J ints in memory in canonical form, NReq=865421.
 Overlap will be assumed to be unity.
 Requested convergence on RMS density matrix=1.00D-08 within  32 cycles.
 Requested convergence on MAX density matrix=1.00D-06.
 Requested convergence on             energy=1.00D-06.
 No special actions if energy rises.
 Fock symm off for IB=2 I1=    1 I=   34 J=   24 Cut=1.00D-07 Err=1.58D-04
[...]
    R5        3.18233  -0.00006   0.00048  -0.00074  -0.00026   3.18207
    R6        2.67639  -0.00001  -0.00040   0.00017  -0.00022   2.67617
    R7        3.19402   0.00010   0.00089  -0.00035   0.00055   3.19457
    R8        2.68485   0.00025   0.00054   0.00017   0.00071   2.68556
    R9        3.18233  -0.00006   0.00048  -0.00074  -0.00026   3.18207
   R10        2.59464   0.00006   0.00007  -0.00010  -0.00002   2.59462
   R11        3.16930  -0.00006  -0.00001  -0.00043  -0.00044   3.16886
    A1        2.00734  -0.00003  -0.00032  -0.00004  -0.00036   2.00697
    A2        2.14892  -0.00011  -0.00027  -0.00026  -0.00054   2.14838
    A3        2.12693   0.00014   0.00059   0.00031   0.00090   2.12783
    A4        2.08359  -0.00003  -0.00001  -0.00018  -0.00019   2.08341
    A5        2.09126  -0.00008  -0.00024  -0.00018  -0.00042   2.09084
    A6        2.10833   0.00011   0.00025   0.00036   0.00061   2.10894
    A7        2.12353   0.00009   0.00032   0.00019   0.00050   2.12403
    A8        2.07983  -0.00004  -0.00016  -0.00009  -0.00025   2.07958
    A9        2.07983  -0.00004  -0.00016  -0.00009  -0.00025   2.07958
   A10        2.08359  -0.00003  -0.00001  -0.00018  -0.00019   2.08341
   A11        2.10833   0.00011   0.00025   0.00036   0.00061   2.10894
   A12        2.09126  -0.00008  -0.00024  -0.00018  -0.00042   2.09084
   A13        2.00734  -0.00003  -0.00032  -0.00004  -0.00036   2.00697
   A14        2.14892  -0.00011  -0.00027  -0.00026  -0.00054   2.14838
   A15        2.12693   0.00014   0.00059   0.00031   0.00090   2.12783
   A16        2.26099   0.00004   0.00035   0.00025   0.00060   2.26158
    D1       -0.00000  -0.00000   0.00000  -0.00000   0.00000   0.00000
    D2        3.14159  -0.00000   0.00000  -0.00000   0.00000   3.14159
    D3        3.14159   0.00000   0.00000   0.00000   0.00000   3.14159
    D4        0.00000  -0.00000   0.00000  -0.00000  -0.00000   0.00000
    D5        0.00000   0.00000   0.00000   0.00000  -0.00000   0.00000
    D6        3.14159  -0.00000   0.00000  -0.00000   0.00000   3.14159
    D7        0.00000  -0.00000   0.00000  -0.00000  -0.00000   0.00000
    D8        3.14159  -0.00000   0.00000  -0.00000   0.00000   3.14159
    D9        3.14159   0.00000   0.00000   0.00000   0.00000   3.14159
   D10       -0.00000  -0.00000   0.00000  -0.00000   0.00000   0.00000
   D11       -0.00000   0.00000   0.00000   0.00000   0.00000   0.00000
   D12        3.14159  -0.00000   0.00000  -0.00000   0.00000   3.14159
   D13        3.14159   0.00000   0.00000   0.00000   0.00000   3.14159
   D14       -0.00000   0.00000   0.00000   0.00000   0.00000   0.00000
   D15        0.00000  -0.00000   0.00000  -0.00000   0.00000   0.00000
   D16        3.14159  -0.00000   0.00000  -0.00000   0.00000   3.14159
   D17        3.14159   0.00000   0.00000   0.00000   0.00000   3.14159
   D18        0.00000   0.00000   0.00000   0.00000   0.00000   0.00000
   D19       -0.00000   0.00000   0.00000   0.00000   0.00000   0.00000
   D20        3.14159   0.00000   0.00000   0.00000   0.00000   3.14159
         Item               Value     Threshold  Converged?
 Maximum Force            0.000254     0.000450     YES
 RMS     Force            0.000077     0.000300     YES
 Maximum Displacement     0.001644     0.001800     YES
 RMS     Displacement     0.000429     0.001200     YES
 Predicted change in Energy=-6.034889D-07
 Optimization completed.
    -- Stationary point found.
                           ----------------------------
                           !   Optimized Parameters   !
                           ! (Angstroms and Degrees)  !
 --------------------------                            --------------------------
 ! Name  Definition              Value          Derivative Info.                !
 --------------------------------------------------------------------------------
 ! R1    R(1,2)                  1.4208         -DE/DX =    0.0003              !
 ! R2    R(1,6)                  1.373          -DE/DX =    0.0001              !
 ! R3    R(1,7)                  1.6771         -DE/DX =   -0.0001              !
 ! R4    R(2,3)                  1.4163         -DE/DX =    0.0                 !
 ! R5    R(2,8)                  1.684          -DE/DX =   -0.0001              !
 ! R6    R(3,4)                  1.4163         -DE/DX =    0.0                 !
 ! R7    R(3,9)                  1.6902         -DE/DX =    0.0001              !
 ! R8    R(4,5)                  1.4208         -DE/DX =    0.0003              !
 ! R9    R(4,10)                 1.684          -DE/DX =   -0.0001              !
 ! R10   R(5,6)                  1.373          -DE/DX =    0.0001              !
 ! R11   R(5,11)                 1.6771         -DE/DX =   -0.0001              !
 ! A1    A(2,1,6)              115.0119         -DE/DX =    0.0                 !
 ! A2    A(2,1,7)              123.124          -DE/DX =   -0.0001              !
 ! A3    A(6,1,7)              121.8641         -DE/DX =    0.0001              !
 ! A4    A(1,2,3)              119.381          -DE/DX =    0.0                 !
 ! A5    A(1,2,8)              119.8204         -DE/DX =   -0.0001              !
 ! A6    A(3,2,8)              120.7986         -DE/DX =    0.0001              !
 ! A7    A(2,3,4)              121.6691         -DE/DX =    0.0001              !
 ! A8    A(2,3,9)              119.1654         -DE/DX =    0.0                 !
 ! A9    A(4,3,9)              119.1655         -DE/DX =    0.0                 !
 ! A10   A(3,4,5)              119.381          -DE/DX =    0.0                 !
 ! A11   A(3,4,10)             120.7986         -DE/DX =    0.0001              !
 ! A12   A(5,4,10)             119.8204         -DE/DX =   -0.0001              !
 ! A13   A(4,5,6)              115.0119         -DE/DX =    0.0                 !
 ! A14   A(4,5,11)             123.124          -DE/DX =   -0.0001              !
 ! A15   A(6,5,11)             121.8641         -DE/DX =    0.0001              !
 ! A16   A(1,6,5)              129.5451         -DE/DX =    0.0                 !
 ! D1    D(6,1,2,3)              0.0            -DE/DX =    0.0                 !
 ! D2    D(6,1,2,8)            180.0            -DE/DX =    0.0                 !
 ! D3    D(7,1,2,3)            180.0            -DE/DX =    0.0                 !
 ! D4    D(7,1,2,8)              0.0            -DE/DX =    0.0                 !
 ! D5    D(2,1,6,5)              0.0            -DE/DX =    0.0                 !
 ! D6    D(7,1,6,5)            180.0            -DE/DX =    0.0                 !
 ! D7    D(1,2,3,4)              0.0            -DE/DX =    0.0                 !
 ! D8    D(1,2,3,9)            180.0            -DE/DX =    0.0                 !
 ! D9    D(8,2,3,4)            180.0            -DE/DX =    0.0                 !
 ! D10   D(8,2,3,9)              0.0            -DE/DX =    0.0                 !
 ! D11   D(2,3,4,5)              0.0            -DE/DX =    0.0                 !
 ! D12   D(2,3,4,10)           180.0            -DE/DX =    0.0                 !
 ! D13   D(9,3,4,5)            180.0            -DE/DX =    0.0                 !
 ! D14   D(9,3,4,10)             0.0            -DE/DX =    0.0                 !
 ! D15   D(3,4,5,6)              0.0            -DE/DX =    0.0                 !
 ! D16   D(3,4,5,11)           180.0            -DE/DX =    0.0                 !
 ! D17   D(10,4,5,6)           180.0            -DE/DX =    0.0                 !
 ! D18   D(10,4,5,11)            0.0            -DE/DX =    0.0                 !
 ! D19   D(4,5,6,1)              0.0            -DE/DX =    0.0                 !
 ! D20   D(11,5,6,1)           180.0            -DE/DX =    0.0                 !
 --------------------------------------------------------------------------------
 GradGradGradGradGradGradGradGradGradGradGradGradGradGradGradGradGradGrad

                          Input orientation:                          
 ---------------------------------------------------------------------
 Center     Atomic      Atomic             Coordinates (Angstroms)
 Number     Number       Type             X           Y           Z
 ---------------------------------------------------------------------
      1          6           0       -3.219763    0.221775    0.000000
      2          6           0       -2.006531    0.961116    0.000000
      3          6           0       -0.770958    0.268852    0.000000
      4          6           0       -0.711450   -1.146185   -0.000000
      5          6           0       -1.919085   -1.894633   -0.000000
      6          6           0       -3.067997   -1.142836   -0.000000
      7         17           0       -4.733279    0.944267    0.000000
      8         17           0       -2.051718    2.644525    0.000000
      9         17           0        0.669042    1.153831    0.000000
     10         17           0        0.770025   -1.946896   -0.000000
     11         17           0       -1.958156   -3.571297   -0.000000
 ---------------------------------------------------------------------
                    Distance matrix (angstroms):
                    1          2          3          4          5
     1  C    0.000000
     2  C    1.420760   0.000000
     3  C    2.449257   1.416287   0.000000
     4  C    2.857088   2.473449   1.416287   0.000000
     5  C    2.484139   2.857088   2.449257   1.420760   0.000000
     6  C    1.373025   2.356549   2.696154   2.356549   1.373025
     7  Cl   1.677119   2.726801   4.019474   4.532671   3.997380
     8  Cl   2.689618   1.684015   2.698920   4.020671   4.541095
     9  Cl   3.998941   2.682504   1.690204   2.682504   3.998941
    10  Cl   4.541095   4.020672   2.698920   1.684015   2.689618
    11  Cl   3.997380   4.532671   4.019475   2.726801   1.677119
                    6          7          8          9         10
     6  C    0.000000
     7  Cl   2.670050   0.000000
     8  Cl   3.921342   3.175161   0.000000
     9  Cl   4.386358   5.406384   3.102371   0.000000
    10  Cl   3.921342   6.216526   5.389191   3.102371   0.000000
    11  Cl   2.670050   5.300154   6.216526   5.406385   3.175162
                   11
    11  Cl   0.000000
 Stoichiometry    C6Cl5(2)
 Framework group  CS[SG(C6Cl5)]
 Deg. of freedom    19
 Full point group                 CS      NOp   2
 Largest Abelian subgroup         CS      NOp   2
 Largest concise Abelian subgroup C1      NOp   1
                         Standard orientation:                         
 ---------------------------------------------------------------------
 Center     Atomic      Atomic             Coordinates (Angstroms)
 Number     Number       Type             X           Y           Z
 ---------------------------------------------------------------------
      1          6           0       -1.130645    1.242070   -0.000000
      2          6           0        0.290105    1.236725   -0.000000
      3          6           0        0.980308   -0.000000   -0.000000
      4          6           0        0.290105   -1.236725    0.000000
      5          6           0       -1.130645   -1.242070    0.000000
      6          6           0       -1.715846    0.000000    0.000000
      7         17           0       -2.041821    2.650077   -0.000000
      8         17           0        1.133028    2.694596   -0.000000
      9         17           0        2.670512    0.000000   -0.000000
     10         17           0        1.133028   -2.694596    0.000000
     11         17           0       -2.041822   -2.650077    0.000000
 ---------------------------------------------------------------------
 Rotational constants (GHZ):           0.7115011           0.4711252           0.2834421

 **********************************************************************

            Population analysis using the SCF Density.

 **********************************************************************

 Orbital symmetries:
 Alpha Orbitals:
       Occupied  (A') (A') (A') (A') (A') (A') (A') (A') (A') (A')
                 (A') (A') (A') (A') (A") (A') (A') (A") (A") (A")
                 (A') (A") (A') (A') (A') (A') (A") (A') (A") (A")
       Virtual   (A") (A") (A') (A') (A') (A') (A') (A") (A') (A')
                 (A') (A') (A') (A')
 Beta  Orbitals:
       Occupied  (A') (A') (A') (A') (A') (A') (A') (A') (A') (A')
                 (A') (A') (A') (A') (A") (A') (A') (A") (A") (A")
                 (A") (A') (A') (A') (A') (A') (A") (A") (A")
       Virtual   (A') (A") (A") (A') (A') (A') (A') (A') (A") (A')
                 (A') (A') (A') (A') (A')
 The electronic state is 2-A'.
 Alpha  occ. eigenvalues --   -1.49814  -1.43075  -1.41957  -1.40948  -1.40212
 Alpha  occ. eigenvalues --   -1.37637  -1.17284  -1.15835  -0.91592  -0.89486
 Alpha  occ. eigenvalues --   -0.71839  -0.67907  -0.66755  -0.61764  -0.60270
 Alpha  occ. eigenvalues --   -0.57958  -0.54871  -0.53617  -0.51701  -0.48780
 Alpha  occ. eigenvalues --   -0.48332  -0.48084  -0.46546  -0.46267  -0.45469
 Alpha  occ. eigenvalues --   -0.44661  -0.43637  -0.42022  -0.38584  -0.37169
 Alpha virt. eigenvalues --   -0.02748  -0.02183   0.00944   0.01774   0.02220
 Alpha virt. eigenvalues --    0.04050   0.04163   0.05054   0.10953   0.11104
 Alpha virt. eigenvalues --    0.12105   0.13174   0.14494   0.14855
  Beta  occ. eigenvalues --   -1.49265  -1.43020  -1.42055  -1.40857  -1.40145
  Beta  occ. eigenvalues --   -1.37157  -1.17081  -1.14404  -0.91274  -0.87331
  Beta  occ. eigenvalues --   -0.71886  -0.67504  -0.65254  -0.61595  -0.60094
  Beta  occ. eigenvalues --   -0.57429  -0.54543  -0.53606  -0.52521  -0.48750
  Beta  occ. eigenvalues --   -0.48003  -0.46934  -0.46432  -0.46156  -0.45291
  Beta  occ. eigenvalues --   -0.44619  -0.43116  -0.37693  -0.37137
  Beta virt. eigenvalues --   -0.03126  -0.02757  -0.00700   0.00616   0.02162
  Beta virt. eigenvalues --    0.02322   0.04077   0.04398   0.06077   0.11531
  Beta virt. eigenvalues --    0.11546   0.13051   0.13330   0.14895   0.16902
          Condensed to atoms (all electrons):
               1          2          3          4          5          6
     1  C    4.048050   0.000000   0.000000   0.000000   0.000000   0.000000
     2  C    0.000000   4.060456   0.000000   0.000000   0.000000   0.000000
     3  C    0.000000   0.000000   4.064275   0.000000   0.000000   0.000000
     4  C    0.000000   0.000000   0.000000   4.060456   0.000000   0.000000
     5  C    0.000000   0.000000   0.000000   0.000000   4.048050   0.000000
     6  C    0.000000   0.000000   0.000000   0.000000   0.000000   4.028436
     7  Cl   0.000000   0.000000   0.000000   0.000000   0.000000   0.000000
     8  Cl   0.000000   0.000000   0.000000   0.000000   0.000000   0.000000
     9  Cl   0.000000   0.000000   0.000000   0.000000   0.000000   0.000000
    10  Cl   0.000000   0.000000   0.000000   0.000000   0.000000   0.000000
    11  Cl   0.000000   0.000000   0.000000   0.000000   0.000000   0.000000
               7          8          9         10         11
     1  C    0.000000   0.000000   0.000000   0.000000   0.000000
     2  C    0.000000   0.000000   0.000000   0.000000   0.000000
     3  C    0.000000   0.000000   0.000000   0.000000   0.000000
     4  C    0.000000   0.000000   0.000000   0.000000   0.000000
     5  C    0.000000   0.000000   0.000000   0.000000   0.000000
     6  C    0.000000   0.000000   0.000000   0.000000   0.000000
     7  Cl   6.929535   0.000000   0.000000   0.000000   0.000000
     8  Cl   0.000000   6.941403   0.000000   0.000000   0.000000
     9  Cl   0.000000   0.000000   6.948401   0.000000   0.000000
    10  Cl   0.000000   0.000000   0.000000   6.941403   0.000000
    11  Cl   0.000000   0.000000   0.000000   0.000000   6.929535
          Atomic-Atomic Spin Densities.
               1          2          3          4          5          6
     1  C   -0.530383   0.000000   0.000000   0.000000   0.000000   0.000000
     2  C    0.000000   0.549960   0.000000   0.000000   0.000000   0.000000
     3  C    0.000000   0.000000  -0.510599   0.000000   0.000000   0.000000
     4  C    0.000000   0.000000   0.000000   0.549960   0.000000   0.000000
     5  C    0.000000   0.000000   0.000000   0.000000  -0.530383   0.000000
     6  C    0.000000   0.000000   0.000000   0.000000   0.000000   1.444965
     7  Cl   0.000000   0.000000   0.000000   0.000000   0.000000   0.000000
     8  Cl   0.000000   0.000000   0.000000   0.000000   0.000000   0.000000
     9  Cl   0.000000   0.000000   0.000000   0.000000   0.000000   0.000000
    10  Cl   0.000000   0.000000   0.000000   0.000000   0.000000   0.000000
    11  Cl   0.000000   0.000000   0.000000   0.000000   0.000000   0.000000
               7          8          9         10         11
     1  C    0.000000   0.000000   0.000000   0.000000   0.000000
     2  C    0.000000   0.000000   0.000000   0.000000   0.000000
     3  C    0.000000   0.000000   0.000000   0.000000   0.000000
     4  C    0.000000   0.000000   0.000000   0.000000   0.000000
     5  C    0.000000   0.000000   0.000000   0.000000   0.000000
     6  C    0.000000   0.000000   0.000000   0.000000   0.000000
     7  Cl  -0.002770   0.000000   0.000000   0.000000   0.000000
     8  Cl   0.000000   0.019275   0.000000   0.000000   0.000000
     9  Cl   0.000000   0.000000  -0.006531   0.000000   0.000000
    10  Cl   0.000000   0.000000   0.000000   0.019275   0.000000
    11  Cl   0.000000   0.000000   0.000000   0.000000  -0.002770
 Mulliken charges and spin densities:
               1          2
     1  C   -0.048050  -0.530383
     2  C   -0.060456   0.549960
     3  C   -0.064275  -0.510599
     4  C   -0.060456   0.549960
     5  C   -0.048050  -0.530383
     6  C   -0.028436   1.444965
     7  Cl   0.070465  -0.002770
     8  Cl   0.058597   0.019275
     9  Cl   0.051599  -0.006531
    10  Cl   0.058597   0.019275
    11  Cl   0.070465  -0.002770
 Sum of Mulliken charges =   0.00000   1.00000
 Mulliken charges and spin densities with hydrogens summed into heavy atoms:
               1          2
     1  C   -0.048050  -0.530383
     2  C   -0.060456   0.549960
     3  C   -0.064275  -0.510599
     4  C   -0.060456   0.549960
     5  C   -0.048050  -0.530383
     6  C   -0.028436   1.444965
     7  Cl   0.070465  -0.002770
     8  Cl   0.058597   0.019275
     9  Cl   0.051599  -0.006531
    10  Cl   0.058597   0.019275
    11  Cl   0.070465  -0.002770
 Charge=              0.0000 electrons
 Dipole moment (field-independent basis, Debye):
    X=              0.2453    Y=              0.0000    Z=              0.0000  Tot=              0.2453
 N-N= 3.535004676584D+02 E-N=-5.059792506406D+02  KE=-1.553180841069D+02
 Symmetry A'   KE=-1.182142961790D+02
 Symmetry A"   KE=-3.710378792798D+01
 Symmetry A'   SP= 1.000000000000D+00
 Symmetry A"   SP= 4.551914400963D-15
 1\1\GINC-SH04-01N20\FOpt\UAM1\ZDO\C6Cl5(2)\JLAPIER\09-Dec-2025\0\\# op
 t am1 SCF=XQC\\Neutral Radical (removed 1) _23456\\0,2\C,-3.2197629527
 ,0.221775424,0.\C,-2.0065306072,0.9611162563,0.\C,-0.7709584018,0.2688
 515696,0.\C,-0.7114497119,-1.1461847041,0.\C,-1.9190852026,-1.89463302
 16,0.\C,-3.0679967102,-1.1428357389,0.\Cl,-4.7332794815,0.9442674844,0
 .\Cl,-2.051717842,2.6445250774,0.\Cl,0.6690417768,1.1538306088,0.\Cl,0
 .7700253373,-1.9468963185,0.\Cl,-1.9581562041,-3.5712966373,0.\\Versio
 n=ES64L-G16RevB.01\State=2-A'\HF=0.0756922\S2=1.418717\S2-1=0.\S2A=1.1
 64363\RMSD=4.419e-09\RMSF=1.624e-04\Dipole=0.0822164,0.0505277,0.\PG=C
 S [SG(C6Cl5)]\\@


 HO!  SUCH BUGS AND GOBLINS IN MY LIFE!

                            -- HAMLET, ACT 5, SCENE 2
 Job cpu time:       0 days  0 hours  0 minutes  2.2 seconds.
 Elapsed time:       0 days  0 hours  0 minutes  5.9 seconds.
 File lengths (MBytes):  RWF=     15 Int=      0 D2E=      0 Chk=      2 Scr=      1
 Normal termination of Gaussian 16 at Tue Dec  9 09:58:42 2025.
