 Entering Gaussian System, Link 0=g16
 Initial command:
 /share/software/user/restricted/gaussian/g16.B01/l1.exe "/home/users/jlapier/Chloroaromatics/Gau-17592.inp" -scrdir="/home/users/jlapier/Chloroaromatics/"
 Entering Link 1 = /share/software/user/restricted/gaussian/g16.B01/l1.exe PID=     17614.
  
 Copyright (c) 1988-2017, Gaussian, Inc.  All Rights Reserved.
  
 This is part of the Gaussian(R) 16 program.  It is based on
 the Gaussian(R) 09 system (copyright 2009, Gaussian, Inc.),
 the Gaussian(R) 03 system (copyright 2003, Gaussian, Inc.),
 the Gaussian(R) 98 system (copyright 1998, Gaussian, Inc.),
 the Gaussian(R) 94 system (copyright 1995, Gaussian, Inc.),
 the Gaussian 92(TM) system (copyright 1992, Gaussian, Inc.),
 the Gaussian 90(TM) system (copyright 1990, Gaussian, Inc.),
 the Gaussian 88(TM) system (copyright 1988, Gaussian, Inc.),
 the Gaussian 86(TM) system (copyright 1986, Carnegie Mellon
 University), and the Gaussian 82(TM) system (copyright 1983,
 Carnegie Mellon University). Gaussian is a federally registered
 trademark of Gaussian, Inc.
  
 This software contains proprietary and confidential information,
 including trade secrets, belonging to Gaussian, Inc.
  
 This software is provided under written license and may be
 used, copied, transmitted, or stored only in accord with that
 written license.
  
 The following legend is applicable only to US Government
 contracts under FAR:
  
                    RESTRICTED RIGHTS LEGEND
  
 Use, reproduction and disclosure by the US Government is
 subject to restrictions as set forth in subparagraphs (a)
 and (c) of the Commercial Computer Software - Restricted
 Rights clause in FAR 52.227-19.
  
 Gaussian, Inc.
 340 Quinnipiac St., Bldg. 40, Wallingford CT 06492
  
  
 ---------------------------------------------------------------
 Warning -- This program may not be used in any manner that
 competes with the business of Gaussian, Inc. or will provide
 assistance to any competitor of Gaussian, Inc.  The licensee
 of this program is prohibited from giving any competitor of
 Gaussian, Inc. access to this program.  By using this program,
 the user acknowledges that Gaussian, Inc. is engaged in the
 business of creating and licensing software in the field of
 computational chemistry and represents and warrants to the
 licensee that it is not a competitor of Gaussian, Inc. and that
 it will not use this program in any manner prohibited above.
 ---------------------------------------------------------------
  

 Cite this work as:
 Gaussian 16, Revision B.01,
 M. J. Frisch, G. W. Trucks, H. B. Schlegel, G. E. Scuseria, 
 M. A. Robb, J. R. Cheeseman, G. Scalmani, V. Barone, 
 G. A. Petersson, H. Nakatsuji, X. Li, M. Caricato, A. V. Marenich, 
 J. Bloino, B. G. Janesko, R. Gomperts, B. Mennucci, H. P. Hratchian, 
 J. V. Ortiz, A. F. Izmaylov, J. L. Sonnenberg, D. Williams-Young, 
 F. Ding, F. Lipparini, F. Egidi, J. Goings, B. Peng, A. Petrone, 
 T. Henderson, D. Ranasinghe, V. G. Zakrzewski, J. Gao, N. Rega, 
 G. Zheng, W. Liang, M. Hada, M. Ehara, K. Toyota, R. Fukuda, 
 J. Hasegawa, M. Ishida, T. Nakajima, Y. Honda, O. Kitao, H. Nakai, 
 T. Vreven, K. Throssell, J. A. Montgomery, Jr., J. E. Peralta, 
 F. Ogliaro, M. J. Bearpark, J. J. Heyd, E. N. Brothers, K. N. Kudin, 
 V. N. Staroverov, T. A. Keith, R. Kobayashi, J. Normand, 
 K. Raghavachari, A. P. Rendell, J. C. Burant, S. S. Iyengar, 
 J. Tomasi, M. Cossi, J. M. Millam, M. Klene, C. Adamo, R. Cammi, 
 J. W. Ochterski, R. L. Martin, K. Morokuma, O. Farkas, 
 J. B. Foresman, and D. J. Fox, Gaussian, Inc., Wallingford CT, 2016.
 
 ******************************************
 Gaussian 16:  ES64L-G16RevB.01 20-Dec-2017
                 8-Dec-2025 
 ******************************************
 %mem=2GB
 %nprocshare=1
 Will use up to    1 processors via shared memory.
 %chk=geometry_chks/_235ClBzAnionIntermediate.chk
 ---------------------------
 # opt am1 SCF(maxcyc=10000)
 ---------------------------
 1/18=20,19=15,26=1,38=1/1,3;
 2/9=110,12=2,17=6,18=5,40=1/2;
 3/5=2,25=1,41=700000,71=1/1,2,3;
 4/35=1/1;
 5/5=2,7=10000,35=1,38=5/2;
 6/7=2,8=2,9=2,10=2,28=1/1;
 7//1,2,3,16;
 1/18=20,19=15,26=1/3(2);
 2/9=110/2;
 99//99;
 2/9=110/2;
 3/5=2,25=1,41=700000,71=1,135=20/1,2,3;
 4/5=5,16=3,35=1/1;
 5/5=2,7=10000,35=1,38=5/2;
 7//1,2,3,16;
 1/18=20,19=15,26=1/3(-5);
 2/9=110/2;
 6/7=2,8=2,9=2,10=2,19=2,28=1/1;
 99/9=1/99;
 -----------------------------------
 Anion Intermediate (removed 1) _235
 -----------------------------------
 Symbolic Z-matrix:
 Charge = -1 Multiplicity = 1
 C                    -3.20928   0.19943   0. 
 C                    -2.0115    0.93555   0. 
 C                    -0.77511   0.2663    0. 
 C                    -0.7365   -1.13907   0. 
 C                    -1.93429  -1.87519   0. 
 C                    -3.17067  -1.20594   0. 
 Cl                   -4.76193   1.03987   0. 
 Cl                    0.81614  -1.97951   0. 
 H                    -1.8858   -3.64003   0. 
 Cl                   -2.05998   2.7004    0. 
 H                     0.72905   1.19071   0. 
 
 Add virtual bond connecting atoms H9         and C5         Dist= 3.34D+00.
 Add virtual bond connecting atoms H11        and C3         Dist= 3.34D+00.

 GradGradGradGradGradGradGradGradGradGradGradGradGradGradGradGradGradGrad
 Berny optimization.
 Initialization pass.
                           ----------------------------
                           !    Initial Parameters    !
                           ! (Angstroms and Degrees)  !
 --------------------------                            --------------------------
 ! Name  Definition              Value          Derivative Info.                !
 --------------------------------------------------------------------------------
 ! R1    R(1,2)                  1.4059         estimate D2E/DX2                !
 ! R2    R(1,6)                  1.4059         estimate D2E/DX2                !
 ! R3    R(1,7)                  1.7655         estimate D2E/DX2                !
 ! R4    R(2,3)                  1.4059         estimate D2E/DX2                !
 ! R5    R(2,10)                 1.7655         estimate D2E/DX2                !
 ! R6    R(3,4)                  1.4059         estimate D2E/DX2                !
 ! R7    R(3,11)                 1.7655         estimate D2E/DX2                !
 ! R8    R(4,5)                  1.4059         estimate D2E/DX2                !
 ! R9    R(4,8)                  1.7655         estimate D2E/DX2                !
 ! R10   R(5,6)                  1.4059         estimate D2E/DX2                !
 ! R11   R(5,9)                  1.7655         estimate D2E/DX2                !
 ! A1    A(2,1,6)              119.9999         estimate D2E/DX2                !
 ! A2    A(2,1,7)              119.9999         estimate D2E/DX2                !
 ! A3    A(6,1,7)              120.0001         estimate D2E/DX2                !
 ! A4    A(1,2,3)              120.0            estimate D2E/DX2                !
 ! A5    A(1,2,10)             120.0001         estimate D2E/DX2                !
 ! A6    A(3,2,10)             119.9999         estimate D2E/DX2                !
 ! A7    A(2,3,4)              120.0001         estimate D2E/DX2                !
 ! A8    A(2,3,11)             120.0            estimate D2E/DX2                !
 ! A9    A(4,3,11)             119.9999         estimate D2E/DX2                !
 ! A10   A(3,4,5)              119.9997         estimate D2E/DX2                !
 ! A11   A(3,4,8)              120.0003         estimate D2E/DX2                !
 ! A12   A(5,4,8)              120.0            estimate D2E/DX2                !
 ! A13   A(4,5,6)              120.0            estimate D2E/DX2                !
 ! A14   A(4,5,9)              119.9996         estimate D2E/DX2                !
 ! A15   A(6,5,9)              120.0004         estimate D2E/DX2                !
 ! A16   A(1,6,5)              120.0003         estimate D2E/DX2                !
 ! D1    D(6,1,2,3)              0.0            estimate D2E/DX2                !
 ! D2    D(6,1,2,10)           180.0            estimate D2E/DX2                !
 ! D3    D(7,1,2,3)            180.0            estimate D2E/DX2                !
 ! D4    D(7,1,2,10)             0.0            estimate D2E/DX2                !
 ! D5    D(2,1,6,5)              0.0            estimate D2E/DX2                !
 ! D6    D(7,1,6,5)            180.0            estimate D2E/DX2                !
 ! D7    D(1,2,3,4)              0.0            estimate D2E/DX2                !
 ! D8    D(1,2,3,11)           180.0            estimate D2E/DX2                !
 ! D9    D(10,2,3,4)           180.0            estimate D2E/DX2                !
 ! D10   D(10,2,3,11)            0.0            estimate D2E/DX2                !
 ! D11   D(2,3,4,5)              0.0            estimate D2E/DX2                !
 ! D12   D(2,3,4,8)            180.0            estimate D2E/DX2                !
 ! D13   D(11,3,4,5)           180.0            estimate D2E/DX2                !
 ! D14   D(11,3,4,8)             0.0            estimate D2E/DX2                !
 ! D15   D(3,4,5,6)              0.0            estimate D2E/DX2                !
 ! D16   D(3,4,5,9)            180.0            estimate D2E/DX2                !
 ! D17   D(8,4,5,6)            180.0            estimate D2E/DX2                !
 ! D18   D(8,4,5,9)              0.0            estimate D2E/DX2                !
 ! D19   D(4,5,6,1)              0.0            estimate D2E/DX2                !
 ! D20   D(9,5,6,1)            180.0            estimate D2E/DX2                !
 --------------------------------------------------------------------------------
 Trust Radius=3.00D-01 FncErr=1.00D-07 GrdErr=1.00D-07 EigMax=2.50D+02 EigMin=1.00D-04
 Number of steps in this run=     57 maximum allowed number of steps=    100.
 GradGradGradGradGradGradGradGradGradGradGradGradGradGradGradGradGradGrad

                          Input orientation:                          
 ---------------------------------------------------------------------
 Center     Atomic      Atomic             Coordinates (Angstroms)
 Number     Number       Type             X           Y           Z
 ---------------------------------------------------------------------
      1          6           0       -3.209280    0.199430    0.000000
      2          6           0       -2.011500    0.935550    0.000000
      3          6           0       -0.775110    0.266300    0.000000
      4          6           0       -0.736500   -1.139070    0.000000
      5          6           0       -1.934290   -1.875190    0.000000
      6          6           0       -3.170670   -1.205940    0.000000
      7         17           0       -4.761930    1.039870    0.000000
      8         17           0        0.816140   -1.979510    0.000000
      9          1           0       -1.885800   -3.640030    0.000000
     10         17           0       -2.059980    2.700400    0.000000
     11          1           0        0.729050    1.190710    0.000000
 ---------------------------------------------------------------------
                    Distance matrix (angstroms):
                    1          2          3          4          5
     1  C    0.000000
     2  C    1.405898   0.000000
     3  C    2.435088   1.405900   0.000000
     4  C    2.811801   2.435092   1.405900   0.000000
     5  C    2.435087   2.811800   2.435093   1.405907   0.000000
     6  C    1.405900   2.435088   2.811796   2.435088   1.405892
     7  Cl   1.765520   2.752408   4.061175   4.577321   4.061173
     8  Cl   4.577312   4.061173   2.752406   1.765511   2.752408
     9  H    4.061164   4.577306   4.061163   2.752397   1.765506
    10  Cl   2.752406   1.765516   2.752405   4.061173   4.577316
    11  H    4.061167   2.752403   1.765512   2.752401   4.061173
                    6          7          8          9         10
     6  C    0.000000
     7  Cl   2.752412   0.000000
     8  Cl   4.061165   6.342832   0.000000
     9  H    2.752396   5.493049   3.171404   0.000000
    10  Cl   4.061173   3.171418   5.493052   6.342822   0.000000
    11  H    4.577308   5.493051   3.171416   5.493040   3.171412
                   11
    11  H    0.000000
 Stoichiometry    C6H2Cl3(1-)
 Framework group  CS[SG(C6H2Cl3)]
 Deg. of freedom    19
 Full point group                 CS      NOp   2
 Largest Abelian subgroup         CS      NOp   2
 Largest concise Abelian subgroup C1      NOp   1
                         Standard orientation:                         
 ---------------------------------------------------------------------
 Center     Atomic      Atomic             Coordinates (Angstroms)
 Number     Number       Type             X           Y           Z
 ---------------------------------------------------------------------
      1          6           0        0.524616   -1.138644    0.000000
      2          6           0       -0.692928   -0.435696    0.000000
      3          6           0       -0.692928    0.970205    0.000000
      4          6           0        0.524616    1.673157    0.000000
      5          6           0        1.742165    0.970200    0.000000
      6          6           0        1.742160   -0.435692    0.000000
      7         17           0        0.524616   -2.904164    0.000000
      8         17           0        0.524622    3.438668    0.000000
      9          1           0        3.271135    1.852959    0.000000
     10         17           0       -2.221911   -1.318451    0.000000
     11          1           0       -2.221906    1.852961    0.000000
 ---------------------------------------------------------------------
 Rotational constants (GHZ):           1.8580806           0.5750017           0.4391136
 Standard basis: VSTO-6G (5D, 7F)
 There are    29 symmetry adapted cartesian basis functions of A'  symmetry.
 There are     9 symmetry adapted cartesian basis functions of A"  symmetry.
 There are    29 symmetry adapted basis functions of A'  symmetry.
 There are     9 symmetry adapted basis functions of A"  symmetry.
    38 basis functions,   228 primitive gaussians,    38 cartesian basis functions
    24 alpha electrons       24 beta electrons
       nuclear repulsion energy       239.2473858783 Hartrees.
 Integral buffers will be    131072 words long.
 Regular integral format.
 Two-electron integral symmetry is turned off.
 Do NDO integrals.
 One-electron integrals computed using PRISM.
 NBasis=    38 RedAO= T EigKep=  1.00D+00  NBF=    29     9
 NBsUse=    38 1.00D-06 EigRej= -1.00D+00 NBFU=    29     9
 Simple Huckel Guess.
 Initial guess orbital symmetries:
       Occupied  (A') (A') (A') (A') (A') (A') (A') (A') (A') (A")
                 (A') (A') (A') (A') (A") (A") (A') (A") (A') (A')
                 (A') (A") (A") (A')
       Virtual   (A") (A') (A") (A') (A") (A') (A') (A') (A') (A')
                 (A') (A') (A') (A')
 The electronic state of the initial guess is 1-A'.
 Keep J ints in memory in canonical form, NReq=863588.
 Overlap will be assumed to be unity.
 Requested convergence on RMS density matrix=1.00D-08 within**** cycles.
 Requested convergence on MAX density matrix=1.00D-06.
 Requested convergence on             energy=1.00D-06.
 No special actions if energy rises.
 Fock symm off for IB=2 I1=    1 I=   30 J=   29 Cut=1.00D-07 Err=5.35D-03
 Fock matrix is not symmetric: symmetry in diagonalization turned off.
 SCF Done:  E(RAM1) =  0.275457894424     A.U. after   17 cycles
            NFock= 16  Conv=0.63D-08     -V/T= 1.0024

 **********************************************************************

            Population analysis using the SCF Density.

 **********************************************************************

 Orbital symmetries:
       Occupied  (A') (A') (A') (A') (A') (A') (A') (A') (A') (A')
                 (A') (A") (A') (A") (A") (A') (A') (A') (A') (A")
                 (A') (A") (A") (A')
       Virtual   (A') (A") (A') (A') (A") (A') (A') (A") (A') (A')
                 (A') (A') (A') (A')
 The electronic state is 1-A'.
 Alpha  occ. eigenvalues --   -1.26166  -1.23062  -1.21053  -1.18626  -0.95417
 Alpha  occ. eigenvalues --   -0.91763  -0.67050  -0.64673  -0.47029  -0.43736
 Alpha  occ. eigenvalues --   -0.42849  -0.38415  -0.37061  -0.34550  -0.31566
 Alpha  occ. eigenvalues --   -0.31452  -0.29593  -0.28279  -0.27816  -0.27486
 Alpha  occ. eigenvalues --   -0.23582  -0.18910  -0.17301  -0.12259
 Alpha virt. eigenvalues --    0.14085   0.16320   0.17272   0.18235   0.18251
 Alpha virt. eigenvalues --    0.19510   0.21707   0.27626   0.31742   0.32058
 Alpha virt. eigenvalues --    0.33735   0.34282   0.37156   0.39870
          Condensed to atoms (all electrons):
               1          2          3          4          5          6
     1  C    4.037871   0.000000   0.000000   0.000000   0.000000   0.000000
     2  C    0.000000   4.053728   0.000000   0.000000   0.000000   0.000000
     3  C    0.000000   0.000000   4.180599   0.000000   0.000000   0.000000
     4  C    0.000000   0.000000   0.000000   4.052970   0.000000   0.000000
     5  C    0.000000   0.000000   0.000000   0.000000   4.103237   0.000000
     6  C    0.000000   0.000000   0.000000   0.000000   0.000000   4.362187
     7  Cl   0.000000   0.000000   0.000000   0.000000   0.000000   0.000000
     8  Cl   0.000000   0.000000   0.000000   0.000000   0.000000   0.000000
     9  H    0.000000   0.000000   0.000000   0.000000   0.000000   0.000000
    10  Cl   0.000000   0.000000   0.000000   0.000000   0.000000   0.000000
    11  H    0.000000   0.000000   0.000000   0.000000   0.000000   0.000000
               7          8          9         10         11
     1  C    0.000000   0.000000   0.000000   0.000000   0.000000
     2  C    0.000000   0.000000   0.000000   0.000000   0.000000
     3  C    0.000000   0.000000   0.000000   0.000000   0.000000
     4  C    0.000000   0.000000   0.000000   0.000000   0.000000
     5  C    0.000000   0.000000   0.000000   0.000000   0.000000
     6  C    0.000000   0.000000   0.000000   0.000000   0.000000
     7  Cl   7.113951   0.000000   0.000000   0.000000   0.000000
     8  Cl   0.000000   7.140346   0.000000   0.000000   0.000000
     9  H    0.000000   0.000000   0.935597   0.000000   0.000000
    10  Cl   0.000000   0.000000   0.000000   7.123040   0.000000
    11  H    0.000000   0.000000   0.000000   0.000000   0.896473
 Mulliken charges:
               1
     1  C   -0.037871
     2  C   -0.053728
     3  C   -0.180599
     4  C   -0.052970
     5  C   -0.103237
     6  C   -0.362187
     7  Cl  -0.113951
     8  Cl  -0.140346
     9  H    0.064403
    10  Cl  -0.123040
    11  H    0.103527
 Sum of Mulliken charges =  -1.00000
 Mulliken charges with hydrogens summed into heavy atoms:
               1
     1  C   -0.037871
     2  C   -0.053728
     3  C   -0.077072
     4  C   -0.052970
     5  C   -0.038834
     6  C   -0.362187
     7  Cl  -0.113951
     8  Cl  -0.140346
    10  Cl  -0.123040
 Charge=             -1.0000 electrons
 Dipole moment (field-independent basis, Debye):
    X=             -4.4980    Y=              1.6683    Z=              0.0000  Tot=              4.7974
 N-N= 2.392473858783D+02 E-N=-3.383372112354D+02  KE=-1.136127256625D+02
 Symmetry A'   KE=-8.755515363449D+01
 Symmetry A"   KE=-2.605757202805D+01
 Calling FoFJK, ICntrl=      2127 FMM=F ISym2X=1 I1Cent= 0 IOpClX= 0 NMat=1 NMatS=1 NMatT=0.
 ***** Axes restored to original set *****
 -------------------------------------------------------------------
 Center     Atomic                   Forces (Hartrees/Bohr)
 Number     Number              X              Y              Z
 -------------------------------------------------------------------
      1        6          -0.002027425   -0.022809174    0.000000000
      2        6           0.018328027    0.014868449   -0.000000000
      3        6           0.060264971    0.040981653    0.000000000
      4        6           0.006223709   -0.009832118    0.000000000
      5        6          -0.012704816   -0.047949296    0.000000000
      6        6           0.022361337   -0.005250221    0.000000000
      7       17           0.023848518   -0.013954731   -0.000000000
      8       17          -0.019247443    0.013570911   -0.000000000
      9        1          -0.002534582    0.116016378   -0.000000000
     10       17           0.006128184   -0.023997563   -0.000000000
     11        1          -0.100640478   -0.061644288   -0.000000000
 -------------------------------------------------------------------
 Cartesian Forces:  Max     0.116016378 RMS     0.034308128

 GradGradGradGradGradGradGradGradGradGradGradGradGradGradGradGradGradGrad
 Berny optimization.
 FormGI is forming the generalized inverse of G from B-inverse, IUseBI=4.
 Internal  Forces:  Max     0.118019038 RMS     0.028241558
 Search for a local minimum.
 Step number   1 out of a maximum of   57
 All quantities printed in internal units (Hartrees-Bohrs-Radians)
 Mixed Optimization -- RFO/linear search
 Second derivative matrix not updated -- first step.
 ITU=  0
     Eigenvalues ---    0.02011   0.02011   0.02011   0.02011   0.02011
     Eigenvalues ---    0.02011   0.02011   0.02011   0.06524   0.06524
     Eigenvalues ---    0.16000   0.16000   0.23314   0.23491   0.25000
     Eigenvalues ---    0.25000   0.25000   0.25000   0.29033   0.29033
     Eigenvalues ---    0.29033   0.41085   0.41442   0.44656   0.44657
     Eigenvalues ---    0.44657   0.44657
 RFO step:  Lambda=-1.47852238D-01 EMin= 2.01065650D-02
 Linear search not attempted -- first point.
 Maximum step size (   0.300) exceeded in Quadratic search.
    -- Step size scaled by   0.375
 Iteration  1 RMS(Cart)=  0.04897663 RMS(Int)=  0.00123887
 Iteration  2 RMS(Cart)=  0.00119182 RMS(Int)=  0.00001367
 Iteration  3 RMS(Cart)=  0.00000009 RMS(Int)=  0.00001367
 ClnCor:  largest displacement from symmetrization is 1.52D-08 for atom    11.
 Variable       Old X    -DE/DX   Delta X   Delta X   Delta X     New X
                                 (Linear)    (Quad)   (Total)
    R1        2.65676  -0.00667   0.00000  -0.00367  -0.00370   2.65307
    R2        2.65677  -0.03132   0.00000  -0.01952  -0.01953   2.63724
    R3        3.33635  -0.02762   0.00000  -0.02361  -0.02361   3.31274
    R4        2.65677  -0.03855   0.00000  -0.02398  -0.02400   2.63277
    R5        3.33634  -0.02416   0.00000  -0.02065  -0.02065   3.31569
    R6        2.65677  -0.03537   0.00000  -0.02251  -0.02250   2.63426
    R7        3.33633  -0.11802   0.00000  -0.20747  -0.20747   3.12887
    R8        2.65678  -0.03163   0.00000  -0.02046  -0.02044   2.63634
    R9        3.33633  -0.02339   0.00000  -0.01999  -0.01999   3.31634
   R10        2.65675  -0.04616   0.00000  -0.02940  -0.02938   2.62737
   R11        3.33632  -0.11604   0.00000  -0.20399  -0.20399   3.13233
    A1        2.09439   0.00615   0.00000   0.00668   0.00665   2.10104
    A2        2.09439  -0.00154   0.00000  -0.00189  -0.00188   2.09252
    A3        2.09440  -0.00461   0.00000  -0.00478  -0.00477   2.08963
    A4        2.09439  -0.00794   0.00000  -0.00645  -0.00649   2.08791
    A5        2.09440   0.01309   0.00000   0.01181   0.01183   2.10623
    A6        2.09439  -0.00515   0.00000  -0.00536  -0.00534   2.08905
    A7        2.09440   0.00500   0.00000   0.00496   0.00495   2.09935
    A8        2.09440  -0.00279   0.00000  -0.00284  -0.00283   2.09156
    A9        2.09439  -0.00221   0.00000  -0.00212  -0.00212   2.09227
   A10        2.09439  -0.00811   0.00000  -0.00904  -0.00901   2.08538
   A11        2.09440  -0.00057   0.00000   0.00017   0.00015   2.09455
   A12        2.09440   0.00868   0.00000   0.00888   0.00886   2.10325
   A13        2.09439   0.01970   0.00000   0.01839   0.01843   2.11282
   A14        2.09439  -0.01094   0.00000  -0.01052  -0.01054   2.08385
   A15        2.09440  -0.00876   0.00000  -0.00787  -0.00789   2.08651
   A16        2.09440  -0.01480   0.00000  -0.01454  -0.01453   2.07987
    D1        0.00000  -0.00000   0.00000  -0.00000   0.00000   0.00000
    D2        3.14159  -0.00000   0.00000  -0.00000   0.00000   3.14159
    D3        3.14159   0.00000   0.00000   0.00000   0.00000   3.14159
    D4        0.00000   0.00000   0.00000  -0.00000   0.00000   0.00000
    D5        0.00000  -0.00000   0.00000  -0.00000   0.00000   0.00000
    D6        3.14159  -0.00000   0.00000  -0.00000   0.00000   3.14159
    D7        0.00000   0.00000   0.00000   0.00000   0.00000   0.00000
    D8        3.14159  -0.00000   0.00000  -0.00000   0.00000   3.14159
    D9        3.14159   0.00000   0.00000   0.00000   0.00000   3.14159
   D10        0.00000  -0.00000   0.00000  -0.00000   0.00000   0.00000
   D11        0.00000  -0.00000   0.00000  -0.00000   0.00000   0.00000
   D12        3.14159  -0.00000   0.00000  -0.00000   0.00000   3.14159
   D13        3.14159   0.00000   0.00000   0.00000   0.00000   3.14159
   D14        0.00000   0.00000   0.00000   0.00000   0.00000   0.00000
   D15        0.00000  -0.00000   0.00000  -0.00000   0.00000   0.00000
   D16        3.14159  -0.00000   0.00000  -0.00000   0.00000   3.14159
   D17        3.14159   0.00000   0.00000   0.00000   0.00000   3.14159
   D18        0.00000  -0.00000   0.00000  -0.00000   0.00000   0.00000
   D19        0.00000   0.00000   0.00000   0.00000   0.00000   0.00000
   D20        3.14159   0.00000   0.00000   0.00000   0.00000   3.14159
         Item               Value     Threshold  Converged?
 Maximum Force            0.118019     0.000450     NO 
 RMS     Force            0.028242     0.000300     NO 
 Maximum Displacement     0.235482     0.001800     NO 
 RMS     Displacement     0.050058     0.001200     NO 
 Predicted change in Energy=-5.166500D-02
 GradGradGradGradGradGradGradGradGradGradGradGradGradGradGradGradGradGrad

                          Input orientation:                          
 ---------------------------------------------------------------------
 Center     Atomic      Atomic             Coordinates (Angstroms)
 Number     Number       Type             X           Y           Z
 ---------------------------------------------------------------------
      1          6           0       -3.193651    0.183998    0.000000
      2          6           0       -2.000335    0.923627    0.000000
      3          6           0       -0.776904    0.257123    0.000000
      4          6           0       -0.735473   -1.136254    0.000000
      5          6           0       -1.928951   -1.858670    0.000000
      6          6           0       -3.159302   -1.211146    0.000000
      7         17           0       -4.736910    1.015535    0.000000
      8         17           0        0.809621   -1.968402    0.000000
      9          1           0       -1.877148   -3.515418    0.000000
     10         17           0       -2.034417    2.677883    0.000000
     11          1           0        0.633600    1.124245    0.000000
 ---------------------------------------------------------------------
                    Distance matrix (angstroms):
                    1          2          3          4          5
     1  C    0.000000
     2  C    1.403943   0.000000
     3  C    2.417853   1.393202   0.000000
     4  C    2.790288   2.417227   1.393993   0.000000
     5  C    2.402490   2.783213   2.409106   1.395090   0.000000
     6  C    1.395567   2.429087   2.798506   2.424986   1.390342
     7  Cl   1.753027   2.738119   4.031977   4.543314   4.018170
     8  Cl   4.545219   4.032330   2.733134   1.754931   2.740770
     9  H    3.926685   4.440754   3.929708   2.638910   1.657558
    10  Cl   2.750144   1.754587   2.727897   4.029256   4.537779
    11  H    3.941055   2.641564   1.655724   2.642767   3.932486
                    6          7          8          9         10
     6  C    0.000000
     7  Cl   2.728911   0.000000
     8  Cl   4.040518   6.298245   0.000000
     9  H    2.636966   5.357964   3.100321   0.000000
    10  Cl   4.048446   3.172833   5.447616   6.195298   0.000000
    11  H    4.454229   5.371610   3.097652   5.275446   3.087411
                   11
    11  H    0.000000
 Stoichiometry    C6H2Cl3(1-)
 Framework group  CS[SG(C6H2Cl3)]
 Deg. of freedom    19
 Full point group                 CS      NOp   2
 Largest Abelian subgroup         CS      NOp   2
 Largest concise Abelian subgroup C1      NOp   1
                         Standard orientation:                         
 ---------------------------------------------------------------------
 Center     Atomic      Atomic             Coordinates (Angstroms)
 Number     Number       Type             X           Y           Z
 ---------------------------------------------------------------------
      1          6           0        1.238496   -0.153040   -0.000000
      2          6           0        0.000000   -0.814239   -0.000000
      3          6           0       -1.177941   -0.070286    0.000000
      4          6           0       -1.129502    1.322865    0.000000
      5          6           0        0.108046    1.966876   -0.000000
      6          6           0        1.294116    1.241418   -0.000000
      7         17           0        2.724966   -1.082291   -0.000000
      8         17           0       -2.617764    2.252844    0.000000
      9          1           0        0.163107    3.623519   -0.000000
     10         17           0       -0.079027   -2.567046    0.000000
     11          1           0       -2.641388   -0.844718    0.000000
 ---------------------------------------------------------------------
 Rotational constants (GHZ):           1.8709123           0.5849604           0.4456296
 Standard basis: VSTO-6G (5D, 7F)
 There are    29 symmetry adapted cartesian basis functions of A'  symmetry.
 There are     9 symmetry adapted cartesian basis functions of A"  symmetry.
 There are    29 symmetry adapted basis functions of A'  symmetry.
 There are     9 symmetry adapted basis functions of A"  symmetry.
    38 basis functions,   228 primitive gaussians,    38 cartesian basis functions
    24 alpha electrons       24 beta electrons
       nuclear repulsion energy       240.5397960581 Hartrees.
 Integral buffers will be    131072 words long.
 Regular integral format.
 Two-electron integral symmetry is turned off.
 Do NDO integrals.
 One-electron integrals computed using PRISM.
 NBasis=    38 RedAO= T EigKep=  1.00D+00  NBF=    29     9
 NBsUse=    38 1.00D-06 EigRej= -1.00D+00 NBFU=    29     9
 Initial guess from the checkpoint file:  "geometry_chks/_235ClBzAnionIntermediate.chk"
 B after Tr=     0.000000    0.000000    0.000000
         Rot=    0.875063    0.000000   -0.000000   -0.484008 Ang= -57.90 deg.
 Initial guess orbital symmetries:
       Occupied  (A') (A') (A') (A') (A') (A') (A') (A') (A') (A')
                 (A') (A") (A') (A") (A") (A') (A') (A') (A') (A")
                 (A') (A") (A") (A')
       Virtual   (A') (A") (A') (A') (A") (A') (A') (A") (A') (A')
                 (A') (A') (A') (A')
 Keep J ints in memory in canonical form, NReq=863588.
 Overlap will be assumed to be unity.
 Requested convergence on RMS density matrix=1.00D-08 within**** cycles.
 Requested convergence on MAX density matrix=1.00D-06.
 Requested convergence on             energy=1.00D-06.
 No special actions if energy rises.
 Fock symm off for IB=2 I1=    1 I=   30 J=    8 Cut=1.00D-07 Err=1.41D-03
 Fock matrix is not symmetric: symmetry in diagonalization turned off.
 SCF Done:  E(RAM1) =  0.220462093965     A.U. after   14 cycles
            NFock= 13  Conv=0.33D-08     -V/T= 1.0019
 Calling FoFJK, ICntrl=      2127 FMM=F ISym2X=1 I1Cent= 0 IOpClX= 0 NMat=1 NMatS=1 NMatT=0.
 ***** Axes restored to original set *****
 -------------------------------------------------------------------
 Center     Atomic                   Forces (Hartrees/Bohr)
 Number     Number              X              Y              Z
 -------------------------------------------------------------------
      1        6          -0.006634325   -0.012334345    0.000000000
      2        6           0.008972722    0.018953599    0.000000000
      3        6           0.082588062    0.054145214   -0.000000000
      4        6           0.012254722   -0.013398943    0.000000000
      5        6          -0.007158762   -0.080257082    0.000000000
      6        6           0.010151518   -0.005543047   -0.000000000
      7       17           0.017591106   -0.009916901   -0.000000000
      8       17          -0.014772977    0.010482471    0.000000000
      9        1          -0.003128139    0.120442200   -0.000000000
     10       17           0.004631500   -0.018592698   -0.000000000
     11        1          -0.104495427   -0.063980467   -0.000000000
 -------------------------------------------------------------------
 Cartesian Forces:  Max     0.120442200 RMS     0.038129081

 GradGradGradGradGradGradGradGradGradGradGradGradGradGradGradGradGradGrad
 Berny optimization.
 Using GEDIIS/GDIIS optimizer.
 FormGI is forming the generalized inverse of G from B-inverse, IUseBI=4.
 Internal  Forces:  Max     0.122526510 RMS     0.026481545
 Search for a local minimum.
 Step number   2 out of a maximum of   57
 All quantities printed in internal units (Hartrees-Bohrs-Radians)
 Mixed Optimization -- RFO/linear search
 Update second derivatives using D2CorX and points    1    2
 DE= -5.50D-02 DEPred=-5.17D-02 R= 1.06D+00
 TightC=F SS=  1.41D+00  RLast= 3.00D-01 DXNew= 5.0454D-01 9.0000D-01
 Trust test= 1.06D+00 RLast= 3.00D-01 DXMaxT set to 5.05D-01
 ITU=  1  0
 Use linear search instead of GDIIS.
 Linear search step of   0.600 exceeds DXMaxT=   0.505 but not scaled.
 Quartic linear search produced a step of  2.00000.
 Iteration  1 RMS(Cart)=  0.06053609 RMS(Int)=  0.04363637
 Iteration  2 RMS(Cart)=  0.04022386 RMS(Int)=  0.00247796
 Iteration  3 RMS(Cart)=  0.00240900 RMS(Int)=  0.00008344
 Iteration  4 RMS(Cart)=  0.00000002 RMS(Int)=  0.00008344
 ClnCor:  largest displacement from symmetrization is 6.83D-09 for atom     1.
 Variable       Old X    -DE/DX   Delta X   Delta X   Delta X     New X
                                 (Linear)    (Quad)   (Total)
    R1        2.65307  -0.00013  -0.00739   0.00000  -0.00753   2.64554
    R2        2.63724  -0.01561  -0.03906   0.00000  -0.03912   2.59812
    R3        3.31274  -0.02019  -0.04722   0.00000  -0.04722   3.26552
    R4        2.63277  -0.01887  -0.04799   0.00000  -0.04808   2.58469
    R5        3.31569  -0.01868  -0.04130   0.00000  -0.04130   3.27439
    R6        2.63426  -0.01615  -0.04500   0.00000  -0.04494   2.58932
    R7        3.12887  -0.12253  -0.41494   0.00000  -0.41494   2.71393
    R8        2.63634  -0.01546  -0.04088   0.00000  -0.04074   2.59560
    R9        3.31634  -0.01798  -0.03999   0.00000  -0.03999   3.27635
   R10        2.62737  -0.02459  -0.05877   0.00000  -0.05868   2.56868
   R11        3.13233  -0.12048  -0.40799   0.00000  -0.40799   2.72435
    A1        2.10104   0.00428   0.01329   0.00000   0.01309   2.11413
    A2        2.09252  -0.00150  -0.00376   0.00000  -0.00366   2.08886
    A3        2.08963  -0.00278  -0.00953   0.00000  -0.00943   2.08020
    A4        2.08791  -0.00573  -0.01298   0.00000  -0.01320   2.07470
    A5        2.10623   0.00994   0.02366   0.00000   0.02377   2.13000
    A6        2.08905  -0.00421  -0.01068   0.00000  -0.01057   2.07848
    A7        2.09935   0.00393   0.00991   0.00000   0.00988   2.10924
    A8        2.09156  -0.00231  -0.00567   0.00000  -0.00566   2.08591
    A9        2.09227  -0.00162  -0.00424   0.00000  -0.00423   2.08804
   A10        2.08538  -0.00651  -0.01802   0.00000  -0.01782   2.06756
   A11        2.09455  -0.00043   0.00030   0.00000   0.00020   2.09475
   A12        2.10325   0.00694   0.01772   0.00000   0.01762   2.12087
   A13        2.11282   0.01335   0.03686   0.00000   0.03707   2.14990
   A14        2.08385  -0.00767  -0.02108   0.00000  -0.02119   2.06266
   A15        2.08651  -0.00568  -0.01578   0.00000  -0.01589   2.07063
   A16        2.07987  -0.00931  -0.02906   0.00000  -0.02903   2.05085
    D1        0.00000  -0.00000   0.00000   0.00000  -0.00000   0.00000
    D2        3.14159  -0.00000   0.00000   0.00000   0.00000   3.14159
    D3        3.14159   0.00000   0.00000   0.00000   0.00000   3.14159
    D4        0.00000   0.00000   0.00000   0.00000   0.00000   0.00000
    D5        0.00000   0.00000   0.00000   0.00000   0.00000   0.00000
    D6        3.14159  -0.00000   0.00000   0.00000   0.00000   3.14159
    D7       -0.00000  -0.00000   0.00000   0.00000   0.00000   0.00000
    D8        3.14159  -0.00000   0.00000   0.00000   0.00000   3.14159
    D9        3.14159   0.00000   0.00000   0.00000   0.00000   3.14159
   D10        0.00000  -0.00000   0.00000   0.00000   0.00000   0.00000
   D11        0.00000   0.00000   0.00000   0.00000  -0.00000   0.00000
   D12        3.14159   0.00000   0.00000   0.00000   0.00000   3.14159
   D13        3.14159   0.00000   0.00000   0.00000   0.00000   3.14159
   D14       -0.00000   0.00000   0.00000   0.00000   0.00000   0.00000
   D15       -0.00000  -0.00000   0.00000   0.00000   0.00000   0.00000
   D16        3.14159  -0.00000   0.00000   0.00000   0.00000   3.14159
   D17        3.14159   0.00000   0.00000   0.00000   0.00000   3.14159
   D18       -0.00000  -0.00000   0.00000   0.00000   0.00000   0.00000
   D19        0.00000  -0.00000   0.00000   0.00000  -0.00000   0.00000
   D20        3.14159   0.00000   0.00000   0.00000   0.00000   3.14159
         Item               Value     Threshold  Converged?
 Maximum Force            0.122527     0.000450     NO 
 RMS     Force            0.026482     0.000300     NO 
 Maximum Displacement     0.470541     0.001800     NO 
 RMS     Displacement     0.100040     0.001200     NO 
 Predicted change in Energy=-1.062603D-01
 GradGradGradGradGradGradGradGradGradGradGradGradGradGradGradGradGradGrad

                          Input orientation:                          
 ---------------------------------------------------------------------
 Center     Atomic      Atomic             Coordinates (Angstroms)
 Number     Number       Type             X           Y           Z
 ---------------------------------------------------------------------
      1          6           0       -3.162033    0.153087   -0.000000
      2          6           0       -1.977894    0.899876    0.000000
      3          6           0       -0.780356    0.239063    0.000000
      4          6           0       -0.733492   -1.130344    0.000000
      5          6           0       -1.917909   -1.825859   -0.000000
      6          6           0       -3.135465   -1.221524   -0.000000
      7         17           0       -4.686680    0.966461   -0.000000
      8         17           0        0.796477   -1.945917    0.000000
      9          1           0       -1.861547   -3.266419   -0.000000
     10         17           0       -1.983874    2.632597    0.000000
     11          1           0        0.442903    0.991501    0.000000
 ---------------------------------------------------------------------
                    Distance matrix (angstroms):
                    1          2          3          4          5
     1  C    0.000000
     2  C    1.399958   0.000000
     3  C    2.383229   1.367761   0.000000
     4  C    2.746818   2.381245   1.370209   0.000000
     5  C    2.337535   2.726395   2.357527   1.373530   0.000000
     6  C    1.374867   2.416673   2.771255   2.403703   1.359288
     7  Cl   1.728040   2.709604   3.973471   4.474850   3.932320
     8  Cl   4.480583   3.974377   2.694539   1.733772   2.717040
     9  H    3.658453   4.167919   3.668430   2.415641   1.441661
    10  Cl   2.745183   1.732731   2.679078   3.965247   4.458944
    11  H    3.701149   2.422530   1.436149   2.426136   3.675725
                    6          7          8          9         10
     6  C    0.000000
     7  Cl   2.682078   0.000000
     8  Cl   3.998114   6.208619   0.000000
     9  H    2.409245   5.089071   2.967964   0.000000
    10  Cl   4.022488   3.175085   5.356598   5.900283   0.000000
    11  H    4.207398   5.129644   2.958622   4.841525   2.929581
                   11
    11  H    0.000000
 Stoichiometry    C6H2Cl3(1-)
 Framework group  CS[SG(C6H2Cl3)]
 Deg. of freedom    19
 Full point group                 CS      NOp   2
 Largest Abelian subgroup         CS      NOp   2
 Largest concise Abelian subgroup C1      NOp   1
                         Standard orientation:                         
 ---------------------------------------------------------------------
 Center     Atomic      Atomic             Coordinates (Angstroms)
 Number     Number       Type             X           Y           Z
 ---------------------------------------------------------------------
      1          6           0        1.228775   -0.134990    0.000000
      2          6           0        0.000000   -0.805806    0.000000
      3          6           0       -1.153595   -0.070966   -0.000000
      4          6           0       -1.114216    1.298678   -0.000000
      5          6           0        0.111610    1.918303    0.000000
      6          6           0        1.288735    1.238569    0.000000
      7         17           0        2.699232   -1.042668    0.000000
      8         17           0       -2.589847    2.208885   -0.000000
      9          1           0        0.145984    3.359555    0.000000
     10         17           0       -0.103036   -2.535471   -0.000000
     11          1           0       -2.421766   -0.744959   -0.000000
 ---------------------------------------------------------------------
 Rotational constants (GHZ):           1.8967637           0.6056908           0.4590902
 Standard basis: VSTO-6G (5D, 7F)
 There are    29 symmetry adapted cartesian basis functions of A'  symmetry.
 There are     9 symmetry adapted cartesian basis functions of A"  symmetry.
 There are    29 symmetry adapted basis functions of A'  symmetry.
 There are     9 symmetry adapted basis functions of A"  symmetry.
    38 basis functions,   228 primitive gaussians,    38 cartesian basis functions
    24 alpha electrons       24 beta electrons
       nuclear repulsion energy       243.2487792839 Hartrees.
 Integral buffers will be    131072 words long.
 Regular integral format.
 Two-electron integral symmetry is turned off.
 Do NDO integrals.
 One-electron integrals computed using PRISM.
 NBasis=    38 RedAO= T EigKep=  1.00D+00  NBF=    29     9
 NBsUse=    38 1.00D-06 EigRej= -1.00D+00 NBFU=    29     9
 Initial guess from the checkpoint file:  "geometry_chks/_235ClBzAnionIntermediate.chk"
 B after Tr=     0.000000    0.000000    0.000000
         Rot=    0.999999   -0.000000   -0.000000   -0.001105 Ang=  -0.13 deg.
 Initial guess orbital symmetries:
       Occupied  (A') (A') (A') (A') (A') (A') (A') (A') (A') (A')
                 (A') (A") (A') (A") (A") (A') (A') (A') (A') (A")
                 (A') (A") (A") (A')
       Virtual   (A') (A") (A') (A") (A') (A') (A') (A") (A') (A')
                 (A') (A') (A') (A')
 Keep J ints in memory in canonical form, NReq=863588.
 Overlap will be assumed to be unity.
 Requested convergence on RMS density matrix=1.00D-08 within**** cycles.
 Requested convergence on MAX density matrix=1.00D-06.
 Requested convergence on             energy=1.00D-06.
 No special actions if energy rises.
 Fock symm off for IB=2 I1=    1 I=   30 J=    6 Cut=1.00D-07 Err=2.56D-03
 Fock matrix is not symmetric: symmetry in diagonalization turned off.
 SCF Done:  E(RAM1) =  0.120467745795     A.U. after   14 cycles
            NFock= 13  Conv=0.23D-08     -V/T= 1.0011
 Calling FoFJK, ICntrl=      2127 FMM=F ISym2X=1 I1Cent= 0 IOpClX= 0 NMat=1 NMatS=1 NMatT=0.
 ***** Axes restored to original set *****
 -------------------------------------------------------------------
 Center     Atomic                   Forces (Hartrees/Bohr)
 Number     Number              X              Y              Z
 -------------------------------------------------------------------
      1        6          -0.016870420    0.010886739    0.000000000
      2        6          -0.014424698    0.028574797   -0.000000000
      3        6           0.117989794    0.074409774   -0.000000000
      4        6           0.026471548   -0.022000963    0.000000000
      5        6           0.005508810   -0.134739668   -0.000000000
      6        6          -0.019148971   -0.005160699    0.000000000
      7       17           0.003783440   -0.001105074   -0.000000000
      8       17          -0.004844767    0.003724941    0.000000000
      9        1          -0.003941925    0.110775200   -0.000000000
     10       17           0.001489200   -0.006604529   -0.000000000
     11        1          -0.096012011   -0.058760519   -0.000000000
 -------------------------------------------------------------------
 Cartesian Forces:  Max     0.134739668 RMS     0.044621596

 GradGradGradGradGradGradGradGradGradGradGradGradGradGradGradGradGradGrad
 Berny optimization.
 Using GEDIIS/GDIIS optimizer.
 FormGI is forming the generalized inverse of G from B-inverse, IUseBI=4.
 Internal  Forces:  Max     0.112565718 RMS     0.024555016
 Search for a local minimum.
 Step number   3 out of a maximum of   57
 All quantities printed in internal units (Hartrees-Bohrs-Radians)
 Mixed Optimization -- RFO/linear search
 Update second derivatives using D2CorX and points    2    3
 ITU=  0  1  0
 Use linear search instead of GDIIS.
 Linear search step of   0.778 exceeds DXMaxT=   0.505 but not scaled.
 Quartic linear search produced a step of  1.29598.
 Iteration  1 RMS(Cart)=  0.06810568 RMS(Int)=  0.06876485
 Iteration  2 RMS(Cart)=  0.04016778 RMS(Int)=  0.02751645
 Iteration  3 RMS(Cart)=  0.02684768 RMS(Int)=  0.00017109
 Iteration  4 RMS(Cart)=  0.00000853 RMS(Int)=  0.00017096
 Iteration  5 RMS(Cart)=  0.00000000 RMS(Int)=  0.00017096
 ClnCor:  largest displacement from symmetrization is 1.11D-08 for atom     7.
 Variable       Old X    -DE/DX   Delta X   Delta X   Delta X     New X
                                 (Linear)    (Quad)   (Total)
    R1        2.64554   0.01430  -0.00976   0.00000  -0.01006   2.63548
    R2        2.59812   0.01899  -0.05069   0.00000  -0.05083   2.54729
    R3        3.26552  -0.00386  -0.06119   0.00000  -0.06119   3.20433
    R4        2.58469   0.02725  -0.06230   0.00000  -0.06247   2.52223
    R5        3.27439  -0.00661  -0.05353   0.00000  -0.05353   3.22086
    R6        2.58932   0.02850  -0.05825   0.00000  -0.05812   2.53120
    R7        2.71393  -0.11257  -0.53775   0.00000  -0.53775   2.17618
    R8        2.59560   0.02200  -0.05280   0.00000  -0.05250   2.54309
    R9        3.27635  -0.00603  -0.05182   0.00000  -0.05182   3.22453
   R10        2.56868   0.02504  -0.07605   0.00000  -0.07587   2.49281
   R11        2.72435  -0.11084  -0.52874   0.00000  -0.52874   2.19560
    A1        2.11413   0.00064   0.01697   0.00000   0.01655   2.13068
    A2        2.08886  -0.00164  -0.00474   0.00000  -0.00453   2.08433
    A3        2.08020   0.00100  -0.01223   0.00000  -0.01202   2.06817
    A4        2.07470  -0.00010  -0.01711   0.00000  -0.01757   2.05714
    A5        2.13000   0.00245   0.03081   0.00000   0.03104   2.16104
    A6        2.07848  -0.00235  -0.01370   0.00000  -0.01347   2.06501
    A7        2.10924   0.00055   0.01281   0.00000   0.01277   2.12201
    A8        2.08591  -0.00062  -0.00733   0.00000  -0.00731   2.07859
    A9        2.08804   0.00007  -0.00548   0.00000  -0.00546   2.08258
   A10        2.06756  -0.00269  -0.02310   0.00000  -0.02268   2.04488
   A11        2.09475  -0.00031   0.00026   0.00000   0.00005   2.09481
   A12        2.12087   0.00300   0.02283   0.00000   0.02263   2.14350
   A13        2.14990  -0.00220   0.04805   0.00000   0.04848   2.19838
   A14        2.06266   0.00057  -0.02746   0.00000  -0.02767   2.03499
   A15        2.07063   0.00163  -0.02059   0.00000  -0.02080   2.04982
   A16        2.05085   0.00379  -0.03762   0.00000  -0.03756   2.01329
    D1       -0.00000  -0.00000   0.00000   0.00000   0.00000   0.00000
    D2        3.14159  -0.00000   0.00000   0.00000   0.00000   3.14159
    D3        3.14159   0.00000   0.00000   0.00000   0.00000   3.14159
    D4        0.00000   0.00000   0.00000   0.00000  -0.00000   0.00000
    D5        0.00000   0.00000   0.00000   0.00000  -0.00000   0.00000
    D6        3.14159  -0.00000   0.00000   0.00000   0.00000   3.14159
    D7        0.00000  -0.00000   0.00000   0.00000   0.00000   0.00000
    D8        3.14159  -0.00000   0.00000   0.00000   0.00000   3.14159
    D9        3.14159   0.00000   0.00000   0.00000   0.00000   3.14159
   D10       -0.00000  -0.00000   0.00000   0.00000   0.00000   0.00000
   D11       -0.00000   0.00000   0.00000   0.00000   0.00000   0.00000
   D12        3.14159   0.00000   0.00000   0.00000   0.00000   3.14159
   D13        3.14159   0.00000   0.00000   0.00000   0.00000   3.14159
   D14        0.00000   0.00000   0.00000   0.00000  -0.00000   0.00000
   D15       -0.00000  -0.00000   0.00000   0.00000   0.00000   0.00000
   D16        3.14159  -0.00000   0.00000   0.00000   0.00000   3.14159
   D17        3.14159  -0.00000   0.00000   0.00000   0.00000   3.14159
   D18       -0.00000  -0.00000   0.00000   0.00000   0.00000   0.00000
   D19        0.00000   0.00000   0.00000   0.00000   0.00000   0.00000
   D20        3.14159   0.00000   0.00000   0.00000   0.00000   3.14159
         Item               Value     Threshold  Converged?
 Maximum Force            0.112566     0.000450     NO 
 RMS     Force            0.024555     0.000300     NO 
 Maximum Displacement     0.608800     0.001800     NO 
 RMS     Displacement     0.129490     0.001200     NO 
 Predicted change in Energy=-9.423240D-02
 GradGradGradGradGradGradGradGradGradGradGradGradGradGradGradGradGradGrad

                          Input orientation:                          
 ---------------------------------------------------------------------
 Center     Atomic      Atomic             Coordinates (Angstroms)
 Number     Number       Type             X           Y           Z
 ---------------------------------------------------------------------
      1          6           0       -3.120310    0.112931   -0.000000
      2          6           0       -1.948585    0.869284    0.000000
      3          6           0       -0.784542    0.216258    0.000000
      4          6           0       -0.731025   -1.122127    0.000000
      5          6           0       -1.902850   -1.783836   -0.000000
      6          6           0       -3.102357   -1.234919   -0.000000
      7         17           0       -4.621160    0.902050   -0.000000
      8         17           0        0.779298   -1.916201    0.000000
      9          1           0       -1.844950   -2.944255   -0.000000
     10         17           0       -1.919545    2.573442    0.000000
     11          1           0        0.196156    0.819892    0.000000
 ---------------------------------------------------------------------
                    Distance matrix (angstroms):
                    1          2          3          4          5
     1  C    0.000000
     2  C    1.394636   0.000000
     3  C    2.338052   1.334706   0.000000
     4  C    2.689619   2.334132   1.339454   0.000000
     5  C    2.253871   2.653514   2.291503   1.345746   0.000000
     6  C    1.347970   2.399763   2.734626   2.374013   1.319138
     7  Cl   1.695658   2.672776   3.897428   4.385253   3.821412
     8  Cl   4.395943   3.898752   2.644423   1.706349   2.685412
     9  H    3.312542   3.814948   3.333663   2.135646   1.161863
    10  Cl   2.737873   1.704405   2.616210   3.881985   4.357310
    11  H    3.390980   2.145310   1.151583   2.152000   3.344432
                    6          7          8          9         10
     6  C    0.000000
     7  Cl   2.621717   0.000000
     8  Cl   3.940988   6.091590   0.000000
     9  H    2.122004   4.743564   2.818434   0.000000
    10  Cl   3.987814   3.176834   5.238382   5.518202   0.000000
    11  H    3.886185   4.818017   2.797545   4.281930   2.747932
                   11
    11  H    0.000000
 Stoichiometry    C6H2Cl3(1-)
 Framework group  CS[SG(C6H2Cl3)]
 Deg. of freedom    19
 Full point group                 CS      NOp   2
 Largest Abelian subgroup         CS      NOp   2
 Largest concise Abelian subgroup C1      NOp   1
                         Standard orientation:                         
 ---------------------------------------------------------------------
 Center     Atomic      Atomic             Coordinates (Angstroms)
 Number     Number       Type             X           Y           Z
 ---------------------------------------------------------------------
      1          6           0        1.215453   -0.111267    0.000000
      2          6           0        0.000000   -0.795141    0.000000
      3          6           0       -1.122281   -0.072697    0.000000
      4          6           0       -1.094502    1.266469    0.000000
      5          6           0        0.115309    1.855867    0.000000
      6          6           0        1.279304    1.235190    0.000000
      7         17           0        2.665664   -0.989985    0.000000
      8         17           0       -2.553868    2.150709    0.000000
      9          1           0        0.127916    3.017662    0.000000
     10         17           0       -0.132374   -2.494398    0.000000
     11          1           0       -2.137794   -0.615722    0.000000
 ---------------------------------------------------------------------
 Rotational constants (GHZ):           1.9306416           0.6342714           0.4774239
 Standard basis: VSTO-6G (5D, 7F)
 There are    29 symmetry adapted cartesian basis functions of A'  symmetry.
 There are     9 symmetry adapted cartesian basis functions of A"  symmetry.
 There are    29 symmetry adapted basis functions of A'  symmetry.
 There are     9 symmetry adapted basis functions of A"  symmetry.
    38 basis functions,   228 primitive gaussians,    38 cartesian basis functions
    24 alpha electrons       24 beta electrons
       nuclear repulsion energy       247.0490573306 Hartrees.
 Integral buffers will be    131072 words long.
 Regular integral format.
 Two-electron integral symmetry is turned off.
 Do NDO integrals.
 One-electron integrals computed using PRISM.
 NBasis=    38 RedAO= T EigKep=  1.00D+00  NBF=    29     9
 NBsUse=    38 1.00D-06 EigRej= -1.00D+00 NBFU=    29     9
 Initial guess from the checkpoint file:  "geometry_chks/_235ClBzAnionIntermediate.chk"
 B after Tr=     0.000000    0.000000   -0.000000
         Rot=    0.999999   -0.000000   -0.000000   -0.001697 Ang=  -0.19 deg.
 Initial guess orbital symmetries:
       Occupied  (A') (A') (A') (A') (A') (A') (A') (A') (A') (A')
                 (A') (A") (A') (A") (A') (A") (A') (A') (A') (A")
                 (A') (A") (A") (A')
       Virtual   (A") (A') (A") (A') (A') (A') (A') (A") (A') (A')
                 (A') (A') (A') (A')
 Keep J ints in memory in canonical form, NReq=863588.
 Overlap will be assumed to be unity.
 Requested convergence on RMS density matrix=1.00D-08 within**** cycles.
 Requested convergence on MAX density matrix=1.00D-06.
 Requested convergence on             energy=1.00D-06.
 No special actions if energy rises.
 Fock symm off for IB=2 I1=    1 I=   30 J=    1 Cut=1.00D-07 Err=5.89D-03
 Fock matrix is not symmetric: symmetry in diagonalization turned off.
 SCF Done:  E(RAM1) =  0.566126190266E-01 A.U. after   14 cycles
            NFock= 13  Conv=0.47D-08     -V/T= 1.0005
 Calling FoFJK, ICntrl=      2127 FMM=F ISym2X=1 I1Cent= 0 IOpClX= 0 NMat=1 NMatS=1 NMatT=0.
 ***** Axes restored to original set *****
 -------------------------------------------------------------------
 Center     Atomic                   Forces (Hartrees/Bohr)
 Number     Number              X              Y              Z
 -------------------------------------------------------------------
      1        6          -0.031874153    0.045229848    0.000000000
      2        6          -0.056083022    0.045127348    0.000000000
      3        6           0.115879703    0.070254783   -0.000000000
      4        6           0.051101445   -0.037291385    0.000000000
      5        6           0.023213664   -0.152188524    0.000000000
      6        6          -0.069656947   -0.002304994   -0.000000000
      7       17          -0.016814995    0.011795006    0.000000000
      8       17           0.010279760   -0.006347670    0.000000000
      9        1          -0.001781716    0.027175212   -0.000000000
     10       17          -0.002915428    0.011624853   -0.000000000
     11        1          -0.021348311   -0.013074477   -0.000000000
 -------------------------------------------------------------------
 Cartesian Forces:  Max     0.152188524 RMS     0.043080890

 GradGradGradGradGradGradGradGradGradGradGradGradGradGradGradGradGradGrad
 Berny optimization.
 Using GEDIIS/GDIIS optimizer.
 FormGI is forming the generalized inverse of G from B-inverse, IUseBI=4.
 Internal  Forces:  Max     0.104483149 RMS     0.032253164
 Search for a local minimum.
 Step number   4 out of a maximum of   57
 All quantities printed in internal units (Hartrees-Bohrs-Radians)
 Mixed Optimization -- RFO/linear search
 Update second derivatives using D2CorX and points    3    4
 ITU=  0  0  1  0
 Use linear search instead of GDIIS.
     Eigenvalues ---    0.02011   0.02011   0.02011   0.02011   0.02011
     Eigenvalues ---    0.02011   0.02011   0.02011   0.06522   0.11634
     Eigenvalues ---    0.16000   0.16001   0.23338   0.23739   0.24933
     Eigenvalues ---    0.25000   0.25000   0.25085   0.28456   0.29033
     Eigenvalues ---    0.29042   0.40782   0.41367   0.44618   0.44656
     Eigenvalues ---    0.44657   0.60035
 RFO step:  Lambda=-9.44631894D-02 EMin= 2.01065557D-02
 Quartic linear search produced a step of -0.03669.
 Maximum step size (   0.505) exceeded in Quadratic search.
    -- Step size scaled by   0.981
 Iteration  1 RMS(Cart)=  0.07137986 RMS(Int)=  0.00531793
 Iteration  2 RMS(Cart)=  0.00491069 RMS(Int)=  0.00038240
 Iteration  3 RMS(Cart)=  0.00001190 RMS(Int)=  0.00038229
 Iteration  4 RMS(Cart)=  0.00000000 RMS(Int)=  0.00038229
 ClnCor:  largest displacement from symmetrization is 4.75D-09 for atom     7.
 Variable       Old X    -DE/DX   Delta X   Delta X   Delta X     New X
                                 (Linear)    (Quad)   (Total)
    R1        2.63548   0.03613   0.00037   0.05634   0.05608   2.69156
    R2        2.54729   0.07037   0.00187   0.11326   0.11477   2.66206
    R3        3.20433   0.02037   0.00225   0.04623   0.04848   3.25281
    R4        2.52223   0.10288   0.00229   0.16645   0.16848   2.69070
    R5        3.22086   0.01157   0.00196   0.02604   0.02800   3.24886
    R6        2.53120   0.10065   0.00213   0.16559   0.16808   2.69928
    R7        2.17618  -0.02503   0.01973  -0.23925  -0.21952   1.95666
    R8        2.54309   0.08243   0.00193   0.13663   0.13919   2.68228
    R9        3.22453   0.01205   0.00190   0.02713   0.02903   3.25356
   R10        2.49281   0.10448   0.00278   0.17084   0.17390   2.66671
   R11        2.19560  -0.02723   0.01940  -0.24834  -0.22894   1.96666
    A1        2.13068  -0.00302  -0.00061  -0.01502  -0.01663   2.11405
    A2        2.08433  -0.00268   0.00017  -0.00318  -0.00251   2.08182
    A3        2.06817   0.00570   0.00044   0.01820   0.01914   2.08731
    A4        2.05714   0.00988   0.00064   0.01946   0.01918   2.07631
    A5        2.16104  -0.00995  -0.00114  -0.02207  -0.02275   2.13829
    A6        2.06501   0.00007   0.00049   0.00262   0.00357   2.06858
    A7        2.12201  -0.00651  -0.00047  -0.01367  -0.01404   2.10797
    A8        2.07859   0.00319   0.00027   0.00646   0.00668   2.08528
    A9        2.08258   0.00332   0.00020   0.00721   0.00736   2.08994
   A10        2.04488   0.00287   0.00083   0.01656   0.01843   2.06331
   A11        2.09481  -0.00009  -0.00000  -0.00500  -0.00552   2.08929
   A12        2.14350  -0.00278  -0.00083  -0.01156  -0.01291   2.13059
   A13        2.19838  -0.02824  -0.00178  -0.06901  -0.06987   2.12850
   A14        2.03499   0.01458   0.00102   0.03582   0.03638   2.07137
   A15        2.04982   0.01365   0.00076   0.03319   0.03349   2.08331
   A16        2.01329   0.02502   0.00138   0.06169   0.06294   2.07623
    D1       -0.00000  -0.00000   0.00000  -0.00000   0.00000   0.00000
    D2        3.14159  -0.00000   0.00000  -0.00000   0.00000   3.14159
    D3        3.14159  -0.00000   0.00000   0.00000   0.00000   3.14159
    D4       -0.00000  -0.00000   0.00000   0.00000   0.00000   0.00000
    D5        0.00000   0.00000   0.00000   0.00000   0.00000   0.00000
    D6        3.14159   0.00000   0.00000  -0.00000   0.00000   3.14159
    D7        0.00000  -0.00000   0.00000  -0.00000   0.00000   0.00000
    D8        3.14159  -0.00000   0.00000  -0.00000   0.00000   3.14159
    D9        3.14159  -0.00000   0.00000  -0.00000   0.00000   3.14159
   D10       -0.00000  -0.00000   0.00000  -0.00000   0.00000   0.00000
   D11       -0.00000   0.00000   0.00000   0.00000   0.00000   0.00000
   D12        3.14159   0.00000   0.00000  -0.00000   0.00000   3.14159
   D13        3.14159   0.00000   0.00000   0.00000   0.00000   3.14159
   D14        0.00000   0.00000   0.00000   0.00000   0.00000   0.00000
   D15       -0.00000  -0.00000   0.00000  -0.00000   0.00000   0.00000
   D16        3.14159  -0.00000   0.00000  -0.00000   0.00000   3.14159
   D17        3.14159   0.00000   0.00000   0.00000   0.00000   3.14159
   D18        0.00000  -0.00000   0.00000  -0.00000   0.00000   0.00000
   D19       -0.00000  -0.00000   0.00000  -0.00000   0.00000   0.00000
   D20        3.14159   0.00000   0.00000   0.00000   0.00000   3.14159
         Item               Value     Threshold  Converged?
 Maximum Force            0.104483     0.000450     NO 
 RMS     Force            0.032253     0.000300     NO 
 Maximum Displacement     0.223068     0.001800     NO 
 RMS     Displacement     0.071517     0.001200     NO 
 Predicted change in Energy=-5.854942D-02
 GradGradGradGradGradGradGradGradGradGradGradGradGradGradGradGradGradGrad

                          Input orientation:                          
 ---------------------------------------------------------------------
 Center     Atomic      Atomic             Coordinates (Angstroms)
 Number     Number       Type             X           Y           Z
 ---------------------------------------------------------------------
      1          6           0       -3.168475    0.158463   -0.000000
      2          6           0       -1.968072    0.925078    0.000000
      3          6           0       -0.716433    0.246273    0.000000
      4          6           0       -0.658980   -1.180969    0.000000
      5          6           0       -1.881677   -1.901879   -0.000000
      6          6           0       -3.133145   -1.249797   -0.000000
      7         17           0       -4.686080    0.970736   -0.000000
      8         17           0        0.869549   -1.973360    0.000000
      9          1           0       -1.848204   -2.942052   -0.000000
     10         17           0       -1.969525    2.644299    0.000000
     11          1           0        0.161173    0.795728    0.000000
 ---------------------------------------------------------------------
                    Distance matrix (angstroms):
                    1          2          3          4          5
     1  C    0.000000
     2  C    1.424312   0.000000
     3  C    2.453614   1.423860   0.000000
     4  C    2.844582   2.479749   1.428398   0.000000
     5  C    2.429168   2.828276   2.443839   1.419400   0.000000
     6  C    1.408703   2.467281   2.842309   2.475122   1.411164
     7  Cl   1.721311   2.718391   4.035213   4.565892   4.014548
     8  Cl   4.566214   4.056235   2.728024   1.721710   2.752155
     9  H    3.369912   3.868987   3.383241   2.125009   1.040712
    10  Cl   2.759867   1.719222   2.705692   4.043539   4.547026
    11  H    3.390084   2.133171   1.035420   2.140090   3.383832
                    6          7          8          9         10
     6  C    0.000000
     7  Cl   2.709682   0.000000
     8  Cl   4.067568   6.287505   0.000000
     9  H    2.124806   4.833576   2.885229   0.000000
    10  Cl   4.064234   3.190687   5.420620   5.587668   0.000000
    11  H    3.877719   4.850412   2.858260   4.243654   2.820831
                   11
    11  H    0.000000
 Stoichiometry    C6H2Cl3(1-)
 Framework group  CS[SG(C6H2Cl3)]
 Deg. of freedom    19
 Full point group                 CS      NOp   2
 Largest Abelian subgroup         CS      NOp   2
 Largest concise Abelian subgroup C1      NOp   1
                         Standard orientation:                         
 ---------------------------------------------------------------------
 Center     Atomic      Atomic             Coordinates (Angstroms)
 Number     Number       Type             X           Y           Z
 ---------------------------------------------------------------------
      1          6           0        1.257543   -0.171945   -0.000000
      2          6           0        0.000000   -0.840714    0.000000
      3          6           0       -1.193720   -0.064564    0.000000
      4          6           0       -1.137539    1.362729    0.000000
      5          6           0        0.138594    1.984165   -0.000000
      6          6           0        1.334268    1.234667   -0.000000
      7         17           0        2.705778   -1.102283   -0.000000
      8         17           0       -2.598244    2.274116    0.000000
      9          1           0        0.187911    3.023707   -0.000000
     10         17           0       -0.135214   -2.554610    0.000000
     11          1           0       -2.112226   -0.542519    0.000000
 ---------------------------------------------------------------------
 Rotational constants (GHZ):           1.8737598           0.5887459           0.4479861
 Standard basis: VSTO-6G (5D, 7F)
 There are    29 symmetry adapted cartesian basis functions of A'  symmetry.
 There are     9 symmetry adapted cartesian basis functions of A"  symmetry.
 There are    29 symmetry adapted basis functions of A'  symmetry.
 There are     9 symmetry adapted basis functions of A"  symmetry.
    38 basis functions,   228 primitive gaussians,    38 cartesian basis functions
    24 alpha electrons       24 beta electrons
       nuclear repulsion energy       242.5058423870 Hartrees.
 Integral buffers will be    131072 words long.
 Regular integral format.
 Two-electron integral symmetry is turned off.
 Do NDO integrals.
 One-electron integrals computed using PRISM.
 NBasis=    38 RedAO= T EigKep=  1.00D+00  NBF=    29     9
 NBsUse=    38 1.00D-06 EigRej= -1.00D+00 NBFU=    29     9
 Initial guess from the checkpoint file:  "geometry_chks/_235ClBzAnionIntermediate.chk"
 B after Tr=    -0.000000   -0.000000   -0.000000
         Rot=    0.999959   -0.000000    0.000000    0.009103 Ang=   1.04 deg.
 Initial guess orbital symmetries:
       Occupied  (A') (A') (A') (A') (A') (A') (A') (A') (A') (A')
                 (A') (A") (A') (A") (A') (A") (A') (A') (A') (A")
                 (A') (A") (A") (A')
       Virtual   (A") (A') (A") (A') (A') (A') (A") (A') (A') (A')
                 (A') (A') (A') (A')
 Keep J ints in memory in canonical form, NReq=863588.
 Overlap will be assumed to be unity.
 Requested convergence on RMS density matrix=1.00D-08 within**** cycles.
 Requested convergence on MAX density matrix=1.00D-06.
 Requested convergence on             energy=1.00D-06.
 No special actions if energy rises.
 Fock symm off for IB=2 I1=    1 I=   30 J=   20 Cut=1.00D-07 Err=1.30D-03
 Fock matrix is not symmetric: symmetry in diagonalization turned off.
 SCF Done:  E(RAM1) =  0.350229624017E-01 A.U. after   14 cycles
            NFock= 13  Conv=0.33D-08     -V/T= 1.0003
 Calling FoFJK, ICntrl=      2127 FMM=F ISym2X=1 I1Cent= 0 IOpClX= 0 NMat=1 NMatS=1 NMatT=0.
 ***** Axes restored to original set *****
 -------------------------------------------------------------------
 Center     Atomic                   Forces (Hartrees/Bohr)
 Number     Number              X              Y              Z
 -------------------------------------------------------------------
      1        6           0.026041958   -0.009333949   -0.000000000
      2        6          -0.000220790   -0.035519155    0.000000000
      3        6          -0.051081115   -0.035587381    0.000000000
      4        6          -0.039017805    0.026572444    0.000000000
      5        6           0.004517324    0.060368656    0.000000000
      6        6           0.019015336    0.015667168    0.000000000
      7       17           0.004377679   -0.002916355   -0.000000000
      8       17          -0.005152914    0.003582422   -0.000000000
      9        1          -0.000157586   -0.043896087   -0.000000000
     10       17           0.001256395   -0.004386458   -0.000000000
     11        1           0.040421518    0.025448695   -0.000000000
 -------------------------------------------------------------------
 Cartesian Forces:  Max     0.060368656 RMS     0.022495331

 GradGradGradGradGradGradGradGradGradGradGradGradGradGradGradGradGradGrad
 Berny optimization.
 Using GEDIIS/GDIIS optimizer.
 FormGI is forming the generalized inverse of G from B-inverse, IUseBI=4.
 Internal  Forces:  Max     0.047765268 RMS     0.014895929
 Search for a local minimum.
 Step number   5 out of a maximum of   57
 All quantities printed in internal units (Hartrees-Bohrs-Radians)
 Mixed Optimization -- RFO/linear search
 Update second derivatives using D2CorX and points    4    5
 DE= -2.16D-02 DEPred=-5.85D-02 R= 3.69D-01
 Trust test= 3.69D-01 RLast= 4.91D-01 DXMaxT set to 5.05D-01
 ITU=  0  0  0  1  0
 Use linear search instead of GDIIS.
     Eigenvalues ---    0.02011   0.02011   0.02011   0.02011   0.02011
     Eigenvalues ---    0.02011   0.02011   0.02011   0.06522   0.15995
     Eigenvalues ---    0.16000   0.19327   0.23201   0.23487   0.24954
     Eigenvalues ---    0.25000   0.25000   0.25148   0.28634   0.29030
     Eigenvalues ---    0.29041   0.40961   0.41525   0.44477   0.44656
     Eigenvalues ---    0.44659   0.74414
 RFO step:  Lambda=-9.52158963D-03 EMin= 2.01065588D-02
 Quartic linear search produced a step of -0.34907.
 Iteration  1 RMS(Cart)=  0.04274989 RMS(Int)=  0.00154956
 Iteration  2 RMS(Cart)=  0.00137477 RMS(Int)=  0.00011247
 Iteration  3 RMS(Cart)=  0.00000039 RMS(Int)=  0.00011247
 ClnCor:  largest displacement from symmetrization is 3.45D-13 for atom     7.
 Variable       Old X    -DE/DX   Delta X   Delta X   Delta X     New X
                                 (Linear)    (Quad)   (Total)
    R1        2.69156  -0.02932  -0.01958  -0.01707  -0.03646   2.65510
    R2        2.66206  -0.02783  -0.04006   0.01365  -0.02633   2.63574
    R3        3.25281  -0.00524  -0.01692   0.01287  -0.00405   3.24875
    R4        2.69070  -0.03448  -0.05881   0.02628  -0.03242   2.65828
    R5        3.24886  -0.00439  -0.00977   0.00511  -0.00466   3.24420
    R6        2.69928  -0.03518  -0.05867   0.02546  -0.03330   2.66598
    R7        1.95666   0.04777   0.07663   0.13387   0.21050   2.16716
    R8        2.68228  -0.02712  -0.04859   0.02455  -0.02423   2.65805
    R9        3.25356  -0.00622  -0.01013   0.00148  -0.00865   3.24491
   R10        2.66671  -0.02729  -0.06070   0.04069  -0.02012   2.64659
   R11        1.96666   0.04387   0.07992   0.10052   0.18044   2.14710
    A1        2.11405   0.00430   0.00581   0.00240   0.00847   2.12253
    A2        2.08182  -0.00133   0.00088  -0.00417  -0.00343   2.07838
    A3        2.08731  -0.00297  -0.00668   0.00178  -0.00504   2.08228
    A4        2.07631   0.00439  -0.00669   0.01944   0.01304   2.08936
    A5        2.13829  -0.00016   0.00794  -0.01109  -0.00330   2.13499
    A6        2.06858  -0.00423  -0.00125  -0.00835  -0.00974   2.05884
    A7        2.10797  -0.01070   0.00490  -0.03590  -0.03098   2.07699
    A8        2.08528   0.00523  -0.00233   0.01715   0.01481   2.10009
    A9        2.08994   0.00547  -0.00257   0.01875   0.01617   2.10611
   A10        2.06331   0.01336  -0.00643   0.04369   0.03698   2.10029
   A11        2.08929  -0.00800   0.00193  -0.02310  -0.02103   2.06826
   A12        2.13059  -0.00537   0.00451  -0.02059  -0.01595   2.11464
   A13        2.12850  -0.00586   0.02439  -0.04656  -0.02246   2.10604
   A14        2.07137   0.00447  -0.01270   0.02966   0.01711   2.08847
   A15        2.08331   0.00139  -0.01169   0.01690   0.00536   2.08867
   A16        2.07623  -0.00550  -0.02197   0.01694  -0.00506   2.07117
    D1        0.00000  -0.00000   0.00000  -0.00000   0.00000   0.00000
    D2        3.14159  -0.00000   0.00000  -0.00000   0.00000   3.14159
    D3        3.14159   0.00000   0.00000   0.00000   0.00000   3.14159
    D4        0.00000  -0.00000   0.00000   0.00000  -0.00000   0.00000
    D5       -0.00000   0.00000   0.00000   0.00000   0.00000   0.00000
    D6        3.14159  -0.00000   0.00000  -0.00000   0.00000   3.14159
    D7       -0.00000  -0.00000   0.00000  -0.00000   0.00000   0.00000
    D8        3.14159  -0.00000   0.00000  -0.00000   0.00000   3.14159
    D9        3.14159   0.00000   0.00000   0.00000   0.00000   3.14159
   D10        0.00000  -0.00000   0.00000  -0.00000  -0.00000   0.00000
   D11        0.00000   0.00000   0.00000   0.00000   0.00000   0.00000
   D12        3.14159  -0.00000   0.00000  -0.00000   0.00000   3.14159
   D13        3.14159   0.00000   0.00000   0.00000   0.00000   3.14159
   D14       -0.00000   0.00000   0.00000   0.00000   0.00000   0.00000
   D15       -0.00000  -0.00000   0.00000  -0.00000   0.00000   0.00000
   D16        3.14159  -0.00000   0.00000  -0.00000   0.00000   3.14159
   D17        3.14159   0.00000   0.00000   0.00000   0.00000   3.14159
   D18        0.00000  -0.00000   0.00000  -0.00000   0.00000   0.00000
   D19        0.00000   0.00000   0.00000   0.00000   0.00000   0.00000
   D20        3.14159   0.00000   0.00000   0.00000   0.00000   3.14159
         Item               Value     Threshold  Converged?
 Maximum Force            0.047765     0.000450     NO 
 RMS     Force            0.014896     0.000300     NO 
 Maximum Displacement     0.166893     0.001800     NO 
 RMS     Displacement     0.043657     0.001200     NO 
 Predicted change in Energy=-1.210608D-02
 GradGradGradGradGradGradGradGradGradGradGradGradGradGradGradGradGradGrad

                          Input orientation:                          
 ---------------------------------------------------------------------
 Center     Atomic      Atomic             Coordinates (Angstroms)
 Number     Number       Type             X           Y           Z
 ---------------------------------------------------------------------
      1          6           0       -3.155589    0.152348   -0.000000
      2          6           0       -1.970748    0.907486    0.000000
      3          6           0       -0.726154    0.251897    0.000000
      4          6           0       -0.696000   -1.158557    0.000000
      5          6           0       -1.894507   -1.894796   -0.000000
      6          6           0       -3.133712   -1.242251   -0.000000
      7         17           0       -4.667753    0.970207   -0.000000
      8         17           0        0.830181   -1.945524    0.000000
      9          1           0       -1.856807   -3.030368   -0.000000
     10         17           0       -1.976279    2.624233    0.000000
     11          1           0        0.247498    0.857846    0.000000
 ---------------------------------------------------------------------
                    Distance matrix (angstroms):
                    1          2          3          4          5
     1  C    0.000000
     2  C    1.405020   0.000000
     3  C    2.431474   1.406703   0.000000
     4  C    2.787122   2.427657   1.410776   0.000000
     5  C    2.404397   2.803319   2.444041   1.406579   0.000000
     6  C    1.394771   2.444147   2.833516   2.439148   1.400515
     7  Cl   1.719166   2.697734   4.006516   4.506269   3.987372
     8  Cl   4.504158   3.998109   2.692738   1.717133   2.725160
     9  H    3.437516   3.939502   3.471547   2.202532   1.136198
    10  Cl   2.738793   1.716756   2.681565   3.993572   4.519768
    11  H    3.475447   2.218802   1.146810   2.226224   3.487868
                    6          7          8          9         10
     6  C    0.000000
     7  Cl   2.692258   0.000000
     8  Cl   4.025797   6.223244   0.000000
     9  H    2.197236   4.889378   2.897722   0.000000
    10  Cl   4.036007   3.159088   5.362733   5.655863   0.000000
    11  H    3.980325   4.916535   2.863286   4.421121   2.839948
                   11
    11  H    0.000000
 Stoichiometry    C6H2Cl3(1-)
 Framework group  CS[SG(C6H2Cl3)]
 Deg. of freedom    19
 Full point group                 CS      NOp   2
 Largest Abelian subgroup         CS      NOp   2
 Largest concise Abelian subgroup C1      NOp   1
                         Standard orientation:                         
 ---------------------------------------------------------------------
 Center     Atomic      Atomic             Coordinates (Angstroms)
 Number     Number       Type             X           Y           Z
 ---------------------------------------------------------------------
      1          6           0        1.238278   -0.156530    0.000000
      2          6           0        0.000000   -0.820418   -0.000000
      3          6           0       -1.191763   -0.073081   -0.000000
      4          6           0       -1.115753    1.335646   -0.000000
      5          6           0        0.134731    1.979660    0.000000
      6          6           0        1.321349    1.235765    0.000000
      7         17           0        2.684649   -1.085801    0.000000
      8         17           0       -2.578425    2.235166   -0.000000
      9          1           0        0.182544    3.114852    0.000000
     10         17           0       -0.123600   -2.532719   -0.000000
     11          1           0       -2.208230   -0.604088   -0.000000
 ---------------------------------------------------------------------
 Rotational constants (GHZ):           1.8965322           0.6012438           0.4565174
 Standard basis: VSTO-6G (5D, 7F)
 There are    29 symmetry adapted cartesian basis functions of A'  symmetry.
 There are     9 symmetry adapted cartesian basis functions of A"  symmetry.
 There are    29 symmetry adapted basis functions of A'  symmetry.
 There are     9 symmetry adapted basis functions of A"  symmetry.
    38 basis functions,   228 primitive gaussians,    38 cartesian basis functions
    24 alpha electrons       24 beta electrons
       nuclear repulsion energy       243.2800820109 Hartrees.
 Integral buffers will be    131072 words long.
 Regular integral format.
 Two-electron integral symmetry is turned off.
 Do NDO integrals.
 One-electron integrals computed using PRISM.
 NBasis=    38 RedAO= T EigKep=  1.00D+00  NBF=    29     9
 NBsUse=    38 1.00D-06 EigRej= -1.00D+00 NBFU=    29     9
 Initial guess from the checkpoint file:  "geometry_chks/_235ClBzAnionIntermediate.chk"
 B after Tr=    -0.000000   -0.000000    0.000000
         Rot=    0.999998    0.000000   -0.000000   -0.001983 Ang=  -0.23 deg.
 Initial guess orbital symmetries:
       Occupied  (A') (A') (A') (A') (A') (A') (A') (A') (A') (A')
[...]
 Calling FoFJK, ICntrl=      2127 FMM=F ISym2X=1 I1Cent= 0 IOpClX= 0 NMat=1 NMatS=1 NMatT=0.
 ***** Axes restored to original set *****
 -------------------------------------------------------------------
 Center     Atomic                   Forces (Hartrees/Bohr)
 Number     Number              X              Y              Z
 -------------------------------------------------------------------
      1        6           0.000035284   -0.000013869    0.000000000
      2        6          -0.000047033    0.000044841   -0.000000000
      3        6           0.000016176   -0.000019469   -0.000000000
      4        6          -0.000002033    0.000009735   -0.000000000
      5        6          -0.000036641    0.000019052    0.000000000
      6        6           0.000003252    0.000003877   -0.000000000
      7       17           0.000008496   -0.000003870   -0.000000000
      8       17           0.000034625   -0.000025534    0.000000000
      9        1           0.000001064   -0.000011602   -0.000000000
     10       17          -0.000001443   -0.000012018   -0.000000000
     11        1          -0.000011748    0.000008859   -0.000000000
 -------------------------------------------------------------------
 Cartesian Forces:  Max     0.000047033 RMS     0.000017895

 GradGradGradGradGradGradGradGradGradGradGradGradGradGradGradGradGradGrad
 Berny optimization.
 Using GEDIIS/GDIIS optimizer.
 FormGI is forming the generalized inverse of G from B-inverse, IUseBI=4.
 Internal  Forces:  Max     0.000042486 RMS     0.000012278
 Search for a local minimum.
 Step number  11 out of a maximum of   57
 All quantities printed in internal units (Hartrees-Bohrs-Radians)
 Mixed Optimization -- En-DIIS/RFO-DIIS
 Swapping is turned off.
 Update second derivatives using D2CorX and points    4    5    6    8    7
                                                      9   10   11
 DE= -3.79D-07 DEPred=-3.91D-07 R= 9.69D-01
 Trust test= 9.69D-01 RLast= 1.27D-03 DXMaxT set to 4.24D-01
 ITU=  0  1  1 -1  1  1  0  0  0  1  0
     Eigenvalues ---    0.02011   0.02011   0.02011   0.02011   0.02011
     Eigenvalues ---    0.02011   0.02011   0.02011   0.15494   0.15875
     Eigenvalues ---    0.17308   0.23100   0.24641   0.24947   0.25018
     Eigenvalues ---    0.25665   0.28565   0.28910   0.29111   0.32444
     Eigenvalues ---    0.34347   0.43057   0.43714   0.44541   0.46689
     Eigenvalues ---    0.59638   0.77580
 En-DIIS/RFO-DIIS/Sim-DIIS IScMMF=       -3 using points:    11   10    9
 RFO step:  Lambda=-1.95020701D-08.
 Use linear search instead of GDIIS.
 RFO step:  Lambda=-2.08064026D-08 EMin= 2.01065570D-02
 Quartic linear search produced a step of -0.02951.
 Iteration  1 RMS(Cart)=  0.00005428 RMS(Int)=  0.00000000
 Iteration  2 RMS(Cart)=  0.00000000 RMS(Int)=  0.00000000
 ClnCor:  largest displacement from symmetrization is 1.52D-12 for atom     7.
 Variable       Old X    -DE/DX   Delta X   Delta X   Delta X     New X
                                 (Linear)    (Quad)   (Total)
    R1        2.64830  -0.00003  -0.00002  -0.00002  -0.00004   2.64826
    R2        2.62121  -0.00001  -0.00001  -0.00002  -0.00003   2.62118
    R3        3.25021  -0.00001  -0.00000  -0.00003  -0.00003   3.25018
    R4        2.64472   0.00003  -0.00001   0.00008   0.00007   2.64479
    R5        3.24985  -0.00001  -0.00000  -0.00004  -0.00004   3.24981
    R6        2.64343   0.00002   0.00000   0.00003   0.00003   2.64346
    R7        2.07275  -0.00001   0.00001  -0.00003  -0.00003   2.07272
    R8        2.63939   0.00002  -0.00000   0.00004   0.00004   2.63942
    R9        3.26169   0.00004   0.00001   0.00012   0.00013   3.26182
   R10        2.62707  -0.00002   0.00000  -0.00005  -0.00005   2.62702
   R11        2.07518   0.00001  -0.00002   0.00007   0.00005   2.07523
    A1        2.12470   0.00002   0.00000   0.00007   0.00007   2.12477
    A2        2.08223  -0.00001  -0.00001  -0.00003  -0.00003   2.08220
    A3        2.07626  -0.00001   0.00001  -0.00004  -0.00004   2.07622
    A4        2.08922  -0.00002   0.00001  -0.00007  -0.00007   2.08915
    A5        2.14099   0.00001  -0.00001   0.00004   0.00003   2.14102
    A6        2.05298   0.00001   0.00000   0.00003   0.00004   2.05301
    A7        2.06551   0.00001   0.00000   0.00003   0.00003   2.06553
    A8        2.10557  -0.00002   0.00000  -0.00011  -0.00010   2.10547
    A9        2.11211   0.00001  -0.00000   0.00008   0.00008   2.11218
   A10        2.11798  -0.00002  -0.00001  -0.00004  -0.00004   2.11794
   A11        2.06011   0.00002   0.00000   0.00006   0.00006   2.06018
   A12        2.10509  -0.00000   0.00000  -0.00003  -0.00002   2.10507
   A13        2.09868   0.00001  -0.00000   0.00003   0.00002   2.09870
   A14        2.09597  -0.00000   0.00000  -0.00002  -0.00002   2.09595
   A15        2.08854  -0.00000  -0.00000  -0.00001  -0.00001   2.08853
   A16        2.07029   0.00000   0.00000  -0.00001  -0.00001   2.07028
    D1       -0.00000  -0.00000   0.00000  -0.00000   0.00000   0.00000
    D2        3.14159  -0.00000   0.00000  -0.00000   0.00000   3.14159
    D3        3.14159   0.00000   0.00000   0.00000   0.00000   3.14159
    D4        0.00000   0.00000   0.00000   0.00000  -0.00000   0.00000
    D5       -0.00000   0.00000   0.00000   0.00000   0.00000   0.00000
    D6        3.14159  -0.00000   0.00000  -0.00000   0.00000   3.14159
    D7        0.00000   0.00000   0.00000   0.00000   0.00000   0.00000
    D8        3.14159   0.00000   0.00000   0.00000   0.00000   3.14159
    D9        3.14159   0.00000   0.00000   0.00000   0.00000   3.14159
   D10       -0.00000  -0.00000   0.00000  -0.00000   0.00000   0.00000
   D11       -0.00000   0.00000   0.00000   0.00000   0.00000   0.00000
   D12        3.14159   0.00000   0.00000   0.00000   0.00000   3.14159
   D13        3.14159   0.00000   0.00000   0.00000   0.00000   3.14159
   D14        0.00000   0.00000   0.00000   0.00000   0.00000   0.00000
   D15       -0.00000  -0.00000   0.00000  -0.00000   0.00000   0.00000
   D16        3.14159  -0.00000   0.00000  -0.00000   0.00000   3.14159
   D17        3.14159  -0.00000   0.00000  -0.00000   0.00000   3.14159
   D18       -0.00000  -0.00000   0.00000  -0.00000   0.00000   0.00000
   D19        0.00000  -0.00000   0.00000  -0.00000  -0.00000   0.00000
   D20        3.14159   0.00000   0.00000   0.00000   0.00000   3.14159
         Item               Value     Threshold  Converged?
 Maximum Force            0.000042     0.000450     YES
 RMS     Force            0.000012     0.000300     YES
 Maximum Displacement     0.000239     0.001800     YES
 RMS     Displacement     0.000054     0.001200     YES
 Predicted change in Energy=-1.075413D-08
 Optimization completed.
    -- Stationary point found.
                           ----------------------------
                           !   Optimized Parameters   !
                           ! (Angstroms and Degrees)  !
 --------------------------                            --------------------------
 ! Name  Definition              Value          Derivative Info.                !
 --------------------------------------------------------------------------------
 ! R1    R(1,2)                  1.4014         -DE/DX =    0.0                 !
 ! R2    R(1,6)                  1.3871         -DE/DX =    0.0                 !
 ! R3    R(1,7)                  1.7199         -DE/DX =    0.0                 !
 ! R4    R(2,3)                  1.3995         -DE/DX =    0.0                 !
 ! R5    R(2,10)                 1.7197         -DE/DX =    0.0                 !
 ! R6    R(3,4)                  1.3988         -DE/DX =    0.0                 !
 ! R7    R(3,11)                 1.0969         -DE/DX =    0.0                 !
 ! R8    R(4,5)                  1.3967         -DE/DX =    0.0                 !
 ! R9    R(4,8)                  1.726          -DE/DX =    0.0                 !
 ! R10   R(5,6)                  1.3902         -DE/DX =    0.0                 !
 ! R11   R(5,9)                  1.0981         -DE/DX =    0.0                 !
 ! A1    A(2,1,6)              121.7361         -DE/DX =    0.0                 !
 ! A2    A(2,1,7)              119.3029         -DE/DX =    0.0                 !
 ! A3    A(6,1,7)              118.961          -DE/DX =    0.0                 !
 ! A4    A(1,2,3)              119.7035         -DE/DX =    0.0                 !
 ! A5    A(1,2,10)             122.6695         -DE/DX =    0.0                 !
 ! A6    A(3,2,10)             117.627          -DE/DX =    0.0                 !
 ! A7    A(2,3,4)              118.3447         -DE/DX =    0.0                 !
 ! A8    A(2,3,11)             120.6404         -DE/DX =    0.0                 !
 ! A9    A(4,3,11)             121.0149         -DE/DX =    0.0                 !
 ! A10   A(3,4,5)              121.3514         -DE/DX =    0.0                 !
 ! A11   A(3,4,8)              118.0357         -DE/DX =    0.0                 !
 ! A12   A(5,4,8)              120.6128         -DE/DX =    0.0                 !
 ! A13   A(4,5,6)              120.2453         -DE/DX =    0.0                 !
 ! A14   A(4,5,9)              120.0901         -DE/DX =    0.0                 !
 ! A15   A(6,5,9)              119.6646         -DE/DX =    0.0                 !
 ! A16   A(1,6,5)              118.6189         -DE/DX =    0.0                 !
 ! D1    D(6,1,2,3)              0.0            -DE/DX =    0.0                 !
 ! D2    D(6,1,2,10)           180.0            -DE/DX =    0.0                 !
 ! D3    D(7,1,2,3)            180.0            -DE/DX =    0.0                 !
 ! D4    D(7,1,2,10)             0.0            -DE/DX =    0.0                 !
 ! D5    D(2,1,6,5)              0.0            -DE/DX =    0.0                 !
 ! D6    D(7,1,6,5)            180.0            -DE/DX =    0.0                 !
 ! D7    D(1,2,3,4)              0.0            -DE/DX =    0.0                 !
 ! D8    D(1,2,3,11)           180.0            -DE/DX =    0.0                 !
 ! D9    D(10,2,3,4)           180.0            -DE/DX =    0.0                 !
 ! D10   D(10,2,3,11)            0.0            -DE/DX =    0.0                 !
 ! D11   D(2,3,4,5)              0.0            -DE/DX =    0.0                 !
 ! D12   D(2,3,4,8)            180.0            -DE/DX =    0.0                 !
 ! D13   D(11,3,4,5)           180.0            -DE/DX =    0.0                 !
 ! D14   D(11,3,4,8)             0.0            -DE/DX =    0.0                 !
 ! D15   D(3,4,5,6)              0.0            -DE/DX =    0.0                 !
 ! D16   D(3,4,5,9)            180.0            -DE/DX =    0.0                 !
 ! D17   D(8,4,5,6)            180.0            -DE/DX =    0.0                 !
 ! D18   D(8,4,5,9)              0.0            -DE/DX =    0.0                 !
 ! D19   D(4,5,6,1)              0.0            -DE/DX =    0.0                 !
 ! D20   D(9,5,6,1)            180.0            -DE/DX =    0.0                 !
 --------------------------------------------------------------------------------
 GradGradGradGradGradGradGradGradGradGradGradGradGradGradGradGradGradGrad

                          Input orientation:                          
 ---------------------------------------------------------------------
 Center     Atomic      Atomic             Coordinates (Angstroms)
 Number     Number       Type             X           Y           Z
 ---------------------------------------------------------------------
      1          6           0       -3.144145    0.144964   -0.000000
      2          6           0       -1.963936    0.900661    0.000000
      3          6           0       -0.724403    0.250866    0.000000
      4          6           0       -0.707801   -1.147879    0.000000
      5          6           0       -1.891865   -1.888670   -0.000000
      6          6           0       -3.122463   -1.241954   -0.000000
      7         17           0       -4.661840    0.954157   -0.000000
      8         17           0        0.825192   -1.941003    0.000000
      9          1           0       -1.854665   -2.986178   -0.000000
     10         17           0       -1.962805    2.620409    0.000000
     11          1           0        0.208861    0.827147    0.000000
 ---------------------------------------------------------------------
                    Distance matrix (angstroms):
                    1          2          3          4          5
     1  C    0.000000
     2  C    1.401418   0.000000
     3  C    2.422059   1.399527   0.000000
     4  C    2.758119   2.402997   1.398844   0.000000
     5  C    2.388277   2.790262   2.437331   1.396703   0.000000
     6  C    1.387087   2.435772   2.824749   2.416495   1.390184
     7  Cl   1.719939   2.698434   3.999753   4.478055   3.969184
     8  Cl   4.484072   3.981745   2.684313   1.726011   2.717562
     9  H    3.386268   3.888375   3.428695   2.166712   1.098139
    10  Cl   2.742881   1.719749   2.673644   3.971780   4.509637
    11  H    3.421699   2.174040   1.096850   2.177383   3.433469
                    6          7          8          9         10
     6  C    0.000000
     7  Cl   2.681899   0.000000
     8  Cl   4.009072   6.203989   0.000000
     9  H    2.156301   4.838024   2.876461   0.000000
    10  Cl   4.032699   3.171938   5.345972   5.607631   0.000000
    11  H    3.921594   4.872356   2.835934   4.335849   2.816366
                   11
    11  H    0.000000
 Stoichiometry    C6H2Cl3(1-)
 Framework group  CS[SG(C6H2Cl3)]
 Deg. of freedom    19
 Full point group                 CS      NOp   2
 Largest Abelian subgroup         CS      NOp   2
 Largest concise Abelian subgroup C1      NOp   1
                         Standard orientation:                         
 ---------------------------------------------------------------------
 Center     Atomic      Atomic             Coordinates (Angstroms)
 Number     Number       Type             X           Y           Z
 ---------------------------------------------------------------------
      1          6           0        1.231528   -0.147228   -0.000000
      2          6           0       -0.000000   -0.816041    0.000000
      3          6           0       -1.189562   -0.078737    0.000000
      4          6           0       -1.105471    1.317577    0.000000
      5          6           0        0.128830    1.971245   -0.000000
      6          6           0        1.309702    1.237655   -0.000000
      7         17           0        2.687061   -1.063533   -0.000000
      8         17           0       -2.577418    2.218956    0.000000
      9          1           0        0.170700    3.068586   -0.000000
     10         17           0       -0.124877   -2.531250    0.000000
     11          1           0       -2.161874   -0.586368    0.000000
 ---------------------------------------------------------------------
 Rotational constants (GHZ):           1.8932098           0.6063733           0.4592734

 **********************************************************************

            Population analysis using the SCF Density.

 **********************************************************************

 Orbital symmetries:
       Occupied  (A') (A') (A') (A') (A') (A') (A') (A') (A') (A')
                 (A') (A') (A") (A") (A') (A") (A') (A') (A') (A")
                 (A') (A") (A") (A')
       Virtual   (A") (A") (A') (A') (A') (A") (A') (A') (A') (A')
                 (A') (A') (A') (A')
 The electronic state is 1-A'.
 Alpha  occ. eigenvalues --   -1.28764  -1.24060  -1.21779  -1.19458  -0.97297
 Alpha  occ. eigenvalues --   -0.95632  -0.69363  -0.67511  -0.50541  -0.45486
 Alpha  occ. eigenvalues --   -0.44258  -0.40504  -0.39154  -0.35086  -0.34905
 Alpha  occ. eigenvalues --   -0.31821  -0.31308  -0.31004  -0.29223  -0.27273
 Alpha  occ. eigenvalues --   -0.26627  -0.18617  -0.17207  -0.12069
 Alpha virt. eigenvalues --    0.16706   0.18420   0.18683   0.19924   0.22411
 Alpha virt. eigenvalues --    0.28187   0.29591   0.31199   0.32731   0.33241
 Alpha virt. eigenvalues --    0.34333   0.35283   0.38550   0.40342
          Condensed to atoms (all electrons):
               1          2          3          4          5          6
     1  C    4.057808   0.000000   0.000000   0.000000   0.000000   0.000000
     2  C    0.000000   4.059722   0.000000   0.000000   0.000000   0.000000
     3  C    0.000000   0.000000   4.211392   0.000000   0.000000   0.000000
     4  C    0.000000   0.000000   0.000000   4.062665   0.000000   0.000000
     5  C    0.000000   0.000000   0.000000   0.000000   4.139544   0.000000
     6  C    0.000000   0.000000   0.000000   0.000000   0.000000   4.356457
     7  Cl   0.000000   0.000000   0.000000   0.000000   0.000000   0.000000
     8  Cl   0.000000   0.000000   0.000000   0.000000   0.000000   0.000000
     9  H    0.000000   0.000000   0.000000   0.000000   0.000000   0.000000
    10  Cl   0.000000   0.000000   0.000000   0.000000   0.000000   0.000000
    11  H    0.000000   0.000000   0.000000   0.000000   0.000000   0.000000
               7          8          9         10         11
     1  C    0.000000   0.000000   0.000000   0.000000   0.000000
     2  C    0.000000   0.000000   0.000000   0.000000   0.000000
     3  C    0.000000   0.000000   0.000000   0.000000   0.000000
     4  C    0.000000   0.000000   0.000000   0.000000   0.000000
     5  C    0.000000   0.000000   0.000000   0.000000   0.000000
     6  C    0.000000   0.000000   0.000000   0.000000   0.000000
     7  Cl   7.105851   0.000000   0.000000   0.000000   0.000000
     8  Cl   0.000000   7.130977   0.000000   0.000000   0.000000
     9  H    0.000000   0.000000   0.890773   0.000000   0.000000
    10  Cl   0.000000   0.000000   0.000000   7.105930   0.000000
    11  H    0.000000   0.000000   0.000000   0.000000   0.878882
 Mulliken charges:
               1
     1  C   -0.057808
     2  C   -0.059722
     3  C   -0.211392
     4  C   -0.062665
     5  C   -0.139544
     6  C   -0.356457
     7  Cl  -0.105851
     8  Cl  -0.130977
     9  H    0.109227
    10  Cl  -0.105930
    11  H    0.121118
 Sum of Mulliken charges =  -1.00000
 Mulliken charges with hydrogens summed into heavy atoms:
               1
     1  C   -0.057808
     2  C   -0.059722
     3  C   -0.090274
     4  C   -0.062665
     5  C   -0.030316
     6  C   -0.356457
     7  Cl  -0.105851
     8  Cl  -0.130977
    10  Cl  -0.105930
 Charge=             -1.0000 electrons
 Dipole moment (field-independent basis, Debye):
    X=             -3.7946    Y=             -2.8319    Z=              0.0000  Tot=              4.7348
 N-N= 2.438939519008D+02 E-N=-3.468552313432D+02  KE=-1.141043492145D+02
 Symmetry A'   KE=-8.805082910407D+01
 Symmetry A"   KE=-2.605352011044D+01
 1\1\GINC-SH03-01N69\FOpt\RAM1\ZDO\C6H2Cl3(1-)\JLAPIER\08-Dec-2025\0\\#
  opt am1 SCF(maxcyc=10000)\\Anion Intermediate (removed 1) _235\\-1,1\
 C,-3.1441453355,0.1449636035,0.\C,-1.9639358071,0.9006612877,0.\C,-0.7
 244031852,0.2508661755,0.\C,-0.7078005703,-1.1478789843,0.\C,-1.891865
 4776,-1.8886695885,0.\C,-3.1224633742,-1.2419538247,0.\Cl,-4.661839774
 ,0.9541567186,0.\Cl,0.8251923758,-1.941003439,0.\H,-1.8546647489,-2.98
 61784898,0.\Cl,-1.9628046181,2.620409469,0.\H,0.2088605151,0.827147071
 9,0.\\Version=ES64L-G16RevB.01\State=1-A'\HF=0.0247206\RMSD=2.248e-09\
 RMSF=1.790e-05\Dipole=1.4088624,1.218696,0.\PG=CS [SG(C6H2Cl3)]\\@


 ONE OF THE BENEFITS OF A COLLEGE EDUCATION
 IS TO SHOW THE BOY ITS LITTLE AVAIL 
                                    EMERSON IN 'CULTURE'
 Job cpu time:       0 days  0 hours  0 minutes  3.7 seconds.
 Elapsed time:       0 days  0 hours  0 minutes 23.5 seconds.
 File lengths (MBytes):  RWF=     10 Int=      0 D2E=      0 Chk=      2 Scr=      1
 Normal termination of Gaussian 16 at Mon Dec  8 17:08:55 2025.
