 Entering Gaussian System, Link 0=g16
 Initial command:
 /share/software/user/restricted/gaussian/g16.B01/l1.exe "/home/users/jlapier/Chloroaromatics/Gau-17616.inp" -scrdir="/home/users/jlapier/Chloroaromatics/"
 Entering Link 1 = /share/software/user/restricted/gaussian/g16.B01/l1.exe PID=     17617.
  
 Copyright (c) 1988-2017, Gaussian, Inc.  All Rights Reserved.
  
 This is part of the Gaussian(R) 16 program.  It is based on
 the Gaussian(R) 09 system (copyright 2009, Gaussian, Inc.),
 the Gaussian(R) 03 system (copyright 2003, Gaussian, Inc.),
 the Gaussian(R) 98 system (copyright 1998, Gaussian, Inc.),
 the Gaussian(R) 94 system (copyright 1995, Gaussian, Inc.),
 the Gaussian 92(TM) system (copyright 1992, Gaussian, Inc.),
 the Gaussian 90(TM) system (copyright 1990, Gaussian, Inc.),
 the Gaussian 88(TM) system (copyright 1988, Gaussian, Inc.),
 the Gaussian 86(TM) system (copyright 1986, Carnegie Mellon
 University), and the Gaussian 82(TM) system (copyright 1983,
 Carnegie Mellon University). Gaussian is a federally registered
 trademark of Gaussian, Inc.
  
 This software contains proprietary and confidential information,
 including trade secrets, belonging to Gaussian, Inc.
  
 This software is provided under written license and may be
 used, copied, transmitted, or stored only in accord with that
 written license.
  
 The following legend is applicable only to US Government
 contracts under FAR:
  
                    RESTRICTED RIGHTS LEGEND
  
 Use, reproduction and disclosure by the US Government is
 subject to restrictions as set forth in subparagraphs (a)
 and (c) of the Commercial Computer Software - Restricted
 Rights clause in FAR 52.227-19.
  
 Gaussian, Inc.
 340 Quinnipiac St., Bldg. 40, Wallingford CT 06492
  
  
 ---------------------------------------------------------------
 Warning -- This program may not be used in any manner that
 competes with the business of Gaussian, Inc. or will provide
 assistance to any competitor of Gaussian, Inc.  The licensee
 of this program is prohibited from giving any competitor of
 Gaussian, Inc. access to this program.  By using this program,
 the user acknowledges that Gaussian, Inc. is engaged in the
 business of creating and licensing software in the field of
 computational chemistry and represents and warrants to the
 licensee that it is not a competitor of Gaussian, Inc. and that
 it will not use this program in any manner prohibited above.
 ---------------------------------------------------------------
  

 Cite this work as:
 Gaussian 16, Revision B.01,
 M. J. Frisch, G. W. Trucks, H. B. Schlegel, G. E. Scuseria, 
 M. A. Robb, J. R. Cheeseman, G. Scalmani, V. Barone, 
 G. A. Petersson, H. Nakatsuji, X. Li, M. Caricato, A. V. Marenich, 
 J. Bloino, B. G. Janesko, R. Gomperts, B. Mennucci, H. P. Hratchian, 
 J. V. Ortiz, A. F. Izmaylov, J. L. Sonnenberg, D. Williams-Young, 
 F. Ding, F. Lipparini, F. Egidi, J. Goings, B. Peng, A. Petrone, 
 T. Henderson, D. Ranasinghe, V. G. Zakrzewski, J. Gao, N. Rega, 
 G. Zheng, W. Liang, M. Hada, M. Ehara, K. Toyota, R. Fukuda, 
 J. Hasegawa, M. Ishida, T. Nakajima, Y. Honda, O. Kitao, H. Nakai, 
 T. Vreven, K. Throssell, J. A. Montgomery, Jr., J. E. Peralta, 
 F. Ogliaro, M. J. Bearpark, J. J. Heyd, E. N. Brothers, K. N. Kudin, 
 V. N. Staroverov, T. A. Keith, R. Kobayashi, J. Normand, 
 K. Raghavachari, A. P. Rendell, J. C. Burant, S. S. Iyengar, 
 J. Tomasi, M. Cossi, J. M. Millam, M. Klene, C. Adamo, R. Cammi, 
 J. W. Ochterski, R. L. Martin, K. Morokuma, O. Farkas, 
 J. B. Foresman, and D. J. Fox, Gaussian, Inc., Wallingford CT, 2016.
 
 ******************************************
 Gaussian 16:  ES64L-G16RevB.01 20-Dec-2017
                 8-Dec-2025 
 ******************************************
 %mem=2GB
 %nprocshare=1
 Will use up to    1 processors via shared memory.
 %chk=geometry_chks/_23ClBzAnionIntermediate.chk
 ---------------------------
 # opt am1 SCF(maxcyc=10000)
 ---------------------------
 1/18=20,19=15,26=1,38=1/1,3;
 2/9=110,12=2,17=6,18=5,40=1/2;
 3/5=2,25=1,41=700000,71=1/1,2,3;
 4/35=1/1;
 5/5=2,7=10000,35=1,38=5/2;
 6/7=2,8=2,9=2,10=2,28=1/1;
 7//1,2,3,16;
 1/18=20,19=15,26=1/3(2);
 2/9=110/2;
 99//99;
 2/9=110/2;
 3/5=2,25=1,41=700000,71=1,135=20/1,2,3;
 4/5=5,16=3,35=1/1;
 5/5=2,7=10000,35=1,38=5/2;
 7//1,2,3,16;
 1/18=20,19=15,26=1/3(-5);
 2/9=110/2;
 6/7=2,8=2,9=2,10=2,19=2,28=1/1;
 99/9=1/99;
 ----------------------------------
 Anion Intermediate (removed 1) _23
 ----------------------------------
 Symbolic Z-matrix:
 Charge = -1 Multiplicity = 1
 C                    -3.20928   0.19943   0. 
 C                    -2.0115    0.93555   0. 
 C                    -0.77511   0.2663    0. 
 C                    -0.7365   -1.13907   0. 
 C                    -1.93429  -1.87519   0. 
 C                    -3.17067  -1.20594   0. 
 Cl                   -4.76193   1.03987   0. 
 Cl                    0.81614  -1.97951   0. 
 H                    -1.8858   -3.64003   0. 
 H                    -2.05998   2.7004    0. 
 H                     0.72905   1.19071   0. 
 
 Add virtual bond connecting atoms H9         and C5         Dist= 3.34D+00.
 Add virtual bond connecting atoms H11        and C3         Dist= 3.34D+00.
 Add virtual bond connecting atoms H10        and C2         Dist= 3.34D+00.

 GradGradGradGradGradGradGradGradGradGradGradGradGradGradGradGradGradGrad
 Berny optimization.
 Initialization pass.
                           ----------------------------
                           !    Initial Parameters    !
                           ! (Angstroms and Degrees)  !
 --------------------------                            --------------------------
 ! Name  Definition              Value          Derivative Info.                !
 --------------------------------------------------------------------------------
 ! R1    R(1,2)                  1.4059         estimate D2E/DX2                !
 ! R2    R(1,6)                  1.4059         estimate D2E/DX2                !
 ! R3    R(1,7)                  1.7655         estimate D2E/DX2                !
 ! R4    R(2,3)                  1.4059         estimate D2E/DX2                !
 ! R5    R(2,10)                 1.7655         estimate D2E/DX2                !
 ! R6    R(3,4)                  1.4059         estimate D2E/DX2                !
 ! R7    R(3,11)                 1.7655         estimate D2E/DX2                !
 ! R8    R(4,5)                  1.4059         estimate D2E/DX2                !
 ! R9    R(4,8)                  1.7655         estimate D2E/DX2                !
 ! R10   R(5,6)                  1.4059         estimate D2E/DX2                !
 ! R11   R(5,9)                  1.7655         estimate D2E/DX2                !
 ! A1    A(2,1,6)              119.9999         estimate D2E/DX2                !
 ! A2    A(2,1,7)              119.9999         estimate D2E/DX2                !
 ! A3    A(6,1,7)              120.0001         estimate D2E/DX2                !
 ! A4    A(1,2,3)              120.0            estimate D2E/DX2                !
 ! A5    A(1,2,10)             120.0001         estimate D2E/DX2                !
 ! A6    A(3,2,10)             119.9999         estimate D2E/DX2                !
 ! A7    A(2,3,4)              120.0001         estimate D2E/DX2                !
 ! A8    A(2,3,11)             120.0            estimate D2E/DX2                !
 ! A9    A(4,3,11)             119.9999         estimate D2E/DX2                !
 ! A10   A(3,4,5)              119.9997         estimate D2E/DX2                !
 ! A11   A(3,4,8)              120.0003         estimate D2E/DX2                !
 ! A12   A(5,4,8)              120.0            estimate D2E/DX2                !
 ! A13   A(4,5,6)              120.0            estimate D2E/DX2                !
 ! A14   A(4,5,9)              119.9996         estimate D2E/DX2                !
 ! A15   A(6,5,9)              120.0004         estimate D2E/DX2                !
 ! A16   A(1,6,5)              120.0003         estimate D2E/DX2                !
 ! D1    D(6,1,2,3)              0.0            estimate D2E/DX2                !
 ! D2    D(6,1,2,10)           180.0            estimate D2E/DX2                !
 ! D3    D(7,1,2,3)            180.0            estimate D2E/DX2                !
 ! D4    D(7,1,2,10)             0.0            estimate D2E/DX2                !
 ! D5    D(2,1,6,5)              0.0            estimate D2E/DX2                !
 ! D6    D(7,1,6,5)            180.0            estimate D2E/DX2                !
 ! D7    D(1,2,3,4)              0.0            estimate D2E/DX2                !
 ! D8    D(1,2,3,11)           180.0            estimate D2E/DX2                !
 ! D9    D(10,2,3,4)           180.0            estimate D2E/DX2                !
 ! D10   D(10,2,3,11)            0.0            estimate D2E/DX2                !
 ! D11   D(2,3,4,5)              0.0            estimate D2E/DX2                !
 ! D12   D(2,3,4,8)            180.0            estimate D2E/DX2                !
 ! D13   D(11,3,4,5)           180.0            estimate D2E/DX2                !
 ! D14   D(11,3,4,8)             0.0            estimate D2E/DX2                !
 ! D15   D(3,4,5,6)              0.0            estimate D2E/DX2                !
 ! D16   D(3,4,5,9)            180.0            estimate D2E/DX2                !
 ! D17   D(8,4,5,6)            180.0            estimate D2E/DX2                !
 ! D18   D(8,4,5,9)              0.0            estimate D2E/DX2                !
 ! D19   D(4,5,6,1)              0.0            estimate D2E/DX2                !
 ! D20   D(9,5,6,1)            180.0            estimate D2E/DX2                !
 --------------------------------------------------------------------------------
 Trust Radius=3.00D-01 FncErr=1.00D-07 GrdErr=1.00D-07 EigMax=2.50D+02 EigMin=1.00D-04
 Number of steps in this run=     57 maximum allowed number of steps=    100.
 GradGradGradGradGradGradGradGradGradGradGradGradGradGradGradGradGradGrad

                          Input orientation:                          
 ---------------------------------------------------------------------
 Center     Atomic      Atomic             Coordinates (Angstroms)
 Number     Number       Type             X           Y           Z
 ---------------------------------------------------------------------
      1          6           0       -3.209280    0.199430    0.000000
      2          6           0       -2.011500    0.935550    0.000000
      3          6           0       -0.775110    0.266300    0.000000
      4          6           0       -0.736500   -1.139070    0.000000
      5          6           0       -1.934290   -1.875190    0.000000
      6          6           0       -3.170670   -1.205940    0.000000
      7         17           0       -4.761930    1.039870    0.000000
      8         17           0        0.816140   -1.979510    0.000000
      9          1           0       -1.885800   -3.640030    0.000000
     10          1           0       -2.059980    2.700400    0.000000
     11          1           0        0.729050    1.190710    0.000000
 ---------------------------------------------------------------------
                    Distance matrix (angstroms):
                    1          2          3          4          5
     1  C    0.000000
     2  C    1.405898   0.000000
     3  C    2.435088   1.405900   0.000000
     4  C    2.811801   2.435092   1.405900   0.000000
     5  C    2.435087   2.811800   2.435093   1.405907   0.000000
     6  C    1.405900   2.435088   2.811796   2.435088   1.405892
     7  Cl   1.765520   2.752408   4.061175   4.577321   4.061173
     8  Cl   4.577312   4.061173   2.752406   1.765511   2.752408
     9  H    4.061164   4.577306   4.061163   2.752397   1.765506
    10  H    2.752406   1.765516   2.752405   4.061173   4.577316
    11  H    4.061167   2.752403   1.765512   2.752401   4.061173
                    6          7          8          9         10
     6  C    0.000000
     7  Cl   2.752412   0.000000
     8  Cl   4.061165   6.342832   0.000000
     9  H    2.752396   5.493049   3.171404   0.000000
    10  H    4.061173   3.171418   5.493052   6.342822   0.000000
    11  H    4.577308   5.493051   3.171416   5.493040   3.171412
                   11
    11  H    0.000000
 Stoichiometry    C6H3Cl2(1-)
 Framework group  CS[SG(C6H3Cl2)]
 Deg. of freedom    19
 Full point group                 CS      NOp   2
 Largest Abelian subgroup         CS      NOp   2
 Largest concise Abelian subgroup C1      NOp   1
                         Standard orientation:                         
 ---------------------------------------------------------------------
 Center     Atomic      Atomic             Coordinates (Angstroms)
 Number     Number       Type             X           Y           Z
 ---------------------------------------------------------------------
      1          6           0        0.037622    1.427619   -0.000000
      2          6           0       -1.179922    0.724671    0.000000
      3          6           0       -1.179922   -0.681229    0.000000
      4          6           0        0.037622   -1.384181   -0.000000
      5          6           0        1.255171   -0.681224   -0.000000
      6          6           0        1.255166    0.724667   -0.000000
      7         17           0        0.037622    3.193140   -0.000000
      8         17           0        0.037627   -3.149693   -0.000000
      9          1           0        2.784140   -1.563984   -0.000000
     10          1           0       -2.708905    1.607427    0.000000
     11          1           0       -2.708900   -1.563985    0.000000
 ---------------------------------------------------------------------
 Rotational constants (GHZ):           5.3831303           0.6461043           0.5768666
 Standard basis: VSTO-6G (5D, 7F)
 There are    27 symmetry adapted cartesian basis functions of A'  symmetry.
 There are     8 symmetry adapted cartesian basis functions of A"  symmetry.
 There are    27 symmetry adapted basis functions of A'  symmetry.
 There are     8 symmetry adapted basis functions of A"  symmetry.
    35 basis functions,   210 primitive gaussians,    35 cartesian basis functions
    21 alpha electrons       21 beta electrons
       nuclear repulsion energy       190.1618074075 Hartrees.
 Integral buffers will be    131072 words long.
 Regular integral format.
 Two-electron integral symmetry is turned off.
 Do NDO integrals.
 One-electron integrals computed using PRISM.
 NBasis=    35 RedAO= T EigKep=  1.00D+00  NBF=    27     8
 NBsUse=    35 1.00D-06 EigRej= -1.00D+00 NBFU=    27     8
 Simple Huckel Guess.
 Initial guess orbital symmetries:
       Occupied  (A') (A') (A') (A') (A') (A') (A') (A') (A") (A')
                 (A') (A') (A') (A") (A') (A") (A") (A') (A') (A")
                 (A')
       Virtual   (A') (A") (A") (A') (A') (A") (A') (A') (A') (A')
                 (A') (A') (A') (A')
 The electronic state of the initial guess is 1-A'.
 Keep J ints in memory in canonical form, NReq=862793.
 Overlap will be assumed to be unity.
 Requested convergence on RMS density matrix=1.00D-08 within**** cycles.
 Requested convergence on MAX density matrix=1.00D-06.
 Requested convergence on             energy=1.00D-06.
 No special actions if energy rises.
 Fock symm off for IB=2 I1=    1 I=   28 J=   27 Cut=1.00D-07 Err=7.92D-03
 Fock matrix is not symmetric: symmetry in diagonalization turned off.
 SCF Done:  E(RAM1) =  0.411942737819     A.U. after   17 cycles
            NFock= 16  Conv=0.55D-08     -V/T= 1.0045

 **********************************************************************

            Population analysis using the SCF Density.

 **********************************************************************

 Orbital symmetries:
       Occupied  (A') (A') (A') (A') (A') (A') (A') (A') (A') (A')
                 (A") (A") (A') (A') (A") (A') (A') (A') (A") (A")
                 (A')
       Virtual   (A') (A') (A") (A') (A") (A') (A') (A") (A') (A')
                 (A') (A') (A') (A')
 The electronic state is 1-A'.
 Alpha  occ. eigenvalues --   -1.24161  -1.21158  -1.18039  -0.93627  -0.89965
 Alpha  occ. eigenvalues --   -0.65241  -0.61379  -0.42731  -0.41976  -0.40677
 Alpha  occ. eigenvalues --   -0.36241  -0.32668  -0.30181  -0.27866  -0.27427
 Alpha  occ. eigenvalues --   -0.27055  -0.26649  -0.22348  -0.18295  -0.16490
 Alpha  occ. eigenvalues --   -0.11240
 Alpha virt. eigenvalues --    0.14615   0.16120   0.17528   0.18980   0.19625
 Alpha virt. eigenvalues --    0.19668   0.22455   0.28592   0.32979   0.33451
 Alpha virt. eigenvalues --    0.35360   0.35687   0.38112   0.40744
          Condensed to atoms (all electrons):
               1          2          3          4          5          6
     1  C    4.049960   0.000000   0.000000   0.000000   0.000000   0.000000
     2  C    0.000000   4.115299   0.000000   0.000000   0.000000   0.000000
     3  C    0.000000   0.000000   4.184767   0.000000   0.000000   0.000000
     4  C    0.000000   0.000000   0.000000   4.050203   0.000000   0.000000
     5  C    0.000000   0.000000   0.000000   0.000000   4.114055   0.000000
     6  C    0.000000   0.000000   0.000000   0.000000   0.000000   4.362885
     7  Cl   0.000000   0.000000   0.000000   0.000000   0.000000   0.000000
     8  Cl   0.000000   0.000000   0.000000   0.000000   0.000000   0.000000
     9  H    0.000000   0.000000   0.000000   0.000000   0.000000   0.000000
    10  H    0.000000   0.000000   0.000000   0.000000   0.000000   0.000000
    11  H    0.000000   0.000000   0.000000   0.000000   0.000000   0.000000
               7          8          9         10         11
     1  C    0.000000   0.000000   0.000000   0.000000   0.000000
     2  C    0.000000   0.000000   0.000000   0.000000   0.000000
     3  C    0.000000   0.000000   0.000000   0.000000   0.000000
     4  C    0.000000   0.000000   0.000000   0.000000   0.000000
     5  C    0.000000   0.000000   0.000000   0.000000   0.000000
     6  C    0.000000   0.000000   0.000000   0.000000   0.000000
     7  Cl   7.137267   0.000000   0.000000   0.000000   0.000000
     8  Cl   0.000000   7.148359   0.000000   0.000000   0.000000
     9  H    0.000000   0.000000   0.945188   0.000000   0.000000
    10  H    0.000000   0.000000   0.000000   0.960232   0.000000
    11  H    0.000000   0.000000   0.000000   0.000000   0.931786
 Mulliken charges:
               1
     1  C   -0.049960
     2  C   -0.115299
     3  C   -0.184767
     4  C   -0.050203
     5  C   -0.114055
     6  C   -0.362885
     7  Cl  -0.137267
     8  Cl  -0.148359
     9  H    0.054812
    10  H    0.039768
    11  H    0.068214
 Sum of Mulliken charges =  -1.00000
 Mulliken charges with hydrogens summed into heavy atoms:
               1
     1  C   -0.049960
     2  C   -0.075531
     3  C   -0.116553
     4  C   -0.050203
     5  C   -0.059243
     6  C   -0.362885
     7  Cl  -0.137267
     8  Cl  -0.148359
 Charge=             -1.0000 electrons
 Dipole moment (field-independent basis, Debye):
    X=             -3.4660    Y=             -2.0874    Z=              0.0000  Tot=              4.0461
 N-N= 1.901618074075D+02 E-N=-2.665550691507D+02  KE=-9.143639334811D+01
 Symmetry A'   KE=-7.098726892049D+01
 Symmetry A"   KE=-2.044912442762D+01
 Calling FoFJK, ICntrl=      2127 FMM=F ISym2X=1 I1Cent= 0 IOpClX= 0 NMat=1 NMatS=1 NMatT=0.
 ***** Axes restored to original set *****
 -------------------------------------------------------------------
 Center     Atomic                   Forces (Hartrees/Bohr)
 Number     Number              X              Y              Z
 -------------------------------------------------------------------
      1        6           0.011486569   -0.006775048   -0.000000000
      2        6           0.017802631    0.072904109    0.000000000
      3        6           0.047331084    0.056151037   -0.000000000
      4        6           0.006178370   -0.011070012    0.000000000
      5        6          -0.012388370   -0.046860991   -0.000000000
      6        6           0.022263982   -0.006297021    0.000000000
      7       17           0.023617270   -0.010648927    0.000000000
      8       17          -0.018233924    0.012743096    0.000000000
      9        1          -0.002464101    0.115778681    0.000000000
     10        1           0.004116497   -0.114038343    0.000000000
     11        1          -0.099710007   -0.061886580    0.000000000
 -------------------------------------------------------------------
 Cartesian Forces:  Max     0.115778681 RMS     0.041053908

 GradGradGradGradGradGradGradGradGradGradGradGradGradGradGradGradGradGrad
 Berny optimization.
 FormGI is forming the generalized inverse of G from B-inverse, IUseBI=4.
 Internal  Forces:  Max     0.117353167 RMS     0.033107233
 Search for a local minimum.
 Step number   1 out of a maximum of   57
 All quantities printed in internal units (Hartrees-Bohrs-Radians)
 Mixed Optimization -- RFO/linear search
 Second derivative matrix not updated -- first step.
 ITU=  0
     Eigenvalues ---    0.02011   0.02011   0.02011   0.02011   0.02011
     Eigenvalues ---    0.02011   0.02011   0.02011   0.06524   0.06524
     Eigenvalues ---    0.06524   0.16000   0.16000   0.16000   0.22319
     Eigenvalues ---    0.23429   0.24560   0.25000   0.25000   0.29033
     Eigenvalues ---    0.29033   0.40926   0.41421   0.44656   0.44657
     Eigenvalues ---    0.44657   0.44657
 RFO step:  Lambda=-1.82094808D-01 EMin= 2.01065650D-02
 Linear search not attempted -- first point.
 Maximum step size (   0.300) exceeded in Quadratic search.
    -- Step size scaled by   0.361
 Iteration  1 RMS(Cart)=  0.05081486 RMS(Int)=  0.00005431
 Iteration  2 RMS(Cart)=  0.00009096 RMS(Int)=  0.00000566
 Iteration  3 RMS(Cart)=  0.00000001 RMS(Int)=  0.00000566
 ClnCor:  largest displacement from symmetrization is 5.38D-11 for atom    11.
 Variable       Old X    -DE/DX   Delta X   Delta X   Delta X     New X
                                 (Linear)    (Quad)   (Total)
    R1        2.65676  -0.02868   0.00000  -0.01637  -0.01638   2.64038
    R2        2.65677  -0.03054   0.00000  -0.01741  -0.01741   2.63936
    R3        3.33635  -0.02584   0.00000  -0.01973  -0.01973   3.31662
    R4        2.65677  -0.05538   0.00000  -0.03180  -0.03181   2.62495
    R5        3.33634  -0.11411   0.00000  -0.16640  -0.16640   3.16994
    R6        2.65677  -0.03385   0.00000  -0.01954  -0.01954   2.63723
    R7        3.33633  -0.11735   0.00000  -0.17113  -0.17113   3.16520
    R8        2.65678  -0.03120   0.00000  -0.01798  -0.01798   2.63880
    R9        3.33633  -0.02210   0.00000  -0.01687  -0.01687   3.31946
   R10        2.65675  -0.04522   0.00000  -0.02591  -0.02590   2.63085
   R11        3.33632  -0.11580   0.00000  -0.16887  -0.16887   3.16745
    A1        2.09439   0.00494   0.00000   0.00418   0.00417   2.09856
    A2        2.09439  -0.00560   0.00000  -0.00470  -0.00470   2.08970
    A3        2.09440   0.00066   0.00000   0.00052   0.00053   2.09493
    A4        2.09439   0.00366   0.00000   0.00311   0.00310   2.09749
    A5        2.09440  -0.00019   0.00000   0.00017   0.00018   2.09458
    A6        2.09439  -0.00347   0.00000  -0.00329  -0.00328   2.09112
    A7        2.09440   0.00151   0.00000   0.00087   0.00086   2.09526
    A8        2.09440   0.00011   0.00000   0.00048   0.00048   2.09488
    A9        2.09439  -0.00162   0.00000  -0.00134  -0.00134   2.09305
   A10        2.09439  -0.01071   0.00000  -0.00946  -0.00945   2.08494
   A11        2.09440   0.00114   0.00000   0.00121   0.00121   2.09561
   A12        2.09440   0.00957   0.00000   0.00825   0.00825   2.10264
   A13        2.09439   0.01892   0.00000   0.01664   0.01665   2.11105
   A14        2.09439  -0.01066   0.00000  -0.00958  -0.00959   2.08480
   A15        2.09440  -0.00826   0.00000  -0.00706  -0.00707   2.08734
   A16        2.09440  -0.01833   0.00000  -0.01533  -0.01533   2.07908
    D1        0.00000   0.00000   0.00000   0.00000  -0.00000   0.00000
    D2        3.14159   0.00000   0.00000   0.00000   0.00000   3.14159
    D3        3.14159  -0.00000   0.00000  -0.00000   0.00000   3.14159
    D4       -0.00000  -0.00000   0.00000  -0.00000   0.00000   0.00000
    D5       -0.00000  -0.00000   0.00000  -0.00000   0.00000   0.00000
    D6        3.14159   0.00000   0.00000   0.00000   0.00000   3.14159
    D7       -0.00000  -0.00000   0.00000  -0.00000   0.00000   0.00000
    D8        3.14159   0.00000   0.00000   0.00000   0.00000   3.14159
    D9        3.14159  -0.00000   0.00000  -0.00000   0.00000   3.14159
   D10        0.00000   0.00000   0.00000  -0.00000  -0.00000   0.00000
   D11        0.00000   0.00000   0.00000   0.00000   0.00000   0.00000
   D12        3.14159   0.00000   0.00000   0.00000   0.00000   3.14159
   D13        3.14159  -0.00000   0.00000  -0.00000   0.00000   3.14159
   D14       -0.00000  -0.00000   0.00000  -0.00000   0.00000   0.00000
   D15       -0.00000  -0.00000   0.00000  -0.00000   0.00000   0.00000
   D16        3.14159   0.00000   0.00000   0.00000   0.00000   3.14159
   D17        3.14159  -0.00000   0.00000  -0.00000   0.00000   3.14159
   D18        0.00000   0.00000   0.00000   0.00000   0.00000   0.00000
   D19        0.00000   0.00000   0.00000  -0.00000   0.00000   0.00000
   D20        3.14159  -0.00000   0.00000  -0.00000   0.00000   3.14159
         Item               Value     Threshold  Converged?
 Maximum Force            0.117353     0.000450     NO 
 RMS     Force            0.033107     0.000300     NO 
 Maximum Displacement     0.211589     0.001800     NO 
 RMS     Displacement     0.050803     0.001200     NO 
 Predicted change in Energy=-6.202729D-02
 GradGradGradGradGradGradGradGradGradGradGradGradGradGradGradGradGradGrad

                          Input orientation:                          
 ---------------------------------------------------------------------
 Center     Atomic      Atomic             Coordinates (Angstroms)
 Number     Number       Type             X           Y           Z
 ---------------------------------------------------------------------
      1          6           0       -3.192585    0.194046   -0.000000
      2          6           0       -2.001377    0.924300   -0.000000
      3          6           0       -0.778484    0.265485    0.000000
      4          6           0       -0.736193   -1.129437    0.000000
      5          6           0       -1.930687   -1.852694    0.000000
      6          6           0       -3.161605   -1.202297   -0.000000
      7         17           0       -4.731172    1.038476   -0.000000
      8         17           0        0.809958   -1.963103    0.000000
      9          1           0       -1.879667   -3.528062    0.000000
     10          1           0       -2.045265    2.601187   -0.000000
     11          1           0        0.647206    1.144619    0.000000
 ---------------------------------------------------------------------
                    Distance matrix (angstroms):
                    1          2          3          4          5
     1  C    0.000000
     2  C    1.397229   0.000000
     3  C    2.415158   1.389066   0.000000
     4  C    2.790246   2.412162   1.395563   0.000000
     5  C    2.404482   2.777894   2.411277   1.396395   0.000000
     6  C    1.396687   2.422508   2.798866   2.426506   1.392184
     7  Cl   1.755081   2.732182   4.027562   4.545294   4.025118
     8  Cl   4.546828   4.029975   2.736740   1.756582   2.742869
     9  H    3.946878   4.454025   3.950139   2.657242   1.676144
    10  H    2.666584   1.677461   2.657111   3.953634   4.455355
    11  H    3.955703   2.657730   1.674953   2.661790   3.953407
                    6          7          8          9         10
     6  C    0.000000
     7  Cl   2.735800   0.000000
     8  Cl   4.043778   6.301872   0.000000
     9  H    2.655664   5.383711   3.111781   0.000000
    10  H    3.963925   3.107437   5.383775   6.131485   0.000000
    11  H    4.473819   5.379425   3.111980   5.312159   3.061207
                   11
    11  H    0.000000
 Stoichiometry    C6H3Cl2(1-)
 Framework group  CS[SG(C6H3Cl2)]
 Deg. of freedom    19
 Full point group                 CS      NOp   2
 Largest Abelian subgroup         CS      NOp   2
 Largest concise Abelian subgroup C1      NOp   1
                         Standard orientation:                         
 ---------------------------------------------------------------------
 Center     Atomic      Atomic             Coordinates (Angstroms)
 Number     Number       Type             X           Y           Z
 ---------------------------------------------------------------------
      1          6           0       -1.205199    0.742899    0.000000
      2          6           0       -1.202272   -0.654327    0.000000
      3          6           0        0.000000   -1.350062    0.000000
      4          6           0        1.209890   -0.654533    0.000000
      5          6           0        1.199283    0.741822    0.000000
      6          6           0       -0.000030    1.448804    0.000000
      7         17           0       -2.731072    1.610091    0.000000
      8         17           0        2.730565   -1.533811    0.000000
      9          1           0        2.652538    1.576992    0.000000
     10          1           0       -2.653080   -1.496367    0.000000
     11          1           0       -0.000869   -3.025015    0.000000
 ---------------------------------------------------------------------
 Rotational constants (GHZ):           5.5315310           0.6551601           0.5857797
 Standard basis: VSTO-6G (5D, 7F)
 There are    27 symmetry adapted cartesian basis functions of A'  symmetry.
 There are     8 symmetry adapted cartesian basis functions of A"  symmetry.
 There are    27 symmetry adapted basis functions of A'  symmetry.
 There are     8 symmetry adapted basis functions of A"  symmetry.
    35 basis functions,   210 primitive gaussians,    35 cartesian basis functions
    21 alpha electrons       21 beta electrons
       nuclear repulsion energy       191.3299733555 Hartrees.
 Integral buffers will be    131072 words long.
 Regular integral format.
 Two-electron integral symmetry is turned off.
 Do NDO integrals.
 One-electron integrals computed using PRISM.
 NBasis=    35 RedAO= T EigKep=  1.00D+00  NBF=    27     8
 NBsUse=    35 1.00D-06 EigRej= -1.00D+00 NBFU=    27     8
 Initial guess from the checkpoint file:  "geometry_chks/_23ClBzAnionIntermediate.chk"
 B after Tr=    -0.000000    0.000000    0.000000
         Rot=    0.865735    0.000000   -0.000000   -0.500503 Ang= -60.07 deg.
 Initial guess orbital symmetries:
       Occupied  (A') (A') (A') (A') (A') (A') (A') (A') (A') (A')
                 (A") (A") (A') (A') (A") (A') (A') (A') (A") (A")
                 (A')
       Virtual   (A') (A') (A") (A') (A") (A') (A') (A") (A') (A')
                 (A') (A') (A') (A')
 Keep J ints in memory in canonical form, NReq=862793.
 Overlap will be assumed to be unity.
 Requested convergence on RMS density matrix=1.00D-08 within**** cycles.
 Requested convergence on MAX density matrix=1.00D-06.
 Requested convergence on             energy=1.00D-06.
 No special actions if energy rises.
 Fock symm off for IB=2 I1=    1 I=   28 J=    6 Cut=1.00D-07 Err=7.82D-04
 Fock matrix is not symmetric: symmetry in diagonalization turned off.
 SCF Done:  E(RAM1) =  0.346466797432     A.U. after   13 cycles
            NFock= 12  Conv=0.84D-08     -V/T= 1.0038
 Calling FoFJK, ICntrl=      2127 FMM=F ISym2X=1 I1Cent= 0 IOpClX= 0 NMat=1 NMatS=1 NMatT=0.
 ***** Axes restored to original set *****
 -------------------------------------------------------------------
 Center     Atomic                   Forces (Hartrees/Bohr)
 Number     Number              X              Y              Z
 -------------------------------------------------------------------
      1        6           0.002136655   -0.002228027   -0.000000000
      2        6           0.010003202    0.096319123   -0.000000000
      3        6           0.071844805    0.064554564   -0.000000000
      4        6           0.011999108   -0.015023659   -0.000000000
      5        6          -0.007446130   -0.075181834   -0.000000000
      6        6           0.010480817   -0.007918538    0.000000000
      7       17           0.017606210   -0.007635367    0.000000000
      8       17          -0.014506804    0.010169113    0.000000000
      9        1          -0.002916594    0.119647849    0.000000000
     10        1           0.004023172   -0.118548631    0.000000000
     11        1          -0.103224440   -0.064154594    0.000000000
 -------------------------------------------------------------------
 Cartesian Forces:  Max     0.119647849 RMS     0.045664534

 GradGradGradGradGradGradGradGradGradGradGradGradGradGradGradGradGradGrad
 Berny optimization.
 Using GEDIIS/GDIIS optimizer.
 FormGI is forming the generalized inverse of G from B-inverse, IUseBI=4.
 Internal  Forces:  Max     0.121535649 RMS     0.031684500
 Search for a local minimum.
 Step number   2 out of a maximum of   57
 All quantities printed in internal units (Hartrees-Bohrs-Radians)
 Mixed Optimization -- RFO/linear search
 Update second derivatives using D2CorX and points    1    2
 DE= -6.55D-02 DEPred=-6.20D-02 R= 1.06D+00
 TightC=F SS=  1.41D+00  RLast= 3.00D-01 DXNew= 5.0454D-01 9.0000D-01
 Trust test= 1.06D+00 RLast= 3.00D-01 DXMaxT set to 5.05D-01
 ITU=  1  0
 Use linear search instead of GDIIS.
 Linear search step of   0.600 exceeds DXMaxT=   0.505 but not scaled.
 Quartic linear search produced a step of  2.00000.
 Iteration  1 RMS(Cart)=  0.06886999 RMS(Int)=  0.03478537
 Iteration  2 RMS(Cart)=  0.03417552 RMS(Int)=  0.00003445
 Iteration  3 RMS(Cart)=  0.00000770 RMS(Int)=  0.00003419
 Iteration  4 RMS(Cart)=  0.00000000 RMS(Int)=  0.00003419
 ClnCor:  largest displacement from symmetrization is 4.93D-09 for atom     8.
 Variable       Old X    -DE/DX   Delta X   Delta X   Delta X     New X
                                 (Linear)    (Quad)   (Total)
    R1        2.64038  -0.01437  -0.03277   0.00000  -0.03282   2.60756
    R2        2.63936  -0.01555  -0.03482   0.00000  -0.03483   2.60452
    R3        3.31662  -0.01911  -0.03945   0.00000  -0.03945   3.27717
    R4        2.62495  -0.03210  -0.06362   0.00000  -0.06367   2.56129
    R5        3.16994  -0.11861  -0.33280   0.00000  -0.33280   2.83714
    R6        2.63723  -0.01615  -0.03907   0.00000  -0.03906   2.59817
    R7        3.16520  -0.12154  -0.34226   0.00000  -0.34226   2.82294
    R8        2.63880  -0.01643  -0.03595   0.00000  -0.03589   2.60291
    R9        3.31946  -0.01760  -0.03375   0.00000  -0.03375   3.28571
   R10        2.63085  -0.02573  -0.05181   0.00000  -0.05176   2.57908
   R11        3.16745  -0.11968  -0.33774   0.00000  -0.33774   2.82972
    A1        2.09856   0.00364   0.00834   0.00000   0.00827   2.10683
    A2        2.08970  -0.00477  -0.00940   0.00000  -0.00936   2.08033
    A3        2.09493   0.00113   0.00106   0.00000   0.00109   2.09602
    A4        2.09749   0.00253   0.00619   0.00000   0.00609   2.10358
    A5        2.09458   0.00019   0.00036   0.00000   0.00041   2.09499
    A6        2.09112  -0.00272  -0.00656   0.00000  -0.00651   2.08461
    A7        2.09526   0.00107   0.00172   0.00000   0.00169   2.09694
    A8        2.09488   0.00014   0.00096   0.00000   0.00098   2.09585
    A9        2.09305  -0.00121  -0.00268   0.00000  -0.00267   2.09039
   A10        2.08494  -0.00849  -0.01891   0.00000  -0.01884   2.06609
   A11        2.09561   0.00081   0.00242   0.00000   0.00239   2.09799
   A12        2.10264   0.00767   0.01649   0.00000   0.01646   2.11910
   A13        2.11105   0.01442   0.03331   0.00000   0.03340   2.14445
   A14        2.08480  -0.00836  -0.01917   0.00000  -0.01922   2.06558
   A15        2.08734  -0.00606  -0.01413   0.00000  -0.01418   2.07316
   A16        2.07908  -0.01318  -0.03065   0.00000  -0.03061   2.04847
    D1       -0.00000   0.00000   0.00000   0.00000   0.00000   0.00000
    D2        3.14159   0.00000   0.00000   0.00000   0.00000   3.14159
    D3        3.14159  -0.00000   0.00000   0.00000   0.00000   3.14159
    D4        0.00000   0.00000   0.00000   0.00000  -0.00000   0.00000
    D5        0.00000  -0.00000   0.00000   0.00000  -0.00000   0.00000
    D6        3.14159   0.00000   0.00000   0.00000   0.00000   3.14159
    D7        0.00000   0.00000   0.00000   0.00000   0.00000   0.00000
    D8        3.14159   0.00000   0.00000   0.00000   0.00000   3.14159
    D9        3.14159  -0.00000   0.00000   0.00000   0.00000   3.14159
   D10       -0.00000   0.00000   0.00000   0.00000   0.00000   0.00000
   D11       -0.00000  -0.00000   0.00000   0.00000   0.00000   0.00000
   D12        3.14159   0.00000   0.00000   0.00000   0.00000   3.14159
   D13        3.14159  -0.00000   0.00000   0.00000   0.00000   3.14159
   D14        0.00000  -0.00000   0.00000   0.00000  -0.00000   0.00000
   D15        0.00000   0.00000   0.00000   0.00000   0.00000   0.00000
   D16        3.14159   0.00000   0.00000   0.00000   0.00000   3.14159
   D17        3.14159  -0.00000   0.00000   0.00000   0.00000   3.14159
   D18       -0.00000   0.00000   0.00000   0.00000   0.00000   0.00000
   D19       -0.00000   0.00000   0.00000   0.00000   0.00000   0.00000
   D20        3.14159  -0.00000   0.00000   0.00000   0.00000   3.14159
         Item               Value     Threshold  Converged?
 Maximum Force            0.121536     0.000450     NO 
 RMS     Force            0.031684     0.000300     NO 
 Maximum Displacement     0.422917     0.001800     NO 
 RMS     Displacement     0.101533     0.001200     NO 
 Predicted change in Energy=-1.286134D-01
 GradGradGradGradGradGradGradGradGradGradGradGradGradGradGradGradGradGrad

                          Input orientation:                          
 ---------------------------------------------------------------------
 Center     Atomic      Atomic             Coordinates (Angstroms)
 Number     Number       Type             X           Y           Z
 ---------------------------------------------------------------------
      1          6           0       -3.158906    0.183332   -0.000000
      2          6           0       -1.981016    0.902072   -0.000000
      3          6           0       -0.785207    0.264041    0.000000
      4          6           0       -0.735697   -1.109960    0.000000
      5          6           0       -1.923212   -1.807842    0.000000
      6          6           0       -3.142584   -1.194825   -0.000000
      7         17           0       -4.669551    1.035043   -0.000000
      8         17           0        0.797469   -1.930059    0.000000
      9          1           0       -1.868523   -3.304264    0.000000
     10          1           0       -2.016569    2.403003   -0.000000
     11          1           0        0.483926    1.051980    0.000000
 ---------------------------------------------------------------------
                    Distance matrix (angstroms):
                    1          2          3          4          5
     1  C    0.000000
     2  C    1.379860   0.000000
     3  C    2.375071   1.355375   0.000000
     4  C    2.746734   2.366240   1.374893   0.000000
     5  C    2.343440   2.710531   2.363843   1.377400   0.000000
     6  C    1.378254   2.397127   2.772276   2.408382   1.364792
     7  Cl   1.734203   2.691822   3.960123   4.480652   3.952768
     8  Cl   4.485458   3.967486   2.705354   1.738724   2.723425
     9  H    3.718657   4.207840   3.729125   2.469466   1.497421
    10  H    2.496372   1.501352   2.468078   3.739190   4.211880
    11  H    3.744967   2.469496   1.493836   2.482230   3.738034
                    6          7          8          9         10
     6  C    0.000000
     7  Cl   2.702581   0.000000
     8  Cl   4.008065   6.219336   0.000000
     9  H    2.464338   5.164818   2.999326   0.000000
    10  H    3.769917   2.984900   5.166647   5.709187   0.000000
    11  H    4.266112   5.153506   2.998477   4.950846   2.842137
                   11
    11  H    0.000000
 Stoichiometry    C6H3Cl2(1-)
 Framework group  CS[SG(C6H3Cl2)]
 Deg. of freedom    19
 Full point group                 CS      NOp   2
 Largest Abelian subgroup         CS      NOp   2
 Largest concise Abelian subgroup C1      NOp   1
                         Standard orientation:                         
 ---------------------------------------------------------------------
 Center     Atomic      Atomic             Coordinates (Angstroms)
 Number     Number       Type             X           Y           Z
 ---------------------------------------------------------------------
      1          6           0       -1.180638    0.735505    0.000000
      2          6           0       -1.171867   -0.644327   -0.000000
      3          6           0       -0.000000   -1.325333   -0.000000
      4          6           0        1.194373   -0.644302   -0.000000
      5          6           0        1.162801    0.732736    0.000000
      6          6           0       -0.000197    1.446943    0.000000
      7         17           0       -2.699894    1.571760    0.000000
      8         17           0        2.698602   -1.516344   -0.000000
      9          1           0        2.463994    1.473793    0.000000
     10          1           0       -2.466823   -1.404028   -0.000000
     11          1           0       -0.002048   -2.819168   -0.000000
 ---------------------------------------------------------------------
 Rotational constants (GHZ):           5.8418162           0.6739496           0.6042405
 Standard basis: VSTO-6G (5D, 7F)
 There are    27 symmetry adapted cartesian basis functions of A'  symmetry.
 There are     8 symmetry adapted cartesian basis functions of A"  symmetry.
 There are    27 symmetry adapted basis functions of A'  symmetry.
 There are     8 symmetry adapted basis functions of A"  symmetry.
    35 basis functions,   210 primitive gaussians,    35 cartesian basis functions
    21 alpha electrons       21 beta electrons
       nuclear repulsion energy       193.7805521462 Hartrees.
 Integral buffers will be    131072 words long.
 Regular integral format.
 Two-electron integral symmetry is turned off.
 Do NDO integrals.
 One-electron integrals computed using PRISM.
 NBasis=    35 RedAO= T EigKep=  1.00D+00  NBF=    27     8
 NBsUse=    35 1.00D-06 EigRej= -1.00D+00 NBFU=    27     8
 Initial guess from the checkpoint file:  "geometry_chks/_23ClBzAnionIntermediate.chk"
 B after Tr=    -0.000000   -0.000000   -0.000000
         Rot=    0.999999    0.000000   -0.000000   -0.001238 Ang=  -0.14 deg.
 Initial guess orbital symmetries:
       Occupied  (A') (A') (A') (A') (A') (A') (A') (A') (A') (A')
                 (A") (A") (A') (A') (A') (A") (A') (A') (A") (A")
                 (A')
       Virtual   (A') (A") (A') (A') (A") (A') (A') (A") (A') (A')
                 (A') (A') (A') (A')
 Keep J ints in memory in canonical form, NReq=862793.
 Overlap will be assumed to be unity.
 Requested convergence on RMS density matrix=1.00D-08 within**** cycles.
 Requested convergence on MAX density matrix=1.00D-06.
 Requested convergence on             energy=1.00D-06.
 No special actions if energy rises.
 Fock symm off for IB=2 I1=    1 I=   28 J=   21 Cut=1.00D-07 Err=3.16D-03
 Fock matrix is not symmetric: symmetry in diagonalization turned off.
 SCF Done:  E(RAM1) =  0.222762734376     A.U. after   14 cycles
            NFock= 13  Conv=0.30D-08     -V/T= 1.0024
 Calling FoFJK, ICntrl=      2127 FMM=F ISym2X=1 I1Cent= 0 IOpClX= 0 NMat=1 NMatS=1 NMatT=0.
 ***** Axes restored to original set *****
 -------------------------------------------------------------------
 Center     Atomic                   Forces (Hartrees/Bohr)
 Number     Number              X              Y              Z
 -------------------------------------------------------------------
      1        6          -0.019418475    0.007026056   -0.000000000
      2        6          -0.010002703    0.138417803    0.000000000
      3        6           0.119142687    0.075690776   -0.000000000
      4        6           0.025770000   -0.024255094    0.000000000
      5        6           0.003770589   -0.126775265   -0.000000000
      6        6          -0.017078517   -0.010625108    0.000000000
      7       17           0.004632743   -0.000955416    0.000000000
      8       17          -0.006357875    0.004582257    0.000000000
      9        1          -0.003628460    0.115755247    0.000000000
     10        1           0.003417059   -0.116451419    0.000000000
     11        1          -0.100247049   -0.062409839    0.000000000
 -------------------------------------------------------------------
 Cartesian Forces:  Max     0.138417803 RMS     0.054596737

 GradGradGradGradGradGradGradGradGradGradGradGradGradGradGradGradGradGrad
 Berny optimization.
 Using GEDIIS/GDIIS optimizer.
 FormGI is forming the generalized inverse of G from B-inverse, IUseBI=4.
 Internal  Forces:  Max     0.118086568 RMS     0.030412759
 Search for a local minimum.
 Step number   3 out of a maximum of   57
 All quantities printed in internal units (Hartrees-Bohrs-Radians)
 Mixed Optimization -- RFO/linear search
 Update second derivatives using D2CorX and points    2    3
 ITU=  0  1  0
 Use linear search instead of GDIIS.
 Linear search step of   1.098 exceeds DXMaxT=   0.505 scaled by   0.919
 Quartic linear search produced a step of  1.68179.
 Iteration  1 RMS(Cart)=  0.08484127 RMS(Int)=  0.09295104
 Iteration  2 RMS(Cart)=  0.04958565 RMS(Int)=  0.04243798
 Iteration  3 RMS(Cart)=  0.04173078 RMS(Int)=  0.00010426
 Iteration  4 RMS(Cart)=  0.00000449 RMS(Int)=  0.00010420
 Iteration  5 RMS(Cart)=  0.00000000 RMS(Int)=  0.00010420
 ClnCor:  largest displacement from symmetrization is 5.57D-09 for atom     6.
 Variable       Old X    -DE/DX   Delta X   Delta X   Delta X     New X
                                 (Linear)    (Quad)   (Total)
    R1        2.60756   0.01805  -0.05520   0.00000  -0.05537   2.55218
    R2        2.60452   0.01723  -0.05858   0.00000  -0.05863   2.54589
    R3        3.27717  -0.00450  -0.06635   0.00000  -0.06635   3.21082
    R4        2.56129   0.02355  -0.10707   0.00000  -0.10721   2.45408
    R5        2.83714  -0.11650  -0.55970   0.00000  -0.55970   2.27745
    R6        2.59817   0.02415  -0.06569   0.00000  -0.06565   2.53252
    R7        2.82294  -0.11809  -0.57561   0.00000  -0.57561   2.24733
    R8        2.60291   0.01723  -0.06037   0.00000  -0.06019   2.54272
    R9        3.28571  -0.00777  -0.05676   0.00000  -0.05676   3.22896
   R10        2.57908   0.01862  -0.08706   0.00000  -0.08692   2.49216
   R11        2.82972  -0.11581  -0.56801   0.00000  -0.56801   2.26171
    A1        2.10683   0.00086   0.01391   0.00000   0.01369   2.12053
    A2        2.08033  -0.00279  -0.01575   0.00000  -0.01564   2.06469
    A3        2.09602   0.00193   0.00184   0.00000   0.00195   2.09797
    A4        2.10358  -0.00051   0.01024   0.00000   0.00995   2.11353
    A5        2.09499   0.00119   0.00070   0.00000   0.00084   2.09584
    A6        2.08461  -0.00068  -0.01094   0.00000  -0.01079   2.07382
    A7        2.09694  -0.00028   0.00284   0.00000   0.00274   2.09969
    A8        2.09585   0.00035   0.00165   0.00000   0.00169   2.09755
    A9        2.09039  -0.00006  -0.00448   0.00000  -0.00444   2.08595
   A10        2.06609  -0.00330  -0.03169   0.00000  -0.03149   2.03460
   A11        2.09799  -0.00006   0.00401   0.00000   0.00391   2.10190
   A12        2.11910   0.00336   0.02768   0.00000   0.02758   2.14668
   A13        2.14445   0.00367   0.05617   0.00000   0.05645   2.20090
   A14        2.06558  -0.00269  -0.03233   0.00000  -0.03246   2.03311
   A15        2.07316  -0.00098  -0.02385   0.00000  -0.02399   2.04917
   A16        2.04847  -0.00044  -0.05147   0.00000  -0.05135   1.99712
    D1       -0.00000   0.00000   0.00000   0.00000   0.00000   0.00000
    D2        3.14159   0.00000   0.00000   0.00000   0.00000   3.14159
    D3        3.14159  -0.00000   0.00000   0.00000   0.00000   3.14159
    D4       -0.00000  -0.00000   0.00000   0.00000   0.00000   0.00000
    D5        0.00000  -0.00000   0.00000   0.00000  -0.00000   0.00000
    D6        3.14159   0.00000   0.00000   0.00000   0.00000   3.14159
    D7        0.00000  -0.00000   0.00000   0.00000  -0.00000   0.00000
    D8        3.14159   0.00000   0.00000   0.00000   0.00000   3.14159
    D9        3.14159  -0.00000   0.00000   0.00000   0.00000   3.14159
   D10       -0.00000  -0.00000   0.00000   0.00000   0.00000   0.00000
   D11       -0.00000   0.00000   0.00000   0.00000   0.00000   0.00000
   D12        3.14159   0.00000   0.00000   0.00000   0.00000   3.14159
   D13        3.14159  -0.00000   0.00000   0.00000   0.00000   3.14159
   D14        0.00000  -0.00000   0.00000   0.00000   0.00000   0.00000
   D15        0.00000   0.00000   0.00000   0.00000  -0.00000   0.00000
   D16        3.14159   0.00000   0.00000   0.00000   0.00000   3.14159
   D17        3.14159  -0.00000   0.00000   0.00000   0.00000   3.14159
   D18       -0.00000   0.00000   0.00000   0.00000   0.00000   0.00000
   D19       -0.00000  -0.00000   0.00000   0.00000   0.00000   0.00000
   D20        3.14159  -0.00000   0.00000   0.00000   0.00000   3.14159
         Item               Value     Threshold  Converged?
 Maximum Force            0.118087     0.000450     NO 
 RMS     Force            0.030413     0.000300     NO 
 Maximum Displacement     0.710294     0.001800     NO 
 RMS     Displacement     0.170524     0.001200     NO 
 Predicted change in Energy=-1.687465D-01
 GradGradGradGradGradGradGradGradGradGradGradGradGradGradGradGradGradGrad

                          Input orientation:                          
 ---------------------------------------------------------------------
 Center     Atomic      Atomic             Coordinates (Angstroms)
 Number     Number       Type             X           Y           Z
 ---------------------------------------------------------------------
      1          6           0       -3.101414    0.165472   -0.000000
      2          6           0       -1.946451    0.865520   -0.000000
      3          6           0       -0.796458    0.262203    0.000000
      4          6           0       -0.735183   -1.076549    0.000000
      5          6           0       -1.909801   -1.732882    0.000000
      6          6           0       -3.107910   -1.181739   -0.000000
      7         17           0       -4.565686    1.027339   -0.000000
      8         17           0        0.776158   -1.873713    0.000000
      9          1           0       -1.853297   -2.928393    0.000000
     10          1           0       -1.970393    2.070455   -0.000000
     11          1           0        0.210564    0.894807    0.000000
 ---------------------------------------------------------------------
                    Distance matrix (angstroms):
                    1          2          3          4          5
     1  C    0.000000
     2  C    1.350558   0.000000
     3  C    2.306984   1.298644   0.000000
     4  C    2.672388   2.288843   1.340153   0.000000
     5  C    2.241359   2.598661   2.284709   1.345548   0.000000
     6  C    1.347227   2.353776   2.725395   2.375058   1.318797
     7  Cl   1.699090   2.624229   3.846103   4.370251   3.830476
     8  Cl   4.381077   3.862124   2.652406   1.708691   2.689648
     9  H    3.336135   3.795057   3.361072   2.163216   1.196845
    10  H    2.215439   1.205172   2.155899   3.380736   3.803820
    11  H    3.391331   2.157213   1.189235   2.186477   3.376491
                    6          7          8          9         10
     6  C    0.000000
     7  Cl   2.646721   0.000000
     8  Cl   3.945227   6.078766   0.000000
     9  H    2.150547   4.796339   2.833087   0.000000
    10  H    3.445390   2.797076   4.806246   5.000219   0.000000
    11  H    3.914628   4.778088   2.825703   4.344695   2.477644
                   11
    11  H    0.000000
 Stoichiometry    C6H3Cl2(1-)
 Framework group  CS[SG(C6H3Cl2)]
 Deg. of freedom    19
 Full point group                 CS      NOp   2
 Largest Abelian subgroup         CS      NOp   2
 Largest concise Abelian subgroup C1      NOp   1
                         Standard orientation:                         
 ---------------------------------------------------------------------
 Center     Atomic      Atomic             Coordinates (Angstroms)
 Number     Number       Type             X           Y           Z
 ---------------------------------------------------------------------
      1          6           0       -1.139724    0.721865   -0.000000
      2          6           0       -1.121149   -0.628565   -0.000000
      3          6           0        0.000000   -1.283928    0.000000
      4          6           0        1.167693   -0.626278    0.000000
      5          6           0        1.101630    0.717648    0.000000
      6          6           0       -0.000781    1.441467   -0.000000
      7         17           0       -2.646699    1.506680   -0.000000
      8         17           0        2.644751   -1.485302    0.000000
      9          1           0        2.145331    1.303418    0.000000
     10          1           0       -2.155581   -1.246943   -0.000000
     11          1           0       -0.002651   -2.473161    0.000000
 ---------------------------------------------------------------------
 Rotational constants (GHZ):           6.4052893           0.7077150           0.6373003
 Standard basis: VSTO-6G (5D, 7F)
 There are    27 symmetry adapted cartesian basis functions of A'  symmetry.
 There are     8 symmetry adapted cartesian basis functions of A"  symmetry.
 There are    27 symmetry adapted basis functions of A'  symmetry.
 There are     8 symmetry adapted basis functions of A"  symmetry.
    35 basis functions,   210 primitive gaussians,    35 cartesian basis functions
    21 alpha electrons       21 beta electrons
       nuclear repulsion energy       198.3103297592 Hartrees.
 Integral buffers will be    131072 words long.
 Regular integral format.
 Two-electron integral symmetry is turned off.
 Do NDO integrals.
 One-electron integrals computed using PRISM.
 NBasis=    35 RedAO= T EigKep=  1.00D+00  NBF=    27     8
 NBsUse=    35 1.00D-06 EigRej= -1.00D+00 NBFU=    27     8
 Initial guess from the checkpoint file:  "geometry_chks/_23ClBzAnionIntermediate.chk"
 B after Tr=     0.000000   -0.000000    0.000000
         Rot=    0.999997   -0.000000    0.000000   -0.002319 Ang=  -0.27 deg.
 Initial guess orbital symmetries:
       Occupied  (A') (A') (A') (A') (A') (A') (A') (A') (A') (A')
                 (A") (A") (A') (A') (A') (A") (A') (A') (A") (A")
                 (A')
       Virtual   (A") (A') (A") (A') (A') (A') (A') (A") (A') (A')
                 (A') (A') (A') (A')
 Keep J ints in memory in canonical form, NReq=862793.
 Overlap will be assumed to be unity.
 Requested convergence on RMS density matrix=1.00D-08 within**** cycles.
 Requested convergence on MAX density matrix=1.00D-06.
 Requested convergence on             energy=1.00D-06.
 No special actions if energy rises.
 Fock symm off for IB=2 I1=    1 I=   28 J=   24 Cut=1.00D-07 Err=1.95D-03
 Fock matrix is not symmetric: symmetry in diagonalization turned off.
 SCF Done:  E(RAM1) =  0.974324712704E-01 A.U. after   14 cycles
            NFock= 13  Conv=0.47D-08     -V/T= 1.0011
 Calling FoFJK, ICntrl=      2127 FMM=F ISym2X=1 I1Cent= 0 IOpClX= 0 NMat=1 NMatS=1 NMatT=0.
 ***** Axes restored to original set *****
 -------------------------------------------------------------------
 Center     Atomic                   Forces (Hartrees/Bohr)
 Number     Number              X              Y              Z
 -------------------------------------------------------------------
      1        6          -0.065428698    0.021596653   -0.000000000
      2        6          -0.059930012    0.169933381    0.000000000
      3        6           0.171398103    0.059798045   -0.000000000
      4        6           0.057458251   -0.045092686   -0.000000000
      5        6           0.025177249   -0.169719925    0.000000000
      6        6          -0.078528328   -0.012934858    0.000000000
      7       17          -0.020314987    0.012318215    0.000000000
      8       17           0.009692859   -0.006225940    0.000000000
      9        1          -0.002236918    0.043742168    0.000000000
     10        1           0.000324090   -0.050245112    0.000000000
     11        1          -0.037611609   -0.023169941    0.000000000
 -------------------------------------------------------------------
 Cartesian Forces:  Max     0.171398103 RMS     0.059890974

 GradGradGradGradGradGradGradGradGradGradGradGradGradGradGradGradGradGrad
 Berny optimization.
 Using GEDIIS/GDIIS optimizer.
 FormGI is forming the generalized inverse of G from B-inverse, IUseBI=4.
 Internal  Forces:  Max     0.150552981 RMS     0.040657249
 Search for a local minimum.
 Step number   4 out of a maximum of   57
 All quantities printed in internal units (Hartrees-Bohrs-Radians)
 Mixed Optimization -- RFO/linear search
 Update second derivatives using D2CorX and points    3    4
 ITU=  0  0  1  0
 Use linear search instead of GDIIS.
     Eigenvalues ---    0.02011   0.02011   0.02011   0.02011   0.02011
     Eigenvalues ---    0.02011   0.02011   0.02011   0.06509   0.06524
     Eigenvalues ---    0.08891   0.16000   0.16000   0.16001   0.22356
     Eigenvalues ---    0.23566   0.24560   0.24983   0.25000   0.28835
     Eigenvalues ---    0.29049   0.40362   0.41391   0.44647   0.44656
     Eigenvalues ---    0.44657   0.66098
 RFO step:  Lambda=-1.43267535D-01 EMin= 2.01065571D-02
 Quartic linear search produced a step of  0.08354.
 Maximum step size (   0.505) exceeded in Quadratic search.
    -- Step size scaled by   0.875
 Iteration  1 RMS(Cart)=  0.06271210 RMS(Int)=  0.01254015
 Iteration  2 RMS(Cart)=  0.01212253 RMS(Int)=  0.00008937
 Iteration  3 RMS(Cart)=  0.00000982 RMS(Int)=  0.00008906
 Iteration  4 RMS(Cart)=  0.00000000 RMS(Int)=  0.00008906
 ClnCor:  largest displacement from symmetrization is 5.94D-11 for atom    10.
 Variable       Old X    -DE/DX   Delta X   Delta X   Delta X     New X
                                 (Linear)    (Quad)   (Total)
    R1        2.55218   0.08629  -0.00463   0.11584   0.11116   2.66335
    R2        2.54589   0.08097  -0.00490   0.10804   0.10301   2.64890
    R3        3.21082   0.02376  -0.00554   0.04424   0.03870   3.24951
    R4        2.45408   0.15055  -0.00896   0.20215   0.19328   2.64736
    R5        2.27745  -0.05024  -0.04676  -0.21583  -0.26258   2.01486
    R6        2.53252   0.10899  -0.00548   0.14721   0.14186   2.67439
    R7        2.24733  -0.04417  -0.04809  -0.19481  -0.24290   2.00443
    R8        2.54272   0.08846  -0.00503   0.11828   0.11329   2.65601
    R9        3.22896   0.01148  -0.00474   0.02177   0.01703   3.24598
   R10        2.49216   0.11198  -0.00726   0.14892   0.14158   2.63374
   R11        2.26171  -0.04380  -0.04745  -0.19242  -0.23987   2.02184
    A1        2.12053  -0.00372   0.00114  -0.00886  -0.00789   2.11264
    A2        2.06469   0.00136  -0.00131   0.00342   0.00220   2.06689
    A3        2.09797   0.00236   0.00016   0.00544   0.00569   2.10365
    A4        2.11353  -0.00866   0.00083  -0.01565  -0.01476   2.09877
    A5        2.09584   0.00356   0.00007   0.00596   0.00600   2.10184
    A6        2.07382   0.00510  -0.00090   0.00969   0.00876   2.08258
    A7        2.09969  -0.00462   0.00023  -0.00460  -0.00412   2.09557
    A8        2.09755   0.00188   0.00014   0.00110   0.00112   2.09866
    A9        2.08595   0.00275  -0.00037   0.00350   0.00301   2.08896
   A10        2.03460   0.00768  -0.00263   0.01881   0.01639   2.05100
   A11        2.10190  -0.00225   0.00033  -0.00605  -0.00582   2.09608
   A12        2.14668  -0.00543   0.00230  -0.01277  -0.01057   2.13611
   A13        2.20090  -0.01972   0.00472  -0.04335  -0.03865   2.16224
   A14        2.03311   0.01005  -0.00271   0.02207   0.01937   2.05249
   A15        2.04917   0.00967  -0.00200   0.02127   0.01928   2.06845
   A16        1.99712   0.02905  -0.00429   0.05364   0.04903   2.04615
    D1       -0.00000   0.00000   0.00000   0.00000   0.00000   0.00000
    D2        3.14159   0.00000   0.00000   0.00000   0.00000   3.14159
    D3        3.14159  -0.00000   0.00000  -0.00000   0.00000   3.14159
    D4        0.00000  -0.00000   0.00000  -0.00000  -0.00000   0.00000
    D5       -0.00000  -0.00000   0.00000  -0.00000   0.00000   0.00000
    D6        3.14159   0.00000   0.00000   0.00000   0.00000   3.14159
    D7        0.00000  -0.00000   0.00000  -0.00000  -0.00000   0.00000
    D8        3.14159   0.00000   0.00000   0.00000   0.00000   3.14159
    D9        3.14159  -0.00000   0.00000  -0.00000   0.00000   3.14159
   D10       -0.00000  -0.00000   0.00000  -0.00000   0.00000   0.00000
   D11        0.00000  -0.00000   0.00000  -0.00000  -0.00000   0.00000
   D12        3.14159   0.00000   0.00000   0.00000   0.00000   3.14159
   D13        3.14159  -0.00000   0.00000  -0.00000   0.00000   3.14159
   D14        0.00000  -0.00000   0.00000  -0.00000  -0.00000   0.00000
   D15       -0.00000   0.00000   0.00000   0.00000   0.00000   0.00000
   D16        3.14159   0.00000   0.00000   0.00000   0.00000   3.14159
   D17        3.14159  -0.00000   0.00000  -0.00000   0.00000   3.14159
   D18       -0.00000   0.00000   0.00000   0.00000   0.00000   0.00000
   D19        0.00000  -0.00000   0.00000  -0.00000   0.00000   0.00000
   D20        3.14159  -0.00000   0.00000  -0.00000   0.00000   3.14159
         Item               Value     Threshold  Converged?
 Maximum Force            0.150553     0.000450     NO 
 RMS     Force            0.040657     0.000300     NO 
 Maximum Displacement     0.168899     0.001800     NO 
 RMS     Displacement     0.065775     0.001200     NO 
 Predicted change in Energy=-9.297177D-02
 GradGradGradGradGradGradGradGradGradGradGradGradGradGradGradGradGradGrad

                          Input orientation:                          
 ---------------------------------------------------------------------
 Center     Atomic      Atomic             Coordinates (Angstroms)
 Number     Number       Type             X           Y           Z
 ---------------------------------------------------------------------
      1          6           0       -3.157467    0.211788   -0.000000
      2          6           0       -1.959908    0.954898   -0.000000
      3          6           0       -0.722153    0.298740    0.000000
      4          6           0       -0.669351   -1.115498    0.000000
      5          6           0       -1.890797   -1.810837    0.000000
      6          6           0       -3.138507   -1.189818   -0.000000
      7         17           0       -4.650313    1.065209   -0.000000
      8         17           0        0.847876   -1.920806    0.000000
      9          1           0       -1.852470   -2.880059    0.000000
     10          1           0       -1.985847    2.020801   -0.000000
     11          1           0        0.179068    0.858102    0.000000
 ---------------------------------------------------------------------
                    Distance matrix (angstroms):
                    1          2          3          4          5
     1  C    0.000000
     2  C    1.409383   0.000000
     3  C    2.436867   1.400922   0.000000
     4  C    2.820002   2.439688   1.415224   0.000000
     5  C    2.386518   2.766598   2.411648   1.405498   0.000000
     6  C    1.401735   2.447223   2.838058   2.470274   1.393716
     7  Cl   1.719568   2.692666   4.002240   4.539113   3.985796
     8  Cl   4.537701   4.019120   2.718708   1.717701   2.740880
     9  H    3.355971   3.836462   3.373779   2.124487   1.069909
    10  H    2.155278   1.066219   2.135982   3.401402   3.832816
    11  H    3.398557   2.141165   1.060700   2.148235   3.377510
                    6          7          8          9         10
     6  C    0.000000
     7  Cl   2.714905   0.000000
     8  Cl   4.052849   6.256706   0.000000
     9  H    2.123865   4.836638   2.865665   0.000000
    10  H    3.411261   2.830642   4.854508   4.902675   0.000000
    11  H    3.898754   4.833820   2.858257   4.254527   2.457382
                   11
    11  H    0.000000
 Stoichiometry    C6H3Cl2(1-)
 Framework group  CS[SG(C6H3Cl2)]
 Deg. of freedom    19
 Full point group                 CS      NOp   2
 Largest Abelian subgroup         CS      NOp   2
 Largest concise Abelian subgroup C1      NOp   1
                         Standard orientation:                         
 ---------------------------------------------------------------------
 Center     Atomic      Atomic             Coordinates (Angstroms)
 Number     Number       Type             X           Y           Z
 ---------------------------------------------------------------------
      1          6           0       -1.203490    0.754287    0.000000
      2          6           0       -1.207929   -0.655088   -0.000000
      3          6           0        0.000000   -1.364658   -0.000000
      4          6           0        1.231726   -0.667730   -0.000000
      5          6           0        1.182964    0.736922    0.000000
      6          6           0       -0.000270    1.473400    0.000000
      7         17           0       -2.713177    1.577551    0.000000
      8         17           0        2.713241   -1.536990   -0.000000
      9          1           0        2.113364    1.265185    0.000000
     10          1           0       -2.129005   -1.192157   -0.000000
     11          1           0       -0.003457   -2.425353   -0.000000
 ---------------------------------------------------------------------
 Rotational constants (GHZ):           5.9815898           0.6648614           0.5983536
 Standard basis: VSTO-6G (5D, 7F)
 There are    27 symmetry adapted cartesian basis functions of A'  symmetry.
 There are     8 symmetry adapted cartesian basis functions of A"  symmetry.
 There are    27 symmetry adapted basis functions of A'  symmetry.
 There are     8 symmetry adapted basis functions of A"  symmetry.
    35 basis functions,   210 primitive gaussians,    35 cartesian basis functions
    21 alpha electrons       21 beta electrons
       nuclear repulsion energy       194.9417778359 Hartrees.
 Integral buffers will be    131072 words long.
 Regular integral format.
 Two-electron integral symmetry is turned off.
 Do NDO integrals.
 One-electron integrals computed using PRISM.
 NBasis=    35 RedAO= T EigKep=  1.00D+00  NBF=    27     8
 NBsUse=    35 1.00D-06 EigRej= -1.00D+00 NBFU=    27     8
 Initial guess from the checkpoint file:  "geometry_chks/_23ClBzAnionIntermediate.chk"
 B after Tr=    -0.000000    0.000000   -0.000000
         Rot=    0.999995    0.000000    0.000000    0.003153 Ang=   0.36 deg.
 Initial guess orbital symmetries:
       Occupied  (A') (A') (A') (A') (A') (A') (A') (A') (A') (A')
                 (A") (A') (A") (A') (A') (A") (A') (A') (A") (A")
                 (A')
       Virtual   (A") (A') (A") (A') (A') (A') (A") (A') (A') (A')
                 (A') (A') (A') (A')
 Keep J ints in memory in canonical form, NReq=862793.
 Overlap will be assumed to be unity.
 Requested convergence on RMS density matrix=1.00D-08 within**** cycles.
 Requested convergence on MAX density matrix=1.00D-06.
 Requested convergence on             energy=1.00D-06.
 No special actions if energy rises.
 Fock symm off for IB=2 I1=    1 I=   28 J=    5 Cut=1.00D-07 Err=4.24D-03
 Fock matrix is not symmetric: symmetry in diagonalization turned off.
 SCF Done:  E(RAM1) =  0.474148643249E-01 A.U. after   14 cycles
            NFock= 13  Conv=0.57D-08     -V/T= 1.0005
 Calling FoFJK, ICntrl=      2127 FMM=F ISym2X=1 I1Cent= 0 IOpClX= 0 NMat=1 NMatS=1 NMatT=0.
 ***** Axes restored to original set *****
 -------------------------------------------------------------------
 Center     Atomic                   Forces (Hartrees/Bohr)
 Number     Number              X              Y              Z
 -------------------------------------------------------------------
      1        6           0.020711192   -0.014051670   -0.000000000
      2        6          -0.005992484   -0.027862542   -0.000000000
      3        6          -0.019771344   -0.024699961   -0.000000000
      4        6          -0.026446998    0.021325767    0.000000000
      5        6           0.008837415    0.012408572   -0.000000000
      6        6           0.002006208    0.014830927   -0.000000000
      7       17          -0.000276012    0.000299429    0.000000000
      8       17          -0.001287506    0.001052935   -0.000000000
      9        1          -0.000769798   -0.022795841    0.000000000
     10        1           0.000874968    0.024167409    0.000000000
     11        1           0.022114359    0.015324974    0.000000000
 -------------------------------------------------------------------
 Cartesian Forces:  Max     0.027862542 RMS     0.013350540

 GradGradGradGradGradGradGradGradGradGradGradGradGradGradGradGradGradGrad
 Berny optimization.
 Using GEDIIS/GDIIS optimizer.
 FormGI is forming the generalized inverse of G from B-inverse, IUseBI=4.
 Internal  Forces:  Max     0.026871052 RMS     0.008383593
 Search for a local minimum.
 Step number   5 out of a maximum of   57
 All quantities printed in internal units (Hartrees-Bohrs-Radians)
 Mixed Optimization -- RFO/linear search
 Update second derivatives using D2CorX and points    4    5
 DE= -5.00D-02 DEPred=-9.30D-02 R= 5.38D-01
 TightC=F SS=  1.41D+00  RLast= 5.53D-01 DXNew= 8.4853D-01 1.6598D+00
 Trust test= 5.38D-01 RLast= 5.53D-01 DXMaxT set to 8.49D-01
 ITU=  1  0  0  1  0
 Use linear search instead of GDIIS.
     Eigenvalues ---    0.02011   0.02011   0.02011   0.02011   0.02011
     Eigenvalues ---    0.02011   0.02011   0.02011   0.06522   0.06531
     Eigenvalues ---    0.15987   0.16000   0.16001   0.17810   0.22354
     Eigenvalues ---    0.23385   0.24698   0.24984   0.25003   0.28890
     Eigenvalues ---    0.29046   0.40813   0.41562   0.44637   0.44655
     Eigenvalues ---    0.44663   0.74311
 RFO step:  Lambda=-7.07146016D-03 EMin= 2.01065587D-02
 Quartic linear search produced a step of -0.17272.
 Iteration  1 RMS(Cart)=  0.03859529 RMS(Int)=  0.00022006
 Iteration  2 RMS(Cart)=  0.00029895 RMS(Int)=  0.00004628
 Iteration  3 RMS(Cart)=  0.00000002 RMS(Int)=  0.00004628
 ClnCor:  largest displacement from symmetrization is 3.53D-12 for atom     8.
 Variable       Old X    -DE/DX   Delta X   Delta X   Delta X     New X
                                 (Linear)    (Quad)   (Total)
    R1        2.66335  -0.01174  -0.01920   0.01122  -0.00805   2.65530
    R2        2.64890  -0.01261  -0.01779   0.00883  -0.00898   2.63992
    R3        3.24951   0.00039  -0.00668   0.01574   0.00906   3.25857
    R4        2.64736  -0.01066  -0.03338   0.03683   0.00339   2.65075
    R5        2.01486   0.02414   0.04535   0.06468   0.11004   2.12490
    R6        2.67439  -0.01472  -0.02450   0.01499  -0.00950   2.66489
    R7        2.00443   0.02687   0.04195   0.09782   0.13977   2.14420
    R8        2.65601  -0.00985  -0.01957   0.01628  -0.00321   2.65280
    R9        3.24598  -0.00163  -0.00294   0.00339   0.00045   3.24643
   R10        2.63374  -0.00602  -0.02445   0.03253   0.00813   2.64187
   R11        2.02184   0.02275   0.04143   0.05498   0.09641   2.11825
    A1        2.11264   0.00926   0.00136   0.02725   0.02852   2.14117
    A2        2.06689  -0.00483  -0.00038  -0.01456  -0.01489   2.05200
    A3        2.10365  -0.00443  -0.00098  -0.01270  -0.01364   2.09002
    A4        2.09877  -0.00511   0.00255  -0.02256  -0.02014   2.07863
    A5        2.10184   0.00403  -0.00104   0.01832   0.01735   2.11919
    A6        2.08258   0.00108  -0.00151   0.00424   0.00279   2.08537
    A7        2.09557  -0.00489   0.00071  -0.01772  -0.01705   2.07852
    A8        2.09866   0.00108  -0.00019   0.00165   0.00148   2.10014
    A9        2.08896   0.00381  -0.00052   0.01606   0.01556   2.10452
   A10        2.05100   0.01391  -0.00283   0.05281   0.05007   2.10107
   A11        2.09608  -0.00749   0.00101  -0.02685  -0.02588   2.07019
   A12        2.13611  -0.00643   0.00183  -0.02597  -0.02419   2.11192
   A13        2.16224  -0.01177   0.00668  -0.05317  -0.04637   2.11588
   A14        2.05249   0.00749  -0.00335   0.03442   0.03101   2.08350
   A15        2.06845   0.00428  -0.00333   0.01875   0.01536   2.08381
   A16        2.04615  -0.00139  -0.00847   0.01337   0.00496   2.05111
    D1        0.00000   0.00000   0.00000   0.00000  -0.00000   0.00000
    D2        3.14159   0.00000   0.00000   0.00000   0.00000   3.14159
    D3        3.14159  -0.00000   0.00000  -0.00000   0.00000   3.14159
    D4       -0.00000  -0.00000   0.00000  -0.00000   0.00000   0.00000
    D5       -0.00000  -0.00000   0.00000  -0.00000   0.00000   0.00000
    D6        3.14159   0.00000   0.00000   0.00000   0.00000   3.14159
    D7       -0.00000  -0.00000   0.00000  -0.00000   0.00000   0.00000
    D8        3.14159   0.00000   0.00000   0.00000   0.00000   3.14159
    D9        3.14159  -0.00000   0.00000  -0.00000   0.00000   3.14159
   D10        0.00000  -0.00000   0.00000  -0.00000  -0.00000   0.00000
   D11       -0.00000  -0.00000   0.00000  -0.00000   0.00000   0.00000
   D12        3.14159   0.00000   0.00000   0.00000   0.00000   3.14159
   D13        3.14159  -0.00000   0.00000  -0.00000   0.00000   3.14159
   D14        0.00000  -0.00000   0.00000  -0.00000   0.00000   0.00000
   D15        0.00000   0.00000   0.00000   0.00000   0.00000   0.00000
   D16        3.14159   0.00000   0.00000   0.00000   0.00000   3.14159
   D17        3.14159   0.00000   0.00000  -0.00000   0.00000   3.14159
   D18       -0.00000   0.00000   0.00000   0.00000   0.00000   0.00000
   D19       -0.00000  -0.00000   0.00000  -0.00000   0.00000   0.00000
   D20        3.14159  -0.00000   0.00000  -0.00000   0.00000   3.14159
         Item               Value     Threshold  Converged?
 Maximum Force            0.026871     0.000450     NO 
 RMS     Force            0.008384     0.000300     NO 
 Maximum Displacement     0.150065     0.001800     NO 
 RMS     Displacement     0.038493     0.001200     NO 
 Predicted change in Energy=-5.831458D-03
 GradGradGradGradGradGradGradGradGradGradGradGradGradGradGradGradGradGrad

                          Input orientation:                          
 ---------------------------------------------------------------------
 Center     Atomic      Atomic             Coordinates (Angstroms)
 Number     Number       Type             X           Y           Z
 ---------------------------------------------------------------------
      1          6           0       -3.143461    0.200978   -0.000000
      2          6           0       -1.962447    0.962278   -0.000000
      3          6           0       -0.725037    0.301646    0.000000
      4          6           0       -0.700591   -1.108341    0.000000
      5          6           0       -1.899114   -1.839226    0.000000
      6          6           0       -3.140371   -1.196002   -0.000000
      7         17           0       -4.642450    1.053303   -0.000000
      8         17           0        0.821573   -1.904789    0.000000
      9          1           0       -1.859991   -2.959470    0.000000
     10          1           0       -1.989641    2.086396   -0.000000
     11          1           0        0.241659    0.895748    0.000000
 ---------------------------------------------------------------------
                    Distance matrix (angstroms):
                    1          2          3          4          5
     1  C    0.000000
     2  C    1.405123   0.000000
     3  C    2.420518   1.402718   0.000000
     4  C    2.771630   2.424819   1.410199   0.000000
     5  C    2.389734   2.802219   2.441677   1.403799   0.000000
     6  C    1.396984   2.458796   2.841969   2.441355   1.398018
     7  Cl   1.724362   2.681548   3.988873   4.495660   3.986554
     8  Cl   4.489516   3.996354   2.694505   1.717938   2.721477
     9  H    3.411119   3.923086   3.452969   2.184236   1.120928
    10  H    2.210453   1.124447   2.187363   3.444996   3.926666
    11  H    3.455683   2.205110   1.134663   2.214545   3.473182
                    6          7          8          9         10
     6  C    0.000000
     7  Cl   2.704739   0.000000
     8  Cl   4.024846   6.213361   0.000000
     9  H    2.179264   4.883076   2.881517   0.000000
    10  H    3.478264   2.846872   4.881853   5.047532   0.000000
    11  H    3.976625   4.886650   2.859949   4.390859   2.529099
                   11
    11  H    0.000000
 Stoichiometry    C6H3Cl2(1-)
 Framework group  CS[SG(C6H3Cl2)]
 Deg. of freedom    19
 Full point group                 CS      NOp   2
 Largest Abelian subgroup         CS      NOp   2
 Largest concise Abelian subgroup C1      NOp   1
                         Standard orientation:                         
 ---------------------------------------------------------------------
 Center     Atomic      Atomic             Coordinates (Angstroms)
 Number     Number       Type             X           Y           Z
 ---------------------------------------------------------------------
      1          6           0       -1.185340    0.740806    0.000000
      2          6           0       -1.212356   -0.664057   -0.000000
      3          6           0        0.000000   -1.369614   -0.000000
      4          6           0        1.212419   -0.649404   -0.000000
      5          6           0        1.204356    0.754371    0.000000
      6          6           0        0.004789    1.472351    0.000000
      7         17           0       -2.698253    1.568164    0.000000
      8         17           0        2.689972   -1.525844   -0.000000
      9          1           0        2.177984    1.309823    0.000000
     10          1           0       -2.183011   -1.231694   -0.000000
     11          1           0        0.002598   -2.504274   -0.000000
 ---------------------------------------------------------------------
 Rotational constants (GHZ):           5.8384233           0.6743532           0.6045285
 Standard basis: VSTO-6G (5D, 7F)
 There are    27 symmetry adapted cartesian basis functions of A'  symmetry.
 There are     8 symmetry adapted cartesian basis functions of A"  symmetry.
 There are    27 symmetry adapted basis functions of A'  symmetry.
 There are     8 symmetry adapted basis functions of A"  symmetry.
    35 basis functions,   210 primitive gaussians,    35 cartesian basis functions
    21 alpha electrons       21 beta electrons
       nuclear repulsion energy       194.7878503485 Hartrees.
 Integral buffers will be    131072 words long.
 Regular integral format.
 Two-electron integral symmetry is turned off.
 Do NDO integrals.
 One-electron integrals computed using PRISM.
 NBasis=    35 RedAO= T EigKep=  1.00D+00  NBF=    27     8
 NBsUse=    35 1.00D-06 EigRej= -1.00D+00 NBFU=    27     8
 Initial guess from the checkpoint file:  "geometry_chks/_23ClBzAnionIntermediate.chk"
 B after Tr=     0.000000   -0.000000   -0.000000
         Rot=    1.000000   -0.000000    0.000000   -0.000109 Ang=  -0.01 deg.
 Initial guess orbital symmetries:
       Occupied  (A') (A') (A') (A') (A') (A') (A') (A') (A') (A')
[...]
            NFock= 10  Conv=0.46D-08     -V/T= 1.0005
 Calling FoFJK, ICntrl=      2127 FMM=F ISym2X=1 I1Cent= 0 IOpClX= 0 NMat=1 NMatS=1 NMatT=0.
 ***** Axes restored to original set *****
 -------------------------------------------------------------------
 Center     Atomic                   Forces (Hartrees/Bohr)
 Number     Number              X              Y              Z
 -------------------------------------------------------------------
      1        6          -0.000042433   -0.000040063   -0.000000000
      2        6          -0.000054676    0.000053903    0.000000000
      3        6           0.000143809    0.000001915   -0.000000000
      4        6           0.000097885    0.000012779   -0.000000000
      5        6          -0.000027928   -0.000009583   -0.000000000
      6        6          -0.000081018    0.000025206   -0.000000000
      7       17           0.000018462   -0.000011497    0.000000000
      8       17          -0.000021461    0.000013476    0.000000000
      9        1           0.000000719   -0.000026361    0.000000000
     10        1           0.000001673    0.000001794    0.000000000
     11        1          -0.000035031   -0.000021569    0.000000000
 -------------------------------------------------------------------
 Cartesian Forces:  Max     0.000143809 RMS     0.000039432

 GradGradGradGradGradGradGradGradGradGradGradGradGradGradGradGradGradGrad
 Berny optimization.
 Using GEDIIS/GDIIS optimizer.
 FormGI is forming the generalized inverse of G from B-inverse, IUseBI=4.
 Internal  Forces:  Max     0.000096920 RMS     0.000025829
 Search for a local minimum.
 Step number  11 out of a maximum of   57
 All quantities printed in internal units (Hartrees-Bohrs-Radians)
 Mixed Optimization -- En-DIIS/RFO-DIIS
 Swapping is turned off.
 Update second derivatives using D2CorX and points    4    5    6    8    7
                                                      9   10   11
 DE= -5.43D-05 DEPred=-5.42D-05 R= 1.00D+00
 TightC=F SS=  1.41D+00  RLast= 1.72D-02 DXNew= 3.5676D-01 5.1714D-02
 Trust test= 1.00D+00 RLast= 1.72D-02 DXMaxT set to 2.12D-01
 ITU=  1 -1  1 -1  1  0  1  0  0  1  0
     Eigenvalues ---    0.02011   0.02011   0.02011   0.02011   0.02011
     Eigenvalues ---    0.02011   0.02011   0.02011   0.14889   0.15977
     Eigenvalues ---    0.16001   0.17120   0.22021   0.24084   0.24766
     Eigenvalues ---    0.25005   0.28749   0.29760   0.33712   0.34554
     Eigenvalues ---    0.35733   0.42452   0.43659   0.44503   0.44911
     Eigenvalues ---    0.45932   0.81221
 En-DIIS/RFO-DIIS/Sim-DIIS IScMMF=       -3 using points:    11   10    9
 RFO step:  Lambda=-6.64781191D-08.
 DidBck=F Rises=F RFO-DIIS coefs:    1.00529   -0.00210   -0.00319
 Iteration  1 RMS(Cart)=  0.00006872 RMS(Int)=  0.00000000
 Iteration  2 RMS(Cart)=  0.00000000 RMS(Int)=  0.00000000
 ClnCor:  largest displacement from symmetrization is 5.69D-13 for atom     7.
 Variable       Old X    -DE/DX   Delta X   Delta X   Delta X     New X
                                 (Linear)    (Quad)   (Total)
    R1        2.64202   0.00005  -0.00000   0.00008   0.00008   2.64210
    R2        2.62184  -0.00002   0.00000  -0.00008  -0.00008   2.62176
    R3        3.27187  -0.00002  -0.00000  -0.00011  -0.00011   3.27177
    R4        2.63872   0.00010   0.00000   0.00016   0.00016   2.63889
    R5        2.07568   0.00000  -0.00002   0.00002  -0.00000   2.07568
    R6        2.64425   0.00000  -0.00000  -0.00002  -0.00002   2.64423
    R7        2.07223  -0.00004  -0.00000  -0.00014  -0.00014   2.07209
    R8        2.63874   0.00009  -0.00000   0.00017   0.00017   2.63891
    R9        3.26841  -0.00003  -0.00001  -0.00012  -0.00013   3.26829
   R10        2.63198   0.00006   0.00000   0.00008   0.00008   2.63206
   R11        2.07521   0.00003   0.00001   0.00006   0.00007   2.07529
    A1        2.15489   0.00002   0.00000   0.00006   0.00007   2.15496
    A2        2.04495  -0.00001  -0.00000  -0.00003  -0.00003   2.04493
    A3        2.08334  -0.00001   0.00000  -0.00004  -0.00004   2.08330
    A4        2.06864   0.00001  -0.00000   0.00008   0.00008   2.06872
    A5        2.12867  -0.00001   0.00000  -0.00003  -0.00003   2.12864
    A6        2.08588  -0.00001   0.00000  -0.00005  -0.00005   2.08583
    A7        2.07342  -0.00003  -0.00000  -0.00012  -0.00012   2.07330
    A8        2.09910   0.00001   0.00000   0.00006   0.00006   2.09916
    A9        2.11067   0.00001   0.00000   0.00006   0.00006   2.11073
   A10        2.11900  -0.00001   0.00001  -0.00003  -0.00002   2.11898
   A11        2.06196   0.00000  -0.00000  -0.00000  -0.00001   2.06195
   A12        2.10223   0.00001  -0.00000   0.00003   0.00003   2.10226
   A13        2.10173   0.00003  -0.00001   0.00014   0.00014   2.10187
   A14        2.09446  -0.00001   0.00000  -0.00007  -0.00007   2.09439
   A15        2.08700  -0.00001   0.00000  -0.00007  -0.00007   2.08693
   A16        2.04870  -0.00002   0.00000  -0.00014  -0.00014   2.04855
    D1        0.00000   0.00000   0.00000   0.00000  -0.00000   0.00000
    D2        3.14159   0.00000   0.00000   0.00000   0.00000   3.14159
    D3        3.14159  -0.00000   0.00000  -0.00000   0.00000   3.14159
    D4       -0.00000  -0.00000   0.00000  -0.00000   0.00000   0.00000
    D5        0.00000  -0.00000   0.00000  -0.00000   0.00000   0.00000
    D6        3.14159   0.00000   0.00000   0.00000   0.00000   3.14159
    D7       -0.00000  -0.00000   0.00000  -0.00000   0.00000   0.00000
    D8        3.14159   0.00000   0.00000   0.00000   0.00000   3.14159
    D9        3.14159  -0.00000   0.00000  -0.00000   0.00000   3.14159
   D10        0.00000   0.00000   0.00000   0.00000   0.00000   0.00000
   D11        0.00000   0.00000   0.00000   0.00000  -0.00000   0.00000
   D12        3.14159   0.00000   0.00000   0.00000   0.00000   3.14159
   D13        3.14159  -0.00000   0.00000  -0.00000   0.00000   3.14159
   D14        0.00000  -0.00000   0.00000  -0.00000  -0.00000   0.00000
   D15       -0.00000   0.00000   0.00000   0.00000   0.00000   0.00000
   D16        3.14159   0.00000   0.00000   0.00000   0.00000   3.14159
   D17        3.14159  -0.00000   0.00000  -0.00000   0.00000   3.14159
   D18        0.00000   0.00000   0.00000   0.00000  -0.00000   0.00000
   D19        0.00000  -0.00000   0.00000  -0.00000  -0.00000   0.00000
   D20        3.14159  -0.00000   0.00000  -0.00000   0.00000   3.14159
         Item               Value     Threshold  Converged?
 Maximum Force            0.000097     0.000450     YES
 RMS     Force            0.000026     0.000300     YES
 Maximum Displacement     0.000247     0.001800     YES
 RMS     Displacement     0.000069     0.001200     YES
 Predicted change in Energy=-3.612610D-08
 Optimization completed.
    -- Stationary point found.
                           ----------------------------
                           !   Optimized Parameters   !
                           ! (Angstroms and Degrees)  !
 --------------------------                            --------------------------
 ! Name  Definition              Value          Derivative Info.                !
 --------------------------------------------------------------------------------
 ! R1    R(1,2)                  1.3981         -DE/DX =    0.0001              !
 ! R2    R(1,6)                  1.3874         -DE/DX =    0.0                 !
 ! R3    R(1,7)                  1.7314         -DE/DX =    0.0                 !
 ! R4    R(2,3)                  1.3964         -DE/DX =    0.0001              !
 ! R5    R(2,10)                 1.0984         -DE/DX =    0.0                 !
 ! R6    R(3,4)                  1.3993         -DE/DX =    0.0                 !
 ! R7    R(3,11)                 1.0966         -DE/DX =    0.0                 !
 ! R8    R(4,5)                  1.3964         -DE/DX =    0.0001              !
 ! R9    R(4,8)                  1.7296         -DE/DX =    0.0                 !
 ! R10   R(5,6)                  1.3928         -DE/DX =    0.0001              !
 ! R11   R(5,9)                  1.0982         -DE/DX =    0.0                 !
 ! A1    A(2,1,6)              123.466          -DE/DX =    0.0                 !
 ! A2    A(2,1,7)              117.1673         -DE/DX =    0.0                 !
 ! A3    A(6,1,7)              119.3667         -DE/DX =    0.0                 !
 ! A4    A(1,2,3)              118.5241         -DE/DX =    0.0                 !
 ! A5    A(1,2,10)             121.9639         -DE/DX =    0.0                 !
 ! A6    A(3,2,10)             119.512          -DE/DX =    0.0                 !
 ! A7    A(2,3,4)              118.7982         -DE/DX =    0.0                 !
 ! A8    A(2,3,11)             120.2694         -DE/DX =    0.0                 !
 ! A9    A(4,3,11)             120.9324         -DE/DX =    0.0                 !
 ! A10   A(3,4,5)              121.4097         -DE/DX =    0.0                 !
 ! A11   A(3,4,8)              118.1415         -DE/DX =    0.0                 !
 ! A12   A(5,4,8)              120.4488         -DE/DX =    0.0                 !
 ! A13   A(4,5,6)              120.4203         -DE/DX =    0.0                 !
 ! A14   A(4,5,9)              120.0035         -DE/DX =    0.0                 !
 ! A15   A(6,5,9)              119.5762         -DE/DX =    0.0                 !
 ! A16   A(1,6,5)              117.3817         -DE/DX =    0.0                 !
 ! D1    D(6,1,2,3)              0.0            -DE/DX =    0.0                 !
 ! D2    D(6,1,2,10)           180.0            -DE/DX =    0.0                 !
 ! D3    D(7,1,2,3)            180.0            -DE/DX =    0.0                 !
 ! D4    D(7,1,2,10)             0.0            -DE/DX =    0.0                 !
 ! D5    D(2,1,6,5)              0.0            -DE/DX =    0.0                 !
 ! D6    D(7,1,6,5)            180.0            -DE/DX =    0.0                 !
 ! D7    D(1,2,3,4)              0.0            -DE/DX =    0.0                 !
 ! D8    D(1,2,3,11)           180.0            -DE/DX =    0.0                 !
 ! D9    D(10,2,3,4)           180.0            -DE/DX =    0.0                 !
 ! D10   D(10,2,3,11)            0.0            -DE/DX =    0.0                 !
 ! D11   D(2,3,4,5)              0.0            -DE/DX =    0.0                 !
 ! D12   D(2,3,4,8)            180.0            -DE/DX =    0.0                 !
 ! D13   D(11,3,4,5)           180.0            -DE/DX =    0.0                 !
 ! D14   D(11,3,4,8)             0.0            -DE/DX =    0.0                 !
 ! D15   D(3,4,5,6)              0.0            -DE/DX =    0.0                 !
 ! D16   D(3,4,5,9)            180.0            -DE/DX =    0.0                 !
 ! D17   D(8,4,5,6)            180.0            -DE/DX =    0.0                 !
 ! D18   D(8,4,5,9)              0.0            -DE/DX =    0.0                 !
 ! D19   D(4,5,6,1)              0.0            -DE/DX =    0.0                 !
 ! D20   D(9,5,6,1)            180.0            -DE/DX =    0.0                 !
 --------------------------------------------------------------------------------
 GradGradGradGradGradGradGradGradGradGradGradGradGradGradGradGradGradGrad

                          Input orientation:                          
 ---------------------------------------------------------------------
 Center     Atomic      Atomic             Coordinates (Angstroms)
 Number     Number       Type             X           Y           Z
 ---------------------------------------------------------------------
      1          6           0       -3.126689    0.196014   -0.000000
      2          6           0       -1.957564    0.962711   -0.000000
      3          6           0       -0.727179    0.302444    0.000000
      4          6           0       -0.713046   -1.096760    0.000000
      5          6           0       -1.897379   -1.836479    0.000000
      6          6           0       -3.131766   -1.191394   -0.000000
      7         17           0       -4.632486    1.050605   -0.000000
      8         17           0        0.820224   -1.897067    0.000000
      9          1           0       -1.859344   -2.933974    0.000000
     10          1           0       -1.982339    2.060834   -0.000000
     11          1           0        0.207698    0.875586    0.000000
 ---------------------------------------------------------------------
                    Distance matrix (angstroms):
                    1          2          3          4          5
     1  C    0.000000
     2  C    1.398098   0.000000
     3  C    2.401870   1.396353   0.000000
     4  C    2.738053   2.406293   1.399276   0.000000
     5  C    2.375338   2.799837   2.438106   1.396362   0.000000
     6  C    1.387417   2.453349   2.830829   2.420571   1.392784
     7  Cl   1.731401   2.676366   3.976327   4.469137   3.976942
     8  Cl   4.467562   3.986783   2.689294   1.729569   2.718278
     9  H    3.376832   3.897924   3.428732   2.165492   1.098154
    10  H    2.187942   1.098402   2.160408   3.403161   3.898239
    11  H    3.402933   2.167013   1.096579   2.176676   3.433168
                    6          7          8          9         10
     6  C    0.000000
     7  Cl   2.697910   0.000000
     8  Cl   4.014499   6.198453   0.000000
     9  H    2.157694   4.854605   2.873197   0.000000
    10  H    3.449373   2.836167   4.849675   4.996323   0.000000
    11  H    3.927394   4.843347   2.839506   4.334214   2.490196
                   11
    11  H    0.000000
 Stoichiometry    C6H3Cl2(1-)
 Framework group  CS[SG(C6H3Cl2)]
 Deg. of freedom    19
 Full point group                 CS      NOp   2
 Largest Abelian subgroup         CS      NOp   2
 Largest concise Abelian subgroup C1      NOp   1
                         Standard orientation:                         
 ---------------------------------------------------------------------
 Center     Atomic      Atomic             Coordinates (Angstroms)
 Number     Number       Type             X           Y           Z
 ---------------------------------------------------------------------
      1          6           0        0.092259    1.379287    0.000000
      2          6           0       -1.157433    0.752432   -0.000000
      3          6           0       -1.203374   -0.643164   -0.000000
      4          6           0       -0.000000   -1.357211   -0.000000
      5          6           0        1.233981   -0.703668    0.000000
      6          6           0        1.295064    0.687776    0.000000
      7         17           0        0.108232    3.110615    0.000000
      8         17           0       -0.076715   -3.085078   -0.000000
      9          1           0        2.164355   -1.287060    0.000000
     10          1           0       -2.095001    1.324668   -0.000000
     11          1           0       -2.168124   -1.164454   -0.000000
 ---------------------------------------------------------------------
 Rotational constants (GHZ):           5.8799252           0.6785842           0.6083736

 **********************************************************************

            Population analysis using the SCF Density.

 **********************************************************************

 Orbital symmetries:
       Occupied  (A') (A') (A') (A') (A') (A') (A') (A') (A') (A')
                 (A') (A") (A') (A") (A') (A') (A") (A') (A") (A")
                 (A')
       Virtual   (A") (A") (A') (A') (A") (A') (A') (A') (A') (A')
                 (A') (A') (A') (A')
 The electronic state is 1-A'.
 Alpha  occ. eigenvalues --   -1.26918  -1.21878  -1.18630  -0.97183  -0.93987
 Alpha  occ. eigenvalues --   -0.67868  -0.65789  -0.48839  -0.43519  -0.41572
 Alpha  occ. eigenvalues --   -0.37354  -0.36644  -0.33347  -0.32735  -0.30049
 Alpha  occ. eigenvalues --   -0.28607  -0.27136  -0.25856  -0.18124  -0.16032
 Alpha  occ. eigenvalues --   -0.10949
 Alpha virt. eigenvalues --    0.18155   0.19910   0.20292   0.23106   0.29506
 Alpha virt. eigenvalues --    0.30322   0.30567   0.32839   0.34668   0.34990
 Alpha virt. eigenvalues --    0.35901   0.36853   0.40070   0.41589
          Condensed to atoms (all electrons):
               1          2          3          4          5          6
     1  C    4.065249   0.000000   0.000000   0.000000   0.000000   0.000000
     2  C    0.000000   4.149956   0.000000   0.000000   0.000000   0.000000
     3  C    0.000000   0.000000   4.216429   0.000000   0.000000   0.000000
     4  C    0.000000   0.000000   0.000000   4.068204   0.000000   0.000000
     5  C    0.000000   0.000000   0.000000   0.000000   4.141515   0.000000
     6  C    0.000000   0.000000   0.000000   0.000000   0.000000   4.367824
     7  Cl   0.000000   0.000000   0.000000   0.000000   0.000000   0.000000
     8  Cl   0.000000   0.000000   0.000000   0.000000   0.000000   0.000000
     9  H    0.000000   0.000000   0.000000   0.000000   0.000000   0.000000
    10  H    0.000000   0.000000   0.000000   0.000000   0.000000   0.000000
    11  H    0.000000   0.000000   0.000000   0.000000   0.000000   0.000000
               7          8          9         10         11
     1  C    0.000000   0.000000   0.000000   0.000000   0.000000
     2  C    0.000000   0.000000   0.000000   0.000000   0.000000
     3  C    0.000000   0.000000   0.000000   0.000000   0.000000
     4  C    0.000000   0.000000   0.000000   0.000000   0.000000
     5  C    0.000000   0.000000   0.000000   0.000000   0.000000
     6  C    0.000000   0.000000   0.000000   0.000000   0.000000
     7  Cl   7.146782   0.000000   0.000000   0.000000   0.000000
     8  Cl   0.000000   7.145486   0.000000   0.000000   0.000000
     9  H    0.000000   0.000000   0.896758   0.000000   0.000000
    10  H    0.000000   0.000000   0.000000   0.903740   0.000000
    11  H    0.000000   0.000000   0.000000   0.000000   0.898058
 Mulliken charges:
               1
     1  C   -0.065249
     2  C   -0.149956
     3  C   -0.216429
     4  C   -0.068204
     5  C   -0.141515
     6  C   -0.367824
     7  Cl  -0.146782
     8  Cl  -0.145486
     9  H    0.103242
    10  H    0.096260
    11  H    0.101942
 Sum of Mulliken charges =  -1.00000
 Mulliken charges with hydrogens summed into heavy atoms:
               1
     1  C   -0.065249
     2  C   -0.053696
     3  C   -0.114486
     4  C   -0.068204
     5  C   -0.038273
     6  C   -0.367824
     7  Cl  -0.146782
     8  Cl  -0.145486
 Charge=             -1.0000 electrons
 Dipole moment (field-independent basis, Debye):
    X=             -3.9151    Y=             -2.1486    Z=              0.0000  Tot=              4.4659
 N-N= 1.953031452363D+02 E-N=-2.758372608016D+02  KE=-9.222317620175D+01
 Symmetry A'   KE=-7.177169183221D+01
 Symmetry A"   KE=-2.045148436954D+01
 1\1\GINC-SH03-01N69\FOpt\RAM1\ZDO\C6H3Cl2(1-)\JLAPIER\08-Dec-2025\0\\#
  opt am1 SCF(maxcyc=10000)\\Anion Intermediate (removed 1) _23\\-1,1\C
 ,-3.1266889043,0.196014067,0.\C,-1.9575636296,0.9627114018,0.\C,-0.727
 1785484,0.3024440853,0.\C,-0.71304639,-1.0967602106,0.\C,-1.8973787006
 ,-1.8364788761,0.\C,-3.1317663197,-1.191394094,0.\Cl,-4.6324862672,1.0
 506047966,0.\Cl,0.8202240861,-1.8970670293,0.\H,-1.8593438199,-2.93397
 44731,0.\H,-1.9823391195,2.0608343302,0.\H,0.2076976131,0.8755860022,0
 .\\Version=ES64L-G16RevB.01\State=1-A'\HF=0.0427715\RMSD=4.583e-09\RMS
 F=3.943e-05\Dipole=1.5038915,0.908562,0.\PG=CS [SG(C6H3Cl2)]\\@


 MARY HAD A LITTLE LAMB
      HIS FEET WERE BLACK AS SOOT,
           AND EVERYWHERE THAT MARY WENT
                HIS SOOTY FOOT HE PUT.

                    -- NONAME
 Job cpu time:       0 days  0 hours  0 minutes  3.6 seconds.
 Elapsed time:       0 days  0 hours  0 minutes 21.5 seconds.
 File lengths (MBytes):  RWF=     10 Int=      0 D2E=      0 Chk=      2 Scr=      1
 Normal termination of Gaussian 16 at Mon Dec  8 17:08:55 2025.
