 Entering Gaussian System, Link 0=g16
 Initial command:
 /share/software/user/restricted/gaussian/g16.B01/l1.exe "/home/users/jlapier/Chloroaromatics/Gau-26845.inp" -scrdir="/home/users/jlapier/Chloroaromatics/"
 Entering Link 1 = /share/software/user/restricted/gaussian/g16.B01/l1.exe PID=     26851.
  
 Copyright (c) 1988-2017, Gaussian, Inc.  All Rights Reserved.
  
 This is part of the Gaussian(R) 16 program.  It is based on
 the Gaussian(R) 09 system (copyright 2009, Gaussian, Inc.),
 the Gaussian(R) 03 system (copyright 2003, Gaussian, Inc.),
 the Gaussian(R) 98 system (copyright 1998, Gaussian, Inc.),
 the Gaussian(R) 94 system (copyright 1995, Gaussian, Inc.),
 the Gaussian 92(TM) system (copyright 1992, Gaussian, Inc.),
 the Gaussian 90(TM) system (copyright 1990, Gaussian, Inc.),
 the Gaussian 88(TM) system (copyright 1988, Gaussian, Inc.),
 the Gaussian 86(TM) system (copyright 1986, Carnegie Mellon
 University), and the Gaussian 82(TM) system (copyright 1983,
 Carnegie Mellon University). Gaussian is a federally registered
 trademark of Gaussian, Inc.
  
 This software contains proprietary and confidential information,
 including trade secrets, belonging to Gaussian, Inc.
  
 This software is provided under written license and may be
 used, copied, transmitted, or stored only in accord with that
 written license.
  
 The following legend is applicable only to US Government
 contracts under FAR:
  
                    RESTRICTED RIGHTS LEGEND
  
 Use, reproduction and disclosure by the US Government is
 subject to restrictions as set forth in subparagraphs (a)
 and (c) of the Commercial Computer Software - Restricted
 Rights clause in FAR 52.227-19.
  
 Gaussian, Inc.
 340 Quinnipiac St., Bldg. 40, Wallingford CT 06492
  
  
 ---------------------------------------------------------------
 Warning -- This program may not be used in any manner that
 competes with the business of Gaussian, Inc. or will provide
 assistance to any competitor of Gaussian, Inc.  The licensee
 of this program is prohibited from giving any competitor of
 Gaussian, Inc. access to this program.  By using this program,
 the user acknowledges that Gaussian, Inc. is engaged in the
 business of creating and licensing software in the field of
 computational chemistry and represents and warrants to the
 licensee that it is not a competitor of Gaussian, Inc. and that
 it will not use this program in any manner prohibited above.
 ---------------------------------------------------------------
  

 Cite this work as:
 Gaussian 16, Revision B.01,
 M. J. Frisch, G. W. Trucks, H. B. Schlegel, G. E. Scuseria, 
 M. A. Robb, J. R. Cheeseman, G. Scalmani, V. Barone, 
 G. A. Petersson, H. Nakatsuji, X. Li, M. Caricato, A. V. Marenich, 
 J. Bloino, B. G. Janesko, R. Gomperts, B. Mennucci, H. P. Hratchian, 
 J. V. Ortiz, A. F. Izmaylov, J. L. Sonnenberg, D. Williams-Young, 
 F. Ding, F. Lipparini, F. Egidi, J. Goings, B. Peng, A. Petrone, 
 T. Henderson, D. Ranasinghe, V. G. Zakrzewski, J. Gao, N. Rega, 
 G. Zheng, W. Liang, M. Hada, M. Ehara, K. Toyota, R. Fukuda, 
 J. Hasegawa, M. Ishida, T. Nakajima, Y. Honda, O. Kitao, H. Nakai, 
 T. Vreven, K. Throssell, J. A. Montgomery, Jr., J. E. Peralta, 
 F. Ogliaro, M. J. Bearpark, J. J. Heyd, E. N. Brothers, K. N. Kudin, 
 V. N. Staroverov, T. A. Keith, R. Kobayashi, J. Normand, 
 K. Raghavachari, A. P. Rendell, J. C. Burant, S. S. Iyengar, 
 J. Tomasi, M. Cossi, J. M. Millam, M. Klene, C. Adamo, R. Cammi, 
 J. W. Ochterski, R. L. Martin, K. Morokuma, O. Farkas, 
 J. B. Foresman, and D. J. Fox, Gaussian, Inc., Wallingford CT, 2016.
 
 ******************************************
 Gaussian 16:  ES64L-G16RevB.01 20-Dec-2017
                 9-Dec-2025 
 ******************************************
 %mem=2GB
 %nprocshare=1
 Will use up to    1 processors via shared memory.
 %chk=geometry_chks/_23ClBzNeutralRadical.chk
 -----------------
 # opt am1 SCF=XQC
 -----------------
 1/18=20,19=15,26=1,38=1/1,3;
 2/9=110,12=2,17=6,18=5,40=1/2;
 3/5=2,25=1,41=700000,71=1/1,2,3;
 4/35=1/1;
 5/5=2,8=3,13=1,35=1,38=5/2,8;
 6/7=2,8=2,9=2,10=2,28=1/1;
 7//1,2,3,16;
 1/18=20,19=15,26=1/3(2);
 2/9=110/2;
 99//99;
 2/9=110/2;
 3/5=2,25=1,41=700000,71=1,135=20/1,2,3;
 4/5=5,16=3,35=1/1;
 5/5=2,8=3,13=1,35=1,38=5/2,8;
 7//1,2,3,16;
 1/18=20,19=15,26=1/3(-5);
 2/9=110/2;
 6/7=2,8=2,9=2,10=2,19=2,28=1/1;
 99/9=1/99;
 -------------------------------
 Neutral Radical (removed 1) _23
 -------------------------------
 Symbolic Z-matrix:
 Charge =  0 Multiplicity = 2
 C                    -3.20928   0.19943   0. 
 C                    -2.0115    0.93555   0. 
 C                    -0.77511   0.2663    0. 
 C                    -0.7365   -1.13907   0. 
 C                    -1.93429  -1.87519   0. 
 C                    -3.17067  -1.20594   0. 
 Cl                   -4.76193   1.03987   0. 
 Cl                   -2.05998   2.7004    0. 
 H                     0.72905   1.19071   0. 
 H                     0.81614  -1.97951   0. 
 H                    -1.8858   -3.64003   0. 
 
 Add virtual bond connecting atoms H11        and C5         Dist= 3.34D+00.
 Add virtual bond connecting atoms H10        and C4         Dist= 3.34D+00.
 Add virtual bond connecting atoms H9         and C3         Dist= 3.34D+00.

 GradGradGradGradGradGradGradGradGradGradGradGradGradGradGradGradGradGrad
 Berny optimization.
 Initialization pass.
                           ----------------------------
                           !    Initial Parameters    !
                           ! (Angstroms and Degrees)  !
 --------------------------                            --------------------------
 ! Name  Definition              Value          Derivative Info.                !
 --------------------------------------------------------------------------------
 ! R1    R(1,2)                  1.4059         estimate D2E/DX2                !
 ! R2    R(1,6)                  1.4059         estimate D2E/DX2                !
 ! R3    R(1,7)                  1.7655         estimate D2E/DX2                !
 ! R4    R(2,3)                  1.4059         estimate D2E/DX2                !
 ! R5    R(2,8)                  1.7655         estimate D2E/DX2                !
 ! R6    R(3,4)                  1.4059         estimate D2E/DX2                !
 ! R7    R(3,9)                  1.7655         estimate D2E/DX2                !
 ! R8    R(4,5)                  1.4059         estimate D2E/DX2                !
 ! R9    R(4,10)                 1.7655         estimate D2E/DX2                !
 ! R10   R(5,6)                  1.4059         estimate D2E/DX2                !
 ! R11   R(5,11)                 1.7655         estimate D2E/DX2                !
 ! A1    A(2,1,6)              119.9999         estimate D2E/DX2                !
 ! A2    A(2,1,7)              119.9999         estimate D2E/DX2                !
 ! A3    A(6,1,7)              120.0001         estimate D2E/DX2                !
 ! A4    A(1,2,3)              120.0            estimate D2E/DX2                !
 ! A5    A(1,2,8)              120.0001         estimate D2E/DX2                !
 ! A6    A(3,2,8)              119.9999         estimate D2E/DX2                !
 ! A7    A(2,3,4)              120.0001         estimate D2E/DX2                !
 ! A8    A(2,3,9)              120.0            estimate D2E/DX2                !
 ! A9    A(4,3,9)              119.9999         estimate D2E/DX2                !
 ! A10   A(3,4,5)              119.9997         estimate D2E/DX2                !
 ! A11   A(3,4,10)             120.0003         estimate D2E/DX2                !
 ! A12   A(5,4,10)             120.0            estimate D2E/DX2                !
 ! A13   A(4,5,6)              120.0            estimate D2E/DX2                !
 ! A14   A(4,5,11)             119.9996         estimate D2E/DX2                !
 ! A15   A(6,5,11)             120.0004         estimate D2E/DX2                !
 ! A16   A(1,6,5)              120.0003         estimate D2E/DX2                !
 ! D1    D(6,1,2,3)              0.0            estimate D2E/DX2                !
 ! D2    D(6,1,2,8)            180.0            estimate D2E/DX2                !
 ! D3    D(7,1,2,3)            180.0            estimate D2E/DX2                !
 ! D4    D(7,1,2,8)              0.0            estimate D2E/DX2                !
 ! D5    D(2,1,6,5)              0.0            estimate D2E/DX2                !
 ! D6    D(7,1,6,5)            180.0            estimate D2E/DX2                !
 ! D7    D(1,2,3,4)              0.0            estimate D2E/DX2                !
 ! D8    D(1,2,3,9)            180.0            estimate D2E/DX2                !
 ! D9    D(8,2,3,4)            180.0            estimate D2E/DX2                !
 ! D10   D(8,2,3,9)              0.0            estimate D2E/DX2                !
 ! D11   D(2,3,4,5)              0.0            estimate D2E/DX2                !
 ! D12   D(2,3,4,10)           180.0            estimate D2E/DX2                !
 ! D13   D(9,3,4,5)            180.0            estimate D2E/DX2                !
 ! D14   D(9,3,4,10)             0.0            estimate D2E/DX2                !
 ! D15   D(3,4,5,6)              0.0            estimate D2E/DX2                !
 ! D16   D(3,4,5,11)           180.0            estimate D2E/DX2                !
 ! D17   D(10,4,5,6)           180.0            estimate D2E/DX2                !
 ! D18   D(10,4,5,11)            0.0            estimate D2E/DX2                !
 ! D19   D(4,5,6,1)              0.0            estimate D2E/DX2                !
 ! D20   D(11,5,6,1)           180.0            estimate D2E/DX2                !
 --------------------------------------------------------------------------------
 Trust Radius=3.00D-01 FncErr=1.00D-07 GrdErr=1.00D-07 EigMax=2.50D+02 EigMin=1.00D-04
 Number of steps in this run=     57 maximum allowed number of steps=    100.
 GradGradGradGradGradGradGradGradGradGradGradGradGradGradGradGradGradGrad

                          Input orientation:                          
 ---------------------------------------------------------------------
 Center     Atomic      Atomic             Coordinates (Angstroms)
 Number     Number       Type             X           Y           Z
 ---------------------------------------------------------------------
      1          6           0       -3.209280    0.199430    0.000000
      2          6           0       -2.011500    0.935550    0.000000
      3          6           0       -0.775110    0.266300    0.000000
      4          6           0       -0.736500   -1.139070    0.000000
      5          6           0       -1.934290   -1.875190    0.000000
      6          6           0       -3.170670   -1.205940    0.000000
      7         17           0       -4.761930    1.039870    0.000000
      8         17           0       -2.059980    2.700400    0.000000
      9          1           0        0.729050    1.190710    0.000000
     10          1           0        0.816140   -1.979510    0.000000
     11          1           0       -1.885800   -3.640030    0.000000
 ---------------------------------------------------------------------
                    Distance matrix (angstroms):
                    1          2          3          4          5
     1  C    0.000000
     2  C    1.405898   0.000000
     3  C    2.435088   1.405900   0.000000
     4  C    2.811801   2.435092   1.405900   0.000000
     5  C    2.435087   2.811800   2.435093   1.405907   0.000000
     6  C    1.405900   2.435088   2.811796   2.435088   1.405892
     7  Cl   1.765520   2.752408   4.061175   4.577321   4.061173
     8  Cl   2.752406   1.765516   2.752405   4.061173   4.577316
     9  H    4.061167   2.752403   1.765512   2.752401   4.061173
    10  H    4.577312   4.061173   2.752406   1.765511   2.752408
    11  H    4.061164   4.577306   4.061163   2.752397   1.765506
                    6          7          8          9         10
     6  C    0.000000
     7  Cl   2.752412   0.000000
     8  Cl   4.061173   3.171418   0.000000
     9  H    4.577308   5.493051   3.171412   0.000000
    10  H    4.061165   6.342832   5.493052   3.171416   0.000000
    11  H    2.752396   5.493049   6.342822   5.493040   3.171404
                   11
    11  H    0.000000
 Stoichiometry    C6H3Cl2(2)
 Framework group  CS[SG(C6H3Cl2)]
 Deg. of freedom    19
 Full point group                 CS      NOp   2
 Largest Abelian subgroup         CS      NOp   2
 Largest concise Abelian subgroup C1      NOp   1
                         Standard orientation:                         
 ---------------------------------------------------------------------
 Center     Atomic      Atomic             Coordinates (Angstroms)
 Number     Number       Type             X           Y           Z
 ---------------------------------------------------------------------
      1          6           0        0.639602   -0.384963    0.000000
      2          6           0       -0.577942    0.317985    0.000000
      3          6           0       -0.577942    1.723885    0.000000
      4          6           0        0.639602    2.426838    0.000000
      5          6           0        1.857151    1.723881    0.000000
      6          6           0        1.857146    0.317989    0.000000
      7         17           0        0.639601   -2.150483    0.000000
      8         17           0       -2.106925   -0.564770    0.000000
      9          1           0       -2.106920    2.606641    0.000000
     10          1           0        0.639607    4.192349    0.000000
     11          1           0        3.386120    2.606640    0.000000
 ---------------------------------------------------------------------
 Rotational constants (GHZ):           1.9289606           1.3512406           0.7946128
 Standard basis: VSTO-6G (5D, 7F)
 There are    27 symmetry adapted cartesian basis functions of A'  symmetry.
 There are     8 symmetry adapted cartesian basis functions of A"  symmetry.
 There are    27 symmetry adapted basis functions of A'  symmetry.
 There are     8 symmetry adapted basis functions of A"  symmetry.
    35 basis functions,   210 primitive gaussians,    35 cartesian basis functions
    21 alpha electrons       20 beta electrons
       nuclear repulsion energy       192.9559164129 Hartrees.
 Integral buffers will be    131072 words long.
 Regular integral format.
 Two-electron integral symmetry is turned off.
 Do NDO integrals.
 One-electron integrals computed using PRISM.
 NBasis=    35 RedAO= T EigKep=  1.00D+00  NBF=    27     8
 NBsUse=    35 1.00D-06 EigRej= -1.00D+00 NBFU=    27     8
 Simple Huckel Guess.
 Initial guess orbital symmetries:
 Alpha Orbitals:
       Occupied  (A') (A') (A') (A') (A') (A') (A') (A') (A') (A")
                 (A') (A') (A') (A") (A") (A') (A') (A") (A') (A")
                 (A')
       Virtual   (A') (A") (A") (A') (A') (A") (A') (A') (A') (A')
                 (A') (A') (A') (A')
 Beta  Orbitals:
       Occupied  (A') (A') (A') (A') (A') (A') (A') (A') (A') (A")
                 (A') (A') (A') (A") (A") (A') (A') (A") (A') (A")
       Virtual   (A') (A') (A") (A") (A') (A') (A") (A') (A') (A')
                 (A') (A') (A') (A') (A')
 The electronic state of the initial guess is 2-A'.
 Initial guess <Sx>= 0.0000 <Sy>= 0.0000 <Sz>= 0.5000 <S**2>= 0.7500 S= 0.5000
 Keep J ints in memory in canonical form, NReq=862793.
 Overlap will be assumed to be unity.
 Requested convergence on RMS density matrix=1.00D-08 within  32 cycles.
 Requested convergence on MAX density matrix=1.00D-06.
 Requested convergence on             energy=1.00D-06.
 No special actions if energy rises.
 Fock symm off for IB=2 I1=    1 I=   28 J=   23 Cut=1.00D-07 Err=5.61D-03
 Fock matrix is not symmetric: symmetry in diagonalization turned off.
 Rare condition: small coef for last iteration:  0.000D+00
 Rare condition: small coef for last iteration:  0.000D+00
 Rare condition: small coef for last iteration:  0.000D+00
 Rare condition: small coef for last iteration:  0.000D+00
 Rare condition: small coef for last iteration:  0.000D+00
 Rare condition: small coef for last iteration:  0.000D+00
 >>>>>>>>>> Convergence criterion not met.
 SCF Done:  E(UAM1) =  0.480818124843     A.U. after   33 cycles
            NFock= 32  Conv=0.17D-05     -V/T= 1.0053
 <Sx>= 0.0000 <Sy>= 0.0000 <Sz>= 0.5000 <S**2>= 1.0956 S= 0.6600
 <L.S>=  0.00000000000    
 Annihilation of the first spin contaminant:
 S**2 before annihilation     1.0956,   after     0.8509
 Keep J ints in memory in canonical form, NReq=863193.
 LinEq1:  Iter=  0 NonCon=     1 RMS=6.35D-08 Max=6.16D-07 NDo=     1
 AX will form     1 AO Fock derivatives at one time.
 LinEq1:  Iter=  1 NonCon=     1 RMS=8.52D-09 Max=5.52D-08 NDo=     1
 LinEq1:  Iter=  2 NonCon=     1 RMS=1.80D-09 Max=1.51D-08 NDo=     1
 LinEq1:  Iter=  3 NonCon=     1 RMS=5.26D-10 Max=3.88D-09 NDo=     1
 LinEq1:  Iter=  4 NonCon=     1 RMS=1.46D-10 Max=1.45D-09 NDo=     1
 LinEq1:  Iter=  5 NonCon=     1 RMS=3.97D-11 Max=4.22D-10 NDo=     1
 LinEq1:  Iter=  6 NonCon=     1 RMS=1.22D-11 Max=9.03D-11 NDo=     1
 LinEq1:  Iter=  7 NonCon=     0 RMS=4.10D-12 Max=3.08D-11 NDo=     1
 Linear equations converged to 7.337D-12 7.337D-11 after     7 iterations.
 SCF Done:  E(UAM1) =  0.480818124786     a.u. after    2 cycles
            Convg  =    0.1605D-06                     9 Fock formations.
              S**2 =  1.0956                  -V/T =  1.0053
 <Sx>= 0.0000 <Sy>= 0.0000 <Sz>= 0.5000 <S**2>= 1.0956 S= 0.6600
 <L.S>=  0.00000000000    
 Annihilation of the first spin contaminant:
 S**2 before annihilation     1.0956,   after     0.8509

 **********************************************************************

            Population analysis using the SCF Density.

 **********************************************************************

 Orbital symmetries:
 Alpha Orbitals:
       Occupied  (A') (A') (A') (A') (A') (A') (A') (A') (A') (A')
                 (A") (A') (A") (A') (A") (A') (A') (A') (A') (A")
                 (A")
       Virtual   (A") (A') (A") (A') (A') (A') (A') (A") (A') (A')
                 (A') (A') (A') (A')
 Beta  Orbitals:
       Occupied  (A') (A') (A') (A') (A') (A') (A') (A') (A') (A')
                 (A") (A') (A") (A") (A') (A') (A') (A') (A") (A")
       Virtual   (A') (A') (A") (A') (A") (A') (A') (A') (A") (A')
                 (A') (A') (A') (A') (A')
 The electronic state is 2-A'.
 Alpha  occ. eigenvalues --   -1.42689  -1.36683  -1.35583  -1.11449  -1.10949
 Alpha  occ. eigenvalues --   -0.82610  -0.81826  -0.62314  -0.59937  -0.56266
 Alpha  occ. eigenvalues --   -0.53882  -0.47880  -0.46379  -0.44974  -0.44726
 Alpha  occ. eigenvalues --   -0.44594  -0.43468  -0.40240  -0.37658  -0.36788
 Alpha  occ. eigenvalues --   -0.34942
 Alpha virt. eigenvalues --   -0.00518  -0.00509   0.00354   0.00930   0.01793
 Alpha virt. eigenvalues --    0.03660   0.05018   0.08897   0.14218   0.14512
 Alpha virt. eigenvalues --    0.16352   0.17076   0.17850   0.19715
  Beta  occ. eigenvalues --   -1.42068  -1.36576  -1.35289  -1.11402  -1.08575
  Beta  occ. eigenvalues --   -0.82400  -0.79675  -0.61236  -0.59074  -0.55787
  Beta  occ. eigenvalues --   -0.53619  -0.47360  -0.46294  -0.44590  -0.44429
  Beta  occ. eigenvalues --   -0.43601  -0.40945  -0.39526  -0.35704  -0.34793
  Beta virt. eigenvalues --   -0.02876  -0.01124  -0.00591   0.01313   0.01807
  Beta virt. eigenvalues --    0.02631   0.04637   0.05098   0.09589   0.14721
  Beta virt. eigenvalues --    0.15098   0.17185   0.18206   0.18458   0.20549
          Condensed to atoms (all electrons):
               1          2          3          4          5          6
     1  C    4.067276   0.000000   0.000000   0.000000   0.000000   0.000000
     2  C    0.000000   4.040672   0.000000   0.000000   0.000000   0.000000
     3  C    0.000000   0.000000   4.147367   0.000000   0.000000   0.000000
     4  C    0.000000   0.000000   0.000000   4.109237   0.000000   0.000000
     5  C    0.000000   0.000000   0.000000   0.000000   4.154138   0.000000
     6  C    0.000000   0.000000   0.000000   0.000000   0.000000   3.995300
     7  Cl   0.000000   0.000000   0.000000   0.000000   0.000000   0.000000
     8  Cl   0.000000   0.000000   0.000000   0.000000   0.000000   0.000000
     9  H    0.000000   0.000000   0.000000   0.000000   0.000000   0.000000
    10  H    0.000000   0.000000   0.000000   0.000000   0.000000   0.000000
    11  H    0.000000   0.000000   0.000000   0.000000   0.000000   0.000000
               7          8          9         10         11
     1  C    0.000000   0.000000   0.000000   0.000000   0.000000
     2  C    0.000000   0.000000   0.000000   0.000000   0.000000
     3  C    0.000000   0.000000   0.000000   0.000000   0.000000
     4  C    0.000000   0.000000   0.000000   0.000000   0.000000
     5  C    0.000000   0.000000   0.000000   0.000000   0.000000
     6  C    0.000000   0.000000   0.000000   0.000000   0.000000
     7  Cl   7.006609   0.000000   0.000000   0.000000   0.000000
     8  Cl   0.000000   7.018495   0.000000   0.000000   0.000000
     9  H    0.000000   0.000000   0.803116   0.000000   0.000000
    10  H    0.000000   0.000000   0.000000   0.850330   0.000000
    11  H    0.000000   0.000000   0.000000   0.000000   0.807459
          Atomic-Atomic Spin Densities.
               1          2          3          4          5          6
     1  C    0.066714   0.000000   0.000000   0.000000   0.000000   0.000000
     2  C    0.000000  -0.113328   0.000000   0.000000   0.000000   0.000000
     3  C    0.000000   0.000000   0.385983   0.000000   0.000000   0.000000
     4  C    0.000000   0.000000   0.000000  -0.522333   0.000000   0.000000
     5  C    0.000000   0.000000   0.000000   0.000000   0.303269   0.000000
     6  C    0.000000   0.000000   0.000000   0.000000   0.000000   0.900231
     7  Cl   0.000000   0.000000   0.000000   0.000000   0.000000   0.000000
     8  Cl   0.000000   0.000000   0.000000   0.000000   0.000000   0.000000
     9  H    0.000000   0.000000   0.000000   0.000000   0.000000   0.000000
    10  H    0.000000   0.000000   0.000000   0.000000   0.000000   0.000000
    11  H    0.000000   0.000000   0.000000   0.000000   0.000000   0.000000
               7          8          9         10         11
     1  C    0.000000   0.000000   0.000000   0.000000   0.000000
     2  C    0.000000   0.000000   0.000000   0.000000   0.000000
     3  C    0.000000   0.000000   0.000000   0.000000   0.000000
     4  C    0.000000   0.000000   0.000000   0.000000   0.000000
     5  C    0.000000   0.000000   0.000000   0.000000   0.000000
     6  C    0.000000   0.000000   0.000000   0.000000   0.000000
     7  Cl   0.007631   0.000000   0.000000   0.000000   0.000000
     8  Cl   0.000000   0.010120   0.000000   0.000000   0.000000
     9  H    0.000000   0.000000  -0.260671   0.000000   0.000000
    10  H    0.000000   0.000000   0.000000   0.434266   0.000000
    11  H    0.000000   0.000000   0.000000   0.000000  -0.211883
 Mulliken charges and spin densities:
               1          2
     1  C   -0.067276   0.066714
     2  C   -0.040672  -0.113328
     3  C   -0.147367   0.385983
     4  C   -0.109237  -0.522333
     5  C   -0.154138   0.303269
     6  C    0.004700   0.900231
     7  Cl  -0.006609   0.007631
     8  Cl  -0.018495   0.010120
     9  H    0.196884  -0.260671
    10  H    0.149670   0.434266
    11  H    0.192541  -0.211883
 Sum of Mulliken charges =  -0.00000   1.00000
 Mulliken charges and spin densities with hydrogens summed into heavy atoms:
               1          2
     1  C   -0.067276   0.066714
     2  C   -0.040672  -0.113328
     3  C    0.049517   0.125313
     4  C    0.040433  -0.088067
     5  C    0.038402   0.091387
     6  C    0.004700   0.900231
     7  Cl  -0.006609   0.007631
     8  Cl  -0.018495   0.010120
 Charge=              0.0000 electrons
 Dipole moment (field-independent basis, Debye):
    X=              0.2480    Y=              3.8462    Z=              0.0000  Tot=              3.8542
 N-N= 1.929559164129D+02 E-N=-2.663806113099D+02  KE=-8.998178217154D+01
 Symmetry A'   KE=-6.954612422301D+01
 Symmetry A"   KE=-2.043565794852D+01
 Symmetry A'   SP= 1.000000000000D+00
 Symmetry A"   SP= 0.000000000000D+00
 Calling FoFJK, ICntrl=      2127 FMM=F ISym2X=1 I1Cent= 0 IOpClX= 1 NMat=1 NMatS=1 NMatT=0.
 ***** Axes restored to original set *****
 -------------------------------------------------------------------
 Center     Atomic                   Forces (Hartrees/Bohr)
 Number     Number              X              Y              Z
 -------------------------------------------------------------------
      1        6          -0.040909990   -0.010390809    0.000000000
      2        6           0.021091771    0.020317008    0.000000000
      3        6           0.065415798    0.018275237    0.000000000
      4        6           0.039376190   -0.020844723    0.000000000
      5        6          -0.005303350   -0.075521579    0.000000000
      6        6           0.071493537    0.022803525   -0.000000000
      7       17           0.032208146   -0.020217606    0.000000000
      8       17           0.003399696   -0.037604361    0.000000000
      9        1          -0.095318578   -0.057489391   -0.000000000
     10        1          -0.087675561    0.047401817   -0.000000000
     11        1          -0.003777658    0.113270883   -0.000000000
 -------------------------------------------------------------------
 Cartesian Forces:  Max     0.113270883 RMS     0.042154594

 GradGradGradGradGradGradGradGradGradGradGradGradGradGradGradGradGradGrad
 Berny optimization.
 FormGI is forming the generalized inverse of G from B-inverse, IUseBI=4.
 Internal  Forces:  Max     0.113331907 RMS     0.032645310
 Search for a local minimum.
 Step number   1 out of a maximum of   57
 All quantities printed in internal units (Hartrees-Bohrs-Radians)
 Mixed Optimization -- RFO/linear search
 Second derivative matrix not updated -- first step.
 ITU=  0
     Eigenvalues ---    0.02011   0.02011   0.02011   0.02011   0.02011
     Eigenvalues ---    0.02011   0.02011   0.02011   0.06524   0.06524
     Eigenvalues ---    0.06524   0.16000   0.16000   0.16000   0.22076
     Eigenvalues ---    0.23330   0.24905   0.25000   0.25000   0.29033
     Eigenvalues ---    0.29033   0.40955   0.41390   0.44656   0.44657
     Eigenvalues ---    0.44657   0.44657
 RFO step:  Lambda=-1.73727399D-01 EMin= 2.01065650D-02
 Linear search not attempted -- first point.
 Maximum step size (   0.300) exceeded in Quadratic search.
    -- Step size scaled by   0.368
 Iteration  1 RMS(Cart)=  0.04886602 RMS(Int)=  0.00007009
 Iteration  2 RMS(Cart)=  0.00010893 RMS(Int)=  0.00001102
 Iteration  3 RMS(Cart)=  0.00000001 RMS(Int)=  0.00001102
 ClnCor:  largest displacement from symmetrization is 7.47D-12 for atom     9.
 Variable       Old X    -DE/DX   Delta X   Delta X   Delta X     New X
                                 (Linear)    (Quad)   (Total)
    R1        2.65676  -0.01056   0.00000  -0.00563  -0.00564   2.65112
    R2        2.65677  -0.03951   0.00000  -0.02320  -0.02319   2.63357
    R3        3.33635  -0.03795   0.00000  -0.03010  -0.03010   3.30625
    R4        2.65677  -0.03118   0.00000  -0.01811  -0.01813   2.63864
    R5        3.33634  -0.03768   0.00000  -0.02989  -0.02989   3.30645
    R6        2.65677  -0.04718   0.00000  -0.02824  -0.02825   2.62852
    R7        3.33633  -0.11131   0.00000  -0.17146  -0.17146   3.16487
    R8        2.65678  -0.05088   0.00000  -0.03083  -0.03082   2.62596
    R9        3.33633  -0.09967   0.00000  -0.15353  -0.15353   3.18280
   R10        2.65675  -0.05753   0.00000  -0.03453  -0.03451   2.62224
   R11        3.33632  -0.11333   0.00000  -0.17457  -0.17457   3.16175
    A1        2.09439  -0.01718   0.00000  -0.01361  -0.01360   2.08079
    A2        2.09439   0.01267   0.00000   0.01035   0.01035   2.10474
    A3        2.09440   0.00451   0.00000   0.00326   0.00325   2.09765
    A4        2.09439  -0.00935   0.00000  -0.00659  -0.00661   2.08778
    A5        2.09440   0.00862   0.00000   0.00672   0.00673   2.10113
    A6        2.09439   0.00073   0.00000  -0.00014  -0.00012   2.09427
    A7        2.09440   0.00613   0.00000   0.00597   0.00594   2.10034
    A8        2.09440  -0.00462   0.00000  -0.00469  -0.00468   2.08972
    A9        2.09439  -0.00152   0.00000  -0.00128  -0.00126   2.09313
   A10        2.09439   0.00507   0.00000   0.00332   0.00331   2.09771
   A11        2.09440  -0.00245   0.00000  -0.00157  -0.00157   2.09283
   A12        2.09440  -0.00262   0.00000  -0.00175  -0.00175   2.09265
   A13        2.09439  -0.00668   0.00000  -0.00790  -0.00788   2.08652
   A14        2.09439   0.00445   0.00000   0.00517   0.00516   2.09955
   A15        2.09440   0.00223   0.00000   0.00273   0.00271   2.09712
   A16        2.09440   0.02202   0.00000   0.01880   0.01884   2.11324
    D1        0.00000   0.00000   0.00000   0.00000   0.00000   0.00000
    D2        3.14159  -0.00000   0.00000  -0.00000   0.00000   3.14159
    D3        3.14159   0.00000   0.00000   0.00000   0.00000   3.14159
    D4        0.00000   0.00000   0.00000   0.00000   0.00000   0.00000
    D5        0.00000   0.00000   0.00000   0.00000   0.00000   0.00000
    D6        3.14159  -0.00000   0.00000  -0.00000   0.00000   3.14159
    D7        0.00000  -0.00000   0.00000  -0.00000   0.00000   0.00000
    D8        3.14159  -0.00000   0.00000  -0.00000   0.00000   3.14159
    D9        3.14159  -0.00000   0.00000   0.00000   0.00000   3.14159
   D10        0.00000  -0.00000   0.00000  -0.00000   0.00000   0.00000
   D11        0.00000   0.00000   0.00000   0.00000   0.00000   0.00000
   D12        3.14159  -0.00000   0.00000  -0.00000   0.00000   3.14159
   D13        3.14159   0.00000   0.00000   0.00000   0.00000   3.14159
   D14        0.00000   0.00000   0.00000   0.00000   0.00000   0.00000
   D15        0.00000  -0.00000   0.00000   0.00000   0.00000   0.00000
   D16        3.14159  -0.00000   0.00000  -0.00000   0.00000   3.14159
   D17        3.14159   0.00000   0.00000   0.00000   0.00000   3.14159
   D18        0.00000  -0.00000   0.00000  -0.00000   0.00000   0.00000
   D19        0.00000  -0.00000   0.00000  -0.00000   0.00000   0.00000
   D20        3.14159   0.00000   0.00000   0.00000   0.00000   3.14159
         Item               Value     Threshold  Converged?
 Maximum Force            0.113332     0.000450     NO 
 RMS     Force            0.032645     0.000300     NO 
 Maximum Displacement     0.187075     0.001800     NO 
 RMS     Displacement     0.048887     0.001200     NO 
 Predicted change in Energy=-5.999685D-02
 GradGradGradGradGradGradGradGradGradGradGradGradGradGradGradGradGradGrad

                          Input orientation:                          
 ---------------------------------------------------------------------
 Center     Atomic      Atomic             Coordinates (Angstroms)
 Number     Number       Type             X           Y           Z
 ---------------------------------------------------------------------
      1          6           0       -3.192375    0.190474    0.000000
      2          6           0       -1.997408    0.925472    0.000000
      3          6           0       -0.773628    0.253135    0.000000
      4          6           0       -0.735851   -1.137303    0.000000
      5          6           0       -1.917550   -1.868445    0.000000
      6          6           0       -3.134640   -1.201957    0.000000
      7         17           0       -4.739855    1.006792    0.000000
      8         17           0       -2.034319    2.674781    0.000000
      9          1           0        0.654601    1.127805    0.000000
     10          1           0        0.746352   -1.937198    0.000000
     11          1           0       -1.875196   -3.541034    0.000000
 ---------------------------------------------------------------------
                    Distance matrix (angstroms):
                    1          2          3          4          5
     1  C    0.000000
     2  C    1.402914   0.000000
     3  C    2.419558   1.396308   0.000000
     4  C    2.792400   2.417967   1.390950   0.000000
     5  C    2.421637   2.795058   2.410323   1.389597   0.000000
     6  C    1.393627   2.412312   2.773386   2.399660   1.387629
     7  Cl   1.749591   2.743652   4.037196   4.541936   4.028944
     8  Cl   2.740962   1.749698   2.730148   4.027157   4.544726
     9  H    3.959522   2.659717   1.674780   2.657832   3.948857
    10  H    4.476668   3.965236   2.666064   1.684268   2.664789
    11  H    3.957160   4.468178   3.950844   2.660081   1.673126
                    6          7          8          9         10
     6  C    0.000000
     7  Cl   2.730437   0.000000
     8  Cl   4.029864   3.178382   0.000000
     9  H    4.448161   5.395813   3.102165   0.000000
    10  H    3.950022   6.226198   5.385395   3.066376   0.000000
    11  H    2.656592   5.374848   6.217851   5.310173   3.073240
                   11
    11  H    0.000000
 Stoichiometry    C6H3Cl2(2)
 Framework group  CS[SG(C6H3Cl2)]
 Deg. of freedom    19
 Full point group                 CS      NOp   2
 Largest Abelian subgroup         CS      NOp   2
 Largest concise Abelian subgroup C1      NOp   1
                         Standard orientation:                         
 ---------------------------------------------------------------------
 Center     Atomic      Atomic             Coordinates (Angstroms)
 Number     Number       Type             X           Y           Z
 ---------------------------------------------------------------------
      1          6           0       -0.038366   -0.742385    0.000000
      2          6           0        0.000000    0.660004    0.000000
      3          6           0        1.232248    1.316693    0.000000
      4          6           0        2.416887    0.587740    0.000000
      5          6           0        2.382551   -0.801433    0.000000
      6          6           0        1.158860   -1.455722    0.000000
      7         17           0       -1.568209   -1.591294    0.000000
      8         17           0       -1.484587    1.585987    0.000000
      9          1           0        1.281286    2.990754    0.000000
     10          1           0        3.897277    1.390987    0.000000
     11          1           0        3.805892   -1.680894    0.000000
 ---------------------------------------------------------------------
 Rotational constants (GHZ):           1.9424062           1.3799037           0.8067680
 Standard basis: VSTO-6G (5D, 7F)
 There are    27 symmetry adapted cartesian basis functions of A'  symmetry.
 There are     8 symmetry adapted cartesian basis functions of A"  symmetry.
 There are    27 symmetry adapted basis functions of A'  symmetry.
 There are     8 symmetry adapted basis functions of A"  symmetry.
    35 basis functions,   210 primitive gaussians,    35 cartesian basis functions
    21 alpha electrons       20 beta electrons
       nuclear repulsion energy       194.1485179049 Hartrees.
 Integral buffers will be    131072 words long.
 Regular integral format.
 Two-electron integral symmetry is turned off.
 Do NDO integrals.
 One-electron integrals computed using PRISM.
 NBasis=    35 RedAO= T EigKep=  1.00D+00  NBF=    27     8
 NBsUse=    35 1.00D-06 EigRej= -1.00D+00 NBFU=    27     8
 Initial guess from the checkpoint file:  "geometry_chks/_23ClBzNeutralRadical.chk"
 B after Tr=    -0.000000   -0.000000    0.000000
         Rot=    0.859296    0.000000    0.000000    0.511479 Ang=  61.52 deg.
 Initial guess orbital symmetries:
 Alpha Orbitals:
       Occupied  (A') (A') (A') (A') (A') (A') (A') (A') (A') (A')
                 (A") (A') (A") (A') (A") (A') (A') (A') (A') (A")
                 (A")
       Virtual   (A") (A') (A") (A') (A') (A') (A') (A") (A') (A')
                 (A') (A') (A') (A')
 Beta  Orbitals:
       Occupied  (A') (A') (A') (A') (A') (A') (A') (A') (A') (A')
                 (A") (A') (A") (A") (A') (A') (A') (A') (A") (A")
       Virtual   (A') (A') (A") (A') (A") (A') (A') (A') (A") (A')
                 (A') (A') (A') (A') (A')
 Initial guess <Sx>= 0.0000 <Sy>= 0.0000 <Sz>= 0.5000 <S**2>= 1.0956 S= 0.6600
 Keep J ints in memory in canonical form, NReq=862793.
 Overlap will be assumed to be unity.
 Requested convergence on RMS density matrix=1.00D-08 within  32 cycles.
 Requested convergence on MAX density matrix=1.00D-06.
 Requested convergence on             energy=1.00D-06.
 No special actions if energy rises.
 Fock symm off for IB=2 I1=    1 I=   28 J=   12 Cut=1.00D-07 Err=2.15D-03
 Fock matrix is not symmetric: symmetry in diagonalization turned off.
 Rare condition: small coef for last iteration:  0.000D+00
 Rare condition: small coef for last iteration:  0.000D+00
 Rare condition: small coef for last iteration:  0.000D+00
 Rare condition: small coef for last iteration:  0.000D+00
 Rare condition: small coef for last iteration:  0.000D+00
 Rare condition: small coef for last iteration:  0.000D+00
 Rare condition: small coef for last iteration:  0.000D+00
 Rare condition: small coef for last iteration:  0.000D+00
 Rare condition: small coef for last iteration:  0.000D+00
 Rare condition: small coef for last iteration:  0.000D+00
 >>>>>>>>>> Convergence criterion not met.
 SCF Done:  E(UAM1) =  0.416398609707     A.U. after   33 cycles
            NFock= 32  Conv=0.13D-01     -V/T= 1.0046
 <Sx>= 0.0000 <Sy>= 0.0000 <Sz>= 0.5000 <S**2>= 0.8108 S= 0.5299
 <L.S>=  0.00000000000    
 Annihilation of the first spin contaminant:
 S**2 before annihilation     0.8108,   after     0.7526
 Keep J ints in memory in canonical form, NReq=863193.
 LinEq1:  Iter=  0 NonCon=     1 RMS=6.64D-04 Max=6.88D-03 NDo=     1
 AX will form     1 AO Fock derivatives at one time.
 LinEq1:  Iter=  1 NonCon=     1 RMS=1.30D-04 Max=7.31D-04 NDo=     1
 LinEq1:  Iter=  2 NonCon=     1 RMS=2.21D-05 Max=1.24D-04 NDo=     1
 LinEq1:  Iter=  3 NonCon=     1 RMS=6.40D-06 Max=4.38D-05 NDo=     1
 LinEq1:  Iter=  4 NonCon=     1 RMS=2.16D-06 Max=1.40D-05 NDo=     1
 LinEq1:  Iter=  5 NonCon=     1 RMS=5.75D-07 Max=4.15D-06 NDo=     1
 LinEq1:  Iter=  6 NonCon=     1 RMS=1.26D-07 Max=7.03D-07 NDo=     1
 LinEq1:  Iter=  7 NonCon=     1 RMS=2.19D-08 Max=1.09D-07 NDo=     1
 LinEq1:  Iter=  8 NonCon=     1 RMS=4.99D-09 Max=3.69D-08 NDo=     1
 LinEq1:  Iter=  9 NonCon=     0 RMS=1.26D-09 Max=1.04D-08 NDo=     1
 Linear equations converged to 2.437D-09 2.437D-08 after     9 iterations.
 Incorrect curvature in search direction -- initial direction reversed.
 LinEq1:  Iter=  0 NonCon=     1 RMS=5.39D-04 Max=4.17D-03 NDo=     1
 LinEq1:  Iter=  1 NonCon=     1 RMS=1.68D-04 Max=1.32D-03 NDo=     1
 LinEq1:  Iter=  2 NonCon=     1 RMS=2.98D-05 Max=1.77D-04 NDo=     1
 LinEq1:  Iter=  3 NonCon=     1 RMS=7.68D-06 Max=6.24D-05 NDo=     1
 LinEq1:  Iter=  4 NonCon=     1 RMS=2.16D-06 Max=1.93D-05 NDo=     1
 LinEq1:  Iter=  5 NonCon=     1 RMS=5.90D-07 Max=3.83D-06 NDo=     1
 LinEq1:  Iter=  6 NonCon=     1 RMS=1.23D-07 Max=7.49D-07 NDo=     1
 LinEq1:  Iter=  7 NonCon=     1 RMS=2.33D-08 Max=1.31D-07 NDo=     1
 LinEq1:  Iter=  8 NonCon=     1 RMS=6.01D-09 Max=4.91D-08 NDo=     1
 LinEq1:  Iter=  9 NonCon=     0 RMS=1.70D-09 Max=1.02D-08 NDo=     1
 Linear equations converged to 2.437D-09 2.437D-08 after     9 iterations.
     Accept linear search using points  1 and  2.
 LinEq1:  Iter=  0 NonCon=     1 RMS=1.46D-04 Max=1.37D-03 NDo=     1
 LinEq1:  Iter=  1 NonCon=     1 RMS=2.44D-05 Max=1.76D-04 NDo=     1
 LinEq1:  Iter=  2 NonCon=     1 RMS=6.14D-06 Max=3.46D-05 NDo=     1
 LinEq1:  Iter=  3 NonCon=     1 RMS=1.59D-06 Max=1.27D-05 NDo=     1
 LinEq1:  Iter=  4 NonCon=     1 RMS=3.96D-07 Max=2.53D-06 NDo=     1
 LinEq1:  Iter=  5 NonCon=     1 RMS=9.73D-08 Max=6.72D-07 NDo=     1
 LinEq1:  Iter=  6 NonCon=     1 RMS=2.46D-08 Max=2.28D-07 NDo=     1
 LinEq1:  Iter=  7 NonCon=     1 RMS=5.30D-09 Max=3.66D-08 NDo=     1
 LinEq1:  Iter=  8 NonCon=     0 RMS=9.81D-10 Max=5.61D-09 NDo=     1
 Linear equations converged to 2.437D-09 2.437D-08 after     8 iterations.
     Minimum is close to point  2 DX=  1.30D-03 DF= -2.18D-11 DXR=  1.30D-03 DFR=  1.70D-06 which will be used.
 LinEq1:  Iter=  0 NonCon=     1 RMS=1.15D-06 Max=5.97D-06 NDo=     1
 LinEq1:  Iter=  1 NonCon=     1 RMS=3.84D-07 Max=2.25D-06 NDo=     1
 LinEq1:  Iter=  2 NonCon=     1 RMS=9.64D-08 Max=6.86D-07 NDo=     1
 LinEq1:  Iter=  3 NonCon=     1 RMS=2.18D-08 Max=2.13D-07 NDo=     1
 LinEq1:  Iter=  4 NonCon=     1 RMS=5.25D-09 Max=3.29D-08 NDo=     1
 LinEq1:  Iter=  5 NonCon=     1 RMS=1.37D-09 Max=1.08D-08 NDo=     1
 LinEq1:  Iter=  6 NonCon=     1 RMS=3.61D-10 Max=2.40D-09 NDo=     1
 LinEq1:  Iter=  7 NonCon=     0 RMS=7.69D-11 Max=4.84D-10 NDo=     1
 Linear equations converged to 1.967D-10 1.967D-09 after     7 iterations.
 LinEq1:  Iter=  0 NonCon=     1 RMS=5.49D-08 Max=3.45D-07 NDo=     1
 LinEq1:  Iter=  1 NonCon=     1 RMS=1.74D-08 Max=1.18D-07 NDo=     1
 LinEq1:  Iter=  2 NonCon=     1 RMS=4.52D-09 Max=3.13D-08 NDo=     1
 LinEq1:  Iter=  3 NonCon=     1 RMS=1.12D-09 Max=7.90D-09 NDo=     1
 LinEq1:  Iter=  4 NonCon=     1 RMS=2.22D-10 Max=2.57D-09 NDo=     1
 LinEq1:  Iter=  5 NonCon=     1 RMS=5.03D-11 Max=3.25D-10 NDo=     1
 LinEq1:  Iter=  6 NonCon=     1 RMS=1.43D-11 Max=1.38D-10 NDo=     1
 LinEq1:  Iter=  7 NonCon=     0 RMS=4.22D-12 Max=3.11D-11 NDo=     1
 Linear equations converged to 8.547D-12 8.547D-11 after     7 iterations.
 SCF Done:  E(UAM1) =  0.406569337864     a.u. after    6 cycles
            Convg  =    0.4803D-07                    50 Fock formations.
              S**2 =  1.5078                  -V/T =  1.0045
 <Sx>= 0.0000 <Sy>= 0.0000 <Sz>= 0.5000 <S**2>= 1.5078 S= 0.8258
 <L.S>=  0.00000000000    
 Annihilation of the first spin contaminant:
 S**2 before annihilation     1.5078,   after     1.4600
 Calling FoFJK, ICntrl=      2127 FMM=F ISym2X=1 I1Cent= 0 IOpClX= 1 NMat=1 NMatS=1 NMatT=0.
 ***** Axes restored to original set *****
 -------------------------------------------------------------------
 Center     Atomic                   Forces (Hartrees/Bohr)
 Number     Number              X              Y              Z
 -------------------------------------------------------------------
      1        6          -0.049473978    0.002010087    0.000000000
      2        6           0.014317453    0.032778092    0.000000000
      3        6           0.089635420    0.038698023    0.000000000
      4        6           0.086036845   -0.044020929    0.000000000
      5        6          -0.008704239   -0.101633982    0.000000000
      6        6           0.045194773    0.008591344   -0.000000000
      7       17           0.027052257   -0.016191271    0.000000000
      8       17           0.002279456   -0.031047232    0.000000000
      9        1          -0.099500387   -0.059858223   -0.000000000
     10        1          -0.103083984    0.055506131   -0.000000000
     11        1          -0.003753615    0.115167961   -0.000000000
 -------------------------------------------------------------------
 Cartesian Forces:  Max     0.115167961 RMS     0.048478790

 GradGradGradGradGradGradGradGradGradGradGradGradGradGradGradGradGradGrad
 Berny optimization.
 Using GEDIIS/GDIIS optimizer.
 FormGI is forming the generalized inverse of G from B-inverse, IUseBI=4.
 Internal  Forces:  Max     0.117077864 RMS     0.031023660
 Search for a local minimum.
 Step number   2 out of a maximum of   57
 All quantities printed in internal units (Hartrees-Bohrs-Radians)
 Mixed Optimization -- RFO/linear search
 Update second derivatives using D2CorX and points    1    2
 DE= -7.42D-02 DEPred=-6.00D-02 R= 1.24D+00
 TightC=F SS=  1.41D+00  RLast= 3.00D-01 DXNew= 5.0454D-01 9.0000D-01
 Trust test= 1.24D+00 RLast= 3.00D-01 DXMaxT set to 5.05D-01
 ITU=  1  0
 Use linear search instead of GDIIS.
     Eigenvalues ---    0.00026   0.02011   0.02011   0.02011   0.02011
     Eigenvalues ---    0.02011   0.02011   0.02011   0.02011   0.06524
     Eigenvalues ---    0.07394   0.15998   0.16000   0.16001   0.22127
     Eigenvalues ---    0.23415   0.24789   0.25000   0.25031   0.28798
     Eigenvalues ---    0.29033   0.40757   0.41245   0.44570   0.44657
     Eigenvalues ---    0.44657   7.83971
 RFO step:  Lambda=-4.34938471D-03 EMin= 2.56747351D-04
 Quartic linear search produced a step of  0.61333.
 Iteration  1 RMS(Cart)=  0.06765500 RMS(Int)=  0.02777547
 Iteration  2 RMS(Cart)=  0.02628876 RMS(Int)=  0.00011005
 Iteration  3 RMS(Cart)=  0.00000397 RMS(Int)=  0.00011001
 Iteration  4 RMS(Cart)=  0.00000000 RMS(Int)=  0.00011001
 ClnCor:  largest displacement from symmetrization is 3.97D-11 for atom    10.
 Variable       Old X    -DE/DX   Delta X   Delta X   Delta X     New X
                                 (Linear)    (Quad)   (Total)
    R1        2.65112   0.00668  -0.00346   0.01596   0.01252   2.66364
    R2        2.63357  -0.01432  -0.01422  -0.02549  -0.03955   2.59402
    R3        3.30625  -0.03148  -0.01846  -0.07107  -0.08953   3.21672
    R4        2.63864  -0.00609  -0.01112  -0.00832  -0.01959   2.61905
    R5        3.30645  -0.03109  -0.01833  -0.07001  -0.08835   3.21810
    R6        2.62852  -0.01865  -0.01733  -0.03347  -0.05096   2.57756
    R7        3.16487  -0.11611  -0.10516  -0.12834  -0.23350   2.93137
    R8        2.62596  -0.01962  -0.01890  -0.03585  -0.05477   2.57119
    R9        3.18280  -0.11708  -0.09416  -0.29325  -0.38742   2.79539
   R10        2.62224  -0.03028  -0.02117  -0.05755  -0.07857   2.54367
   R11        3.16175  -0.11523  -0.10707  -0.08989  -0.19696   2.96479
    A1        2.08079  -0.01493  -0.00834  -0.03551  -0.04369   2.03710
    A2        2.10474   0.01027   0.00635   0.02337   0.02963   2.13438
    A3        2.09765   0.00466   0.00200   0.01215   0.01406   2.11171
    A4        2.08778  -0.00623  -0.00406  -0.01105  -0.01526   2.07253
    A5        2.10113   0.00580   0.00413   0.01084   0.01504   2.11618
    A6        2.09427   0.00043  -0.00008   0.00021   0.00021   2.09448
    A7        2.10034   0.00543   0.00364   0.01461   0.01793   2.11826
    A8        2.08972  -0.00417  -0.00287  -0.01084  -0.01355   2.07617
    A9        2.09313  -0.00126  -0.00077  -0.00376  -0.00438   2.08876
   A10        2.09771   0.00095   0.00203  -0.00313  -0.00130   2.09641
   A11        2.09283  -0.00030  -0.00096   0.00231   0.00145   2.09429
   A12        2.09265  -0.00065  -0.00107   0.00082  -0.00015   2.09249
   A13        2.08652  -0.00445  -0.00483  -0.00849  -0.01322   2.07329
   A14        2.09955   0.00355   0.00317   0.00840   0.01152   2.11107
   A15        2.09712   0.00090   0.00167   0.00009   0.00170   2.09882
   A16        2.11324   0.01923   0.01156   0.04358   0.05554   2.16879
    D1        0.00000   0.00000   0.00000   0.00000   0.00000   0.00000
    D2        3.14159  -0.00000   0.00000  -0.00000   0.00000   3.14159
    D3        3.14159   0.00000   0.00000   0.00000   0.00000   3.14159
    D4        0.00000   0.00000   0.00000   0.00000   0.00000   0.00000
    D5        0.00000   0.00000   0.00000   0.00000   0.00000   0.00000
    D6        3.14159  -0.00000   0.00000  -0.00000   0.00000   3.14159
    D7        0.00000  -0.00000   0.00000  -0.00000   0.00000   0.00000
    D8        3.14159  -0.00000   0.00000  -0.00000   0.00000   3.14159
    D9        3.14159   0.00000   0.00000   0.00000   0.00000   3.14159
   D10        0.00000  -0.00000   0.00000  -0.00000   0.00000   0.00000
   D11        0.00000   0.00000   0.00000   0.00000   0.00000   0.00000
   D12        3.14159  -0.00000   0.00000  -0.00000   0.00000   3.14159
   D13        3.14159   0.00000   0.00000   0.00000   0.00000   3.14159
   D14        0.00000   0.00000   0.00000   0.00000   0.00000   0.00000
   D15        0.00000   0.00000   0.00000   0.00000   0.00000   0.00000
   D16        3.14159  -0.00000   0.00000  -0.00000   0.00000   3.14159
   D17        3.14159   0.00000   0.00000   0.00000   0.00000   3.14159
   D18        0.00000  -0.00000   0.00000  -0.00000   0.00000   0.00000
   D19        0.00000  -0.00000   0.00000  -0.00000   0.00000   0.00000
   D20        3.14159   0.00000   0.00000   0.00000   0.00000   3.14159
         Item               Value     Threshold  Converged?
 Maximum Force            0.117078     0.000450     NO 
 RMS     Force            0.031024     0.000300     NO 
 Maximum Displacement     0.327479     0.001800     NO 
 RMS     Displacement     0.085361     0.001200     NO 
 Predicted change in Energy=-1.066834D-01
 GradGradGradGradGradGradGradGradGradGradGradGradGradGradGradGradGradGrad

                          Input orientation:                          
 ---------------------------------------------------------------------
 Center     Atomic      Atomic             Coordinates (Angstroms)
 Number     Number       Type             X           Y           Z
 ---------------------------------------------------------------------
      1          6           0       -3.173133    0.180194    0.000000
      2          6           0       -1.971747    0.917398    0.000000
      3          6           0       -0.768095    0.230330    0.000000
      4          6           0       -0.728845   -1.133090    0.000000
      5          6           0       -1.885670   -1.849352    0.000000
      6          6           0       -3.057850   -1.187655    0.000000
      7         17           0       -4.700789    0.931057    0.000000
      8         17           0       -1.980262    2.620323    0.000000
      9          1           0        0.556989    1.036815    0.000000
     10          1           0        0.573057   -1.835408    0.000000
     11          1           0       -1.863526   -3.418092    0.000000
 ---------------------------------------------------------------------
                    Distance matrix (angstroms):
                    1          2          3          4          5
     1  C    0.000000
     2  C    1.409538   0.000000
     3  C    2.405560   1.385944   0.000000
     4  C    2.774753   2.397771   1.363985   0.000000
     5  C    2.403459   2.768088   2.360943   1.360616   0.000000
     6  C    1.372698   2.368727   2.693263   2.329645   1.346050
     7  Cl   1.702213   2.729077   3.994634   4.476275   3.956712
     8  Cl   2.716094   1.702946   2.679816   3.956533   4.470675
     9  H    3.827220   2.531554   1.551214   2.522272   3.781077
    10  H    4.254008   3.748862   2.462917   1.479256   2.458766
    11  H    3.829194   4.336841   3.809325   2.551223   1.568897
                    6          7          8          9         10
     6  C    0.000000
     7  Cl   2.681080   0.000000
     8  Cl   3.957511   3.202325   0.000000
     9  H    4.244448   5.258842   2.990843   0.000000
    10  H    3.688235   5.955399   5.135462   2.872268   0.000000
    11  H    2.530071   5.192799   6.039543   5.070020   2.905483
                   11
    11  H    0.000000
 Stoichiometry    C6H3Cl2(2)
 Framework group  CS[SG(C6H3Cl2)]
 Deg. of freedom    19
 Full point group                 CS      NOp   2
 Largest Abelian subgroup         CS      NOp   2
 Largest concise Abelian subgroup C1      NOp   1
                         Standard orientation:                         
 ---------------------------------------------------------------------
 Center     Atomic      Atomic             Coordinates (Angstroms)
 Number     Number       Type             X           Y           Z
 ---------------------------------------------------------------------
      1          6           0       -0.083734   -0.740527    0.000000
      2          6           0       -0.000000    0.666522    0.000000
      3          6           0        1.252580    1.259719    0.000000
      4          6           0        2.392724    0.511036    0.000000
      5          6           0        2.317344   -0.847490    0.000000
      6          6           0        1.103586   -1.429419    0.000000
      7         17           0       -1.574175   -1.562791    0.000000
      8         17           0       -1.400851    1.634841    0.000000
      9          1           0        1.350365    2.807848    0.000000
     10          1           0        3.714076    1.176040    0.000000
     11          1           0        3.616002   -1.727787    0.000000
 ---------------------------------------------------------------------
 Rotational constants (GHZ):           1.9557571           1.4441318           0.8307245
 Standard basis: VSTO-6G (5D, 7F)
 There are    27 symmetry adapted cartesian basis functions of A'  symmetry.
 There are     8 symmetry adapted cartesian basis functions of A"  symmetry.
 There are    27 symmetry adapted basis functions of A'  symmetry.
 There are     8 symmetry adapted basis functions of A"  symmetry.
    35 basis functions,   210 primitive gaussians,    35 cartesian basis functions
    21 alpha electrons       20 beta electrons
       nuclear repulsion energy       196.4654420683 Hartrees.
 Integral buffers will be    131072 words long.
 Regular integral format.
 Two-electron integral symmetry is turned off.
 Do NDO integrals.
 One-electron integrals computed using PRISM.
 NBasis=    35 RedAO= T EigKep=  1.00D+00  NBF=    27     8
 NBsUse=    35 1.00D-06 EigRej= -1.00D+00 NBFU=    27     8
 Initial guess from the checkpoint file:  "geometry_chks/_23ClBzNeutralRadical.chk"
 B after Tr=    -0.000000    0.000000    0.000000
         Rot=    0.999904    0.000000    0.000000    0.013842 Ang=   1.59 deg.
 Initial guess orbital symmetries:
 Alpha Orbitals:
       Occupied  (A') (A') (A') (A') (A') (A') (A') (A') (A') (A')
                 (A") (A') (A") (A') (A") (A') (A') (A') (A') (A")
                 (A")
       Virtual   (A') (A") (A") (A') (A') (A') (A') (A") (A') (A')
                 (A') (A') (A') (A')
 Beta  Orbitals:
       Occupied  (A') (A') (A') (A') (A') (A') (A') (A') (A') (A')
                 (A") (A') (A") (A") (A') (A') (A') (A') (A") (A")
       Virtual   (A') (A") (A') (A') (A") (A') (A') (A') (A") (A')
                 (A') (A') (A') (A') (A')
 Initial guess <Sx>= 0.0000 <Sy>= 0.0000 <Sz>= 0.5000 <S**2>= 1.5078 S= 0.8258
 Keep J ints in memory in canonical form, NReq=862793.
 Overlap will be assumed to be unity.
 Requested convergence on RMS density matrix=1.00D-08 within  32 cycles.
 Requested convergence on MAX density matrix=1.00D-06.
 Requested convergence on             energy=1.00D-06.
 No special actions if energy rises.
 Fock symm off for IB=2 I1=    1 I=   28 J=    6 Cut=1.00D-07 Err=5.07D-03
 Fock matrix is not symmetric: symmetry in diagonalization turned off.
 SCF Done:  E(UAM1) =  0.303107380969     A.U. after   20 cycles
            NFock= 19  Conv=0.64D-08     -V/T= 1.0034
 <Sx>= 0.0000 <Sy>= 0.0000 <Sz>= 0.5000 <S**2>= 1.1652 S= 0.6896
 <L.S>=  0.00000000000    
 Annihilation of the first spin contaminant:
 S**2 before annihilation     1.1652,   after     0.9043
 QCSCF skips out because SCF is already converged.
 Calling FoFJK, ICntrl=      2127 FMM=F ISym2X=1 I1Cent= 0 IOpClX= 1 NMat=1 NMatS=1 NMatT=0.
 ***** Axes restored to original set *****
 -------------------------------------------------------------------
 Center     Atomic                   Forces (Hartrees/Bohr)
 Number     Number              X              Y              Z
 -------------------------------------------------------------------
      1        6          -0.029745985    0.013125851    0.000000000
      2        6           0.001300748    0.022419779    0.000000000
      3        6           0.109927595    0.073036578   -0.000000000
      4        6           0.131414513   -0.061361415    0.000000000
      5        6          -0.005572059   -0.153605468    0.000000000
      6        6          -0.007155361    0.002848601   -0.000000000
      7       17           0.007794378   -0.003472083   -0.000000000
      8       17          -0.000145532   -0.006653168   -0.000000000
      9        1          -0.102800647   -0.061596319   -0.000000000
     10        1          -0.102681327    0.055607532   -0.000000000
     11        1          -0.002336324    0.119650112   -0.000000000
 -------------------------------------------------------------------
 Cartesian Forces:  Max     0.153605468 RMS     0.056712005

 GradGradGradGradGradGradGradGradGradGradGradGradGradGradGradGradGradGrad
 Berny optimization.
 Using GEDIIS/GDIIS optimizer.
 FormGI is forming the generalized inverse of G from B-inverse, IUseBI=4.
 Internal  Forces:  Max     0.119839022 RMS     0.031014708
 Search for a local minimum.
 Step number   3 out of a maximum of   57
 All quantities printed in internal units (Hartrees-Bohrs-Radians)
 Mixed Optimization -- RFO/linear search
 Update second derivatives using D2CorX and points    2    3
 DE= -1.03D-01 DEPred=-1.07D-01 R= 9.70D-01
 TightC=F SS=  1.41D+00  RLast= 5.30D-01 DXNew= 8.4853D-01 1.5888D+00
 Trust test= 9.70D-01 RLast= 5.30D-01 DXMaxT set to 8.49D-01
 ITU=  1  1  0
 Use linear search instead of GDIIS.
     Eigenvalues ---    0.00134   0.02011   0.02011   0.02011   0.02011
     Eigenvalues ---    0.02011   0.02011   0.02011   0.02011   0.06518
     Eigenvalues ---    0.06588   0.15977   0.16000   0.16006   0.20486
     Eigenvalues ---    0.22593   0.24202   0.25000   0.25053   0.27008
     Eigenvalues ---    0.29049   0.40601   0.41474   0.44232   0.44657
     Eigenvalues ---    0.44884   8.39229
 RFO step:  Lambda=-9.82872849D-02 EMin= 1.33904605D-03
 Quartic linear search produced a step of  1.42547.
 Maximum step size (   0.849) exceeded in Quadratic search.
    -- Step size scaled by   0.942
 Iteration  1 RMS(Cart)=  0.07357864 RMS(Int)=  0.13962695
 Iteration  2 RMS(Cart)=  0.04592842 RMS(Int)=  0.09607392
 Iteration  3 RMS(Cart)=  0.04031152 RMS(Int)=  0.05518564
 Iteration  4 RMS(Cart)=  0.04031154 RMS(Int)=  0.01627769
 Iteration  5 RMS(Cart)=  0.01563037 RMS(Int)=  0.00011147
 Iteration  6 RMS(Cart)=  0.00000191 RMS(Int)=  0.00011146
 Iteration  7 RMS(Cart)=  0.00000000 RMS(Int)=  0.00011146
 ClnCor:  largest displacement from symmetrization is 2.09D-08 for atom    11.
 Variable       Old X    -DE/DX   Delta X   Delta X   Delta X     New X
                                 (Linear)    (Quad)   (Total)
    R1        2.66364   0.01471   0.01784  -0.09496  -0.07713   2.58651
    R2        2.59402   0.01537  -0.05638  -0.02086  -0.07709   2.51694
    R3        3.21672  -0.00853  -0.12762   0.11867  -0.00895   3.20776
    R4        2.61905   0.01654  -0.02792  -0.06446  -0.09255   2.52651
    R5        3.21810  -0.00665  -0.12594   0.12143  -0.00451   3.21359
    R6        2.57756   0.02225  -0.07264   0.00058  -0.07221   2.50535
    R7        2.93137  -0.11984  -0.33285  -0.48346  -0.81631   2.11506
    R8        2.57119   0.02807  -0.07807   0.00774  -0.07032   2.50087
    R9        2.79539  -0.11677  -0.55225   0.17432  -0.37793   2.41746
   R10        2.54367   0.02171  -0.11200   0.07159  -0.04024   2.50342
   R11        2.96479  -0.11967  -0.28077  -0.62962  -0.91038   2.05440
    A1        2.03710  -0.00429  -0.06229   0.06330   0.00112   2.03821
    A2        2.13438   0.00163   0.04224  -0.03905   0.00314   2.13752
    A3        2.11171   0.00266   0.02004  -0.02425  -0.00426   2.10746
    A4        2.07253   0.00124  -0.02175   0.01006  -0.01189   2.06063
    A5        2.11618  -0.00091   0.02144  -0.01082   0.01072   2.12690
    A6        2.09448  -0.00033   0.00030   0.00076   0.00117   2.09565
    A7        2.11826   0.00517   0.02555  -0.01312   0.01211   2.13037
    A8        2.07617  -0.00380  -0.01932   0.00901  -0.01014   2.06602
    A9        2.08876  -0.00137  -0.00624   0.00410  -0.00197   2.08679
   A10        2.09641  -0.00475  -0.00185   0.02289   0.02090   2.11730
   A11        2.09429   0.00211   0.00207  -0.01584  -0.01370   2.08059
   A12        2.09249   0.00264  -0.00022  -0.00705  -0.00720   2.08529
   A13        2.07329  -0.00744  -0.01885  -0.02655  -0.04524   2.02806
   A14        2.11107   0.00468   0.01642   0.00462   0.02096   2.13203
   A15        2.09882   0.00276   0.00242   0.02193   0.02427   2.12309
   A16        2.16879   0.01007   0.07918  -0.05658   0.02300   2.19179
    D1        0.00000  -0.00000   0.00000  -0.00000   0.00000   0.00000
    D2        3.14159  -0.00000   0.00000  -0.00000   0.00000   3.14159
    D3        3.14159   0.00000   0.00000   0.00000   0.00000   3.14159
    D4        0.00000   0.00000   0.00000   0.00000   0.00000   0.00000
    D5        0.00000   0.00000   0.00000   0.00000   0.00000   0.00000
    D6        3.14159  -0.00000   0.00000  -0.00000   0.00000   3.14159
    D7        0.00000  -0.00000   0.00000   0.00000   0.00000   0.00000
    D8        3.14159  -0.00000   0.00000  -0.00000   0.00000   3.14159
    D9        3.14159   0.00000   0.00000   0.00000   0.00000   3.14159
   D10        0.00000   0.00000   0.00000   0.00000   0.00000   0.00000
   D11        0.00000   0.00000   0.00000   0.00000   0.00000   0.00000
   D12        3.14159  -0.00000   0.00000  -0.00000   0.00000   3.14159
   D13        3.14159   0.00000   0.00000   0.00000   0.00000   3.14159
   D14        0.00000   0.00000   0.00000  -0.00000   0.00000   0.00000
   D15        0.00000  -0.00000   0.00000  -0.00000   0.00000   0.00000
   D16        3.14159  -0.00000   0.00000  -0.00000   0.00000   3.14159
   D17        3.14159   0.00000   0.00000   0.00000   0.00000   3.14159
   D18        0.00000  -0.00000   0.00000  -0.00000   0.00000   0.00000
   D19        0.00000  -0.00000   0.00000  -0.00000   0.00000   0.00000
   D20        3.14159   0.00000   0.00000   0.00000   0.00000   3.14159
         Item               Value     Threshold  Converged?
 Maximum Force            0.119839     0.000450     NO 
 RMS     Force            0.031015     0.000300     NO 
 Maximum Displacement     0.879157     0.001800     NO 
 RMS     Displacement     0.197213     0.001200     NO 
 Predicted change in Energy=-2.395493D-01
 GradGradGradGradGradGradGradGradGradGradGradGradGradGradGradGradGradGrad

                          Input orientation:                          
 ---------------------------------------------------------------------
 Center     Atomic      Atomic             Coordinates (Angstroms)
 Number     Number       Type             X           Y           Z
 ---------------------------------------------------------------------
      1          6           0       -3.082388    0.135257    0.000000
      2          6           0       -1.918676    0.855792    0.000000
      3          6           0       -0.762812    0.183878    0.000000
      4          6           0       -0.719049   -1.141174    0.000000
      5          6           0       -1.826375   -1.865902    0.000000
      6          6           0       -2.966686   -1.191613    0.000000
      7         17           0       -4.611111    0.873111    0.000000
      8         17           0       -1.915771    2.556350    0.000000
      9          1           0        0.191948    0.767940    0.000000
     10          1           0        0.417548   -1.728256    0.000000
     11          1           0       -1.806499   -2.952862    0.000000
 ---------------------------------------------------------------------
                    Distance matrix (angstroms):
                    1          2          3          4          5
     1  C    0.000000
     2  C    1.368721   0.000000
     3  C    2.320086   1.336971   0.000000
     4  C    2.686010   2.329588   1.325774   0.000000
     5  C    2.362669   2.723259   2.309278   1.323405   0.000000
     6  C    1.331905   2.300042   2.597890   2.248202   1.324754
     7  Cl   1.697475   2.692491   3.909533   4.382407   3.906013
     8  Cl   2.687506   1.700560   2.637791   3.886364   4.423155
     9  H    3.334901   2.112452   1.119239   2.115333   3.318246
    10  H    3.965127   3.483568   2.247111   1.279265   2.248141
    11  H    3.341313   3.810306   3.305816   2.112998   1.087142
                    6          7          8          9         10
     6  C    0.000000
     7  Cl   2.639549   0.000000
     8  Cl   3.892512   3.177759   0.000000
     9  H    3.717098   4.804211   2.764216   0.000000
    10  H    3.426518   5.661671   4.878753   2.506370   0.000000
    11  H    2.109036   4.743829   5.510296   4.223525   2.538907
                   11
    11  H    0.000000
 Stoichiometry    C6H3Cl2(2)
 Framework group  CS[SG(C6H3Cl2)]
 Deg. of freedom    19
 Full point group                 CS      NOp   2
 Largest Abelian subgroup         CS      NOp   2
 Largest concise Abelian subgroup C1      NOp   1
                         Standard orientation:                         
 ---------------------------------------------------------------------
 Center     Atomic      Atomic             Coordinates (Angstroms)
 Number     Number       Type             X           Y           Z
 ---------------------------------------------------------------------
      1          6           0       -0.039537   -0.715818    0.000000
      2          6           0        0.000000    0.652332    0.000000
      3          6           0        1.197433    1.247012    0.000000
      4          6           0        2.327501    0.553741    0.000000
      5          6           0        2.322519   -0.769654    0.000000
      6          6           0        1.131671   -1.350045    0.000000
      7         17           0       -1.497365   -1.585391    0.000000
      8         17           0       -1.417784    1.591371    0.000000
      9          1           0        1.235793    2.365594    0.000000
     10          1           0        3.443516    1.179064    0.000000
     11          1           0        3.240706   -1.351729    0.000000
 ---------------------------------------------------------------------
 Rotational constants (GHZ):           2.0388695           1.5116884           0.8680707
 Standard basis: VSTO-6G (5D, 7F)
 There are    27 symmetry adapted cartesian basis functions of A'  symmetry.
 There are     8 symmetry adapted cartesian basis functions of A"  symmetry.
 There are    27 symmetry adapted basis functions of A'  symmetry.
 There are     8 symmetry adapted basis functions of A"  symmetry.
    35 basis functions,   210 primitive gaussians,    35 cartesian basis functions
    21 alpha electrons       20 beta electrons
       nuclear repulsion energy       200.7609614499 Hartrees.
 Integral buffers will be    131072 words long.
 Regular integral format.
 Two-electron integral symmetry is turned off.
 Do NDO integrals.
 One-electron integrals computed using PRISM.
 NBasis=    35 RedAO= T EigKep=  1.00D+00  NBF=    27     8
 NBsUse=    35 1.00D-06 EigRej= -1.00D+00 NBFU=    27     8
 Initial guess from the checkpoint file:  "geometry_chks/_23ClBzNeutralRadical.chk"
 B after Tr=    -0.000000   -0.000000    0.000000
         Rot=    0.999915   -0.000000   -0.000000   -0.013021 Ang=  -1.49 deg.
 Initial guess orbital symmetries:
 Alpha Orbitals:
       Occupied  (A') (A') (A') (A') (A') (A') (A') (A') (A') (A')
                 (A") (A') (A") (A') (A") (A') (A') (A') (A') (A")
                 (A")
       Virtual   (A") (A") (A') (A') (A') (A') (A') (A") (A') (A')
                 (A') (A') (A') (A')
 Beta  Orbitals:
       Occupied  (A') (A') (A') (A') (A') (A') (A') (A') (A') (A')
                 (A") (A') (A") (A") (A') (A') (A') (A') (A") (A")
       Virtual   (A') (A") (A") (A') (A') (A') (A') (A') (A") (A')
                 (A') (A') (A') (A') (A')
 Initial guess <Sx>= 0.0000 <Sy>= 0.0000 <Sz>= 0.5000 <S**2>= 1.1652 S= 0.6896
 Keep J ints in memory in canonical form, NReq=862793.
 Overlap will be assumed to be unity.
 Requested convergence on RMS density matrix=1.00D-08 within  32 cycles.
 Requested convergence on MAX density matrix=1.00D-06.
 Requested convergence on             energy=1.00D-06.
 No special actions if energy rises.
 Fock symm off for IB=2 I1=    1 I=   28 J=   13 Cut=1.00D-07 Err=2.79D-03
 Fock matrix is not symmetric: symmetry in diagonalization turned off.
 SCF Done:  E(UAM1) =  0.147569642857     A.U. after   18 cycles
            NFock= 17  Conv=0.90D-08     -V/T= 1.0016
 <Sx>= 0.0000 <Sy>= 0.0000 <Sz>= 0.5000 <S**2>= 0.9316 S= 0.5870
 <L.S>=  0.00000000000    
 Annihilation of the first spin contaminant:
 S**2 before annihilation     0.9316,   after     0.7743
 QCSCF skips out because SCF is already converged.
 Calling FoFJK, ICntrl=      2127 FMM=F ISym2X=1 I1Cent= 0 IOpClX= 1 NMat=1 NMatS=1 NMatT=0.
 ***** Axes restored to original set *****
 -------------------------------------------------------------------
 Center     Atomic                   Forces (Hartrees/Bohr)
 Number     Number              X              Y              Z
 -------------------------------------------------------------------
      1        6          -0.084580479    0.039114227    0.000000000
      2        6          -0.027580021    0.084144124    0.000000000
      3        6           0.102547928    0.069093400    0.000000000
      4        6           0.170239159   -0.080886704    0.000000000
      5        6          -0.028892062   -0.108486877    0.000000000
      6        6          -0.056555142   -0.023170052   -0.000000000
      7       17          -0.000948709    0.000558600   -0.000000000
      8       17          -0.001582710    0.001291067   -0.000000000
      9        1          -0.003095232   -0.003442838   -0.000000000
     10        1          -0.068990656    0.035623082   -0.000000000
     11        1          -0.000562075   -0.013838028   -0.000000000
 -------------------------------------------------------------------
 Cartesian Forces:  Max     0.170239159 RMS     0.052201679

 GradGradGradGradGradGradGradGradGradGradGradGradGradGradGradGradGradGrad
 Berny optimization.
 Using GEDIIS/GDIIS optimizer.
 FormGI is forming the generalized inverse of G from B-inverse, IUseBI=4.
 Internal  Forces:  Max     0.120296418 RMS     0.037785426
 Search for a local minimum.
 Step number   4 out of a maximum of   57
 All quantities printed in internal units (Hartrees-Bohrs-Radians)
 Mixed Optimization -- RFO/linear search
 Update second derivatives using D2CorX and points    3    4
 DE= -1.56D-01 DEPred=-2.40D-01 R= 6.49D-01
 TightC=F SS=  1.41D+00  RLast= 1.29D+00 DXNew= 1.4270D+00 3.8828D+00
 Trust test= 6.49D-01 RLast= 1.29D+00 DXMaxT set to 1.43D+00
 ITU=  1  1  1  0
 Use linear search instead of GDIIS.
     Eigenvalues ---    0.02011   0.02011   0.02011   0.02011   0.02011
     Eigenvalues ---    0.02011   0.02011   0.02011   0.02194   0.06524
     Eigenvalues ---    0.14355   0.15969   0.16005   0.16007   0.20087
     Eigenvalues ---    0.23786   0.24201   0.25003   0.25122   0.27068
     Eigenvalues ---    0.29052   0.40873   0.41304   0.44185   0.44675
     Eigenvalues ---    0.44847   7.80979
 RFO step:  Lambda=-4.96295071D-02 EMin= 2.01065632D-02
 Quartic linear search produced a step of -0.03869.
 Iteration  1 RMS(Cart)=  0.07004109 RMS(Int)=  0.04920669
 Iteration  2 RMS(Cart)=  0.02832212 RMS(Int)=  0.01995980
 Iteration  3 RMS(Cart)=  0.01899667 RMS(Int)=  0.00089385
 Iteration  4 RMS(Cart)=  0.00001008 RMS(Int)=  0.00089381
 Iteration  5 RMS(Cart)=  0.00000000 RMS(Int)=  0.00089381
 ClnCor:  largest displacement from symmetrization is 9.73D-09 for atom     8.
 Variable       Old X    -DE/DX   Delta X   Delta X   Delta X     New X
                                 (Linear)    (Quad)   (Total)
    R1        2.58651   0.08135   0.00298   0.07487   0.07800   2.66450
    R2        2.51694   0.07874   0.00298  -0.06049  -0.05606   2.46087
    R3        3.20776   0.00110   0.00035  -0.19630  -0.19595   3.01181
    R4        2.52651   0.11124   0.00358   0.03306   0.03537   2.56187
    R5        3.21359   0.00129   0.00017  -0.18354  -0.18337   3.03022
    R6        2.50535   0.11290   0.00279   0.00176   0.00319   2.50854
    R7        2.11506  -0.00444   0.03158   0.02533   0.05691   2.17197
    R8        2.50087   0.12030   0.00272   0.01729   0.01982   2.52069
    R9        2.41746  -0.07764   0.01462  -0.55123  -0.53661   1.88085
   R10        2.50342   0.08813   0.00156  -0.06927  -0.06639   2.43704
   R11        2.05440   0.01383   0.03522   0.17155   0.20677   2.26118
    A1        2.03821  -0.00009  -0.00004  -0.09975  -0.09839   1.93982
    A2        2.13752  -0.00010  -0.00012   0.06498   0.06415   2.20167
    A3        2.10746   0.00019   0.00016   0.03478   0.03424   2.14169
    A4        2.06063   0.00772   0.00046  -0.02482  -0.02561   2.03502
    A5        2.12690  -0.00641  -0.00041   0.02124   0.02145   2.14835
    A6        2.09565  -0.00131  -0.00005   0.00358   0.00416   2.09981
    A7        2.13037  -0.00991  -0.00047   0.02705   0.02397   2.15434
    A8        2.06602   0.00635   0.00039  -0.01818  -0.01648   2.04955
    A9        2.08679   0.00356   0.00008  -0.00887  -0.00749   2.07930
   A10        2.11730  -0.00566  -0.00081   0.01268   0.01030   2.12760
   A11        2.08059   0.00284   0.00053  -0.00992  -0.00860   2.07199
   A12        2.08529   0.00281   0.00028  -0.00277  -0.00170   2.08359
   A13        2.02806  -0.00860   0.00175  -0.10355  -0.10087   1.92719
   A14        2.13203   0.00514  -0.00081   0.06104   0.05977   2.19180
   A15        2.12309   0.00346  -0.00094   0.04251   0.04111   2.16420
   A16        2.19179   0.01653  -0.00089   0.18839   0.19060   2.38239
    D1        0.00000  -0.00000   0.00000  -0.00000   0.00000   0.00000
    D2        3.14159  -0.00000   0.00000  -0.00000   0.00000   3.14159
    D3        3.14159   0.00000   0.00000   0.00000   0.00000   3.14159
    D4        0.00000   0.00000   0.00000   0.00000   0.00000   0.00000
    D5        0.00000   0.00000   0.00000   0.00000   0.00000   0.00000
    D6        3.14159  -0.00000   0.00000  -0.00000   0.00000   3.14159
    D7        0.00000  -0.00000   0.00000  -0.00000   0.00000   0.00000
    D8        3.14159  -0.00000   0.00000  -0.00000   0.00000   3.14159
    D9        3.14159   0.00000   0.00000   0.00000   0.00000   3.14159
   D10        0.00000   0.00000   0.00000  -0.00000   0.00000   0.00000
   D11        0.00000   0.00000   0.00000   0.00000   0.00000   0.00000
   D12        3.14159  -0.00000   0.00000  -0.00000   0.00000   3.14159
   D13        3.14159   0.00000   0.00000   0.00000   0.00000   3.14159
   D14        0.00000   0.00000   0.00000   0.00000   0.00000   0.00000
   D15        0.00000   0.00000   0.00000  -0.00000   0.00000   0.00000
   D16        3.14159  -0.00000   0.00000  -0.00000   0.00000   3.14159
   D17        3.14159   0.00000   0.00000   0.00000   0.00000   3.14159
   D18        0.00000  -0.00000   0.00000  -0.00000   0.00000   0.00000
   D19        0.00000  -0.00000   0.00000  -0.00000   0.00000   0.00000
   D20        3.14159   0.00000   0.00000   0.00000   0.00000   3.14159
         Item               Value     Threshold  Converged?
 Maximum Force            0.120296     0.000450     NO 
 RMS     Force            0.037785     0.000300     NO 
 Maximum Displacement     0.442662     0.001800     NO 
 RMS     Displacement     0.101050     0.001200     NO 
 Predicted change in Energy=-3.736197D-02
 GradGradGradGradGradGradGradGradGradGradGradGradGradGradGradGradGradGrad

                          Input orientation:                          
 ---------------------------------------------------------------------
 Center     Atomic      Atomic             Coordinates (Angstroms)
 Number     Number       Type             X           Y           Z
 ---------------------------------------------------------------------
      1          6           0       -3.100083    0.157346    0.000000
      2          6           0       -1.901816    0.900476    0.000000
      3          6           0       -0.747089    0.190203    0.000000
      4          6           0       -0.704486   -1.136575    0.000000
      5          6           0       -1.813683   -1.877487    0.000000
      6          6           0       -2.859141   -1.122407    0.000000
      7         17           0       -4.577315    0.755617    0.000000
      8         17           0       -1.865847    2.503598    0.000000
      9          1           0        0.238370    0.781717    0.000000
     10          1           0        0.183302   -1.586534    0.000000
     11          1           0       -1.852082   -3.073434    0.000000
 ---------------------------------------------------------------------
                    Distance matrix (angstroms):
                    1          2          3          4          5
     1  C    0.000000
     2  C    1.409994   0.000000
     3  C    2.353223   1.355685   0.000000
     4  C    2.722704   2.362875   1.327462   0.000000
     5  C    2.407358   2.779361   2.326578   1.333892   0.000000
     6  C    1.302237   2.237974   2.486707   2.154702   1.289624
     7  Cl   1.593783   2.679417   3.871734   4.310360   3.817185
     8  Cl   2.651082   1.603525   2.569711   3.820945   4.381395
     9  H    3.396337   2.143478   1.149356   2.137480   3.358912
    10  H    3.717759   3.245448   2.005597   0.995303   2.018068
    11  H    3.463444   3.974221   3.445625   2.251310   1.196563
                    6          7          8          9         10
     6  C    0.000000
     7  Cl   2.545407   0.000000
     8  Cl   3.759594   3.226065   0.000000
     9  H    3.635968   4.815755   2.718933   0.000000
    10  H    3.077641   5.305576   4.574733   2.368891   0.000000
    11  H    2.195603   4.699843   5.577048   4.385451   2.520647
                   11
    11  H    0.000000
 Stoichiometry    C6H3Cl2(2)
 Framework group  CS[SG(C6H3Cl2)]
 Deg. of freedom    19
 Full point group                 CS      NOp   2
 Largest Abelian subgroup         CS      NOp   2
 Largest concise Abelian subgroup C1      NOp   1
                         Standard orientation:                         
 ---------------------------------------------------------------------
 Center     Atomic      Atomic             Coordinates (Angstroms)
 Number     Number       Type             X           Y           Z
 ---------------------------------------------------------------------
      1          6           0       -0.177551   -0.712886    0.000000
      2          6           0        0.000000    0.685885    0.000000
      3          6           0        1.278994    1.135393    0.000000
      4          6           0        2.336344    0.332795    0.000000
      5          6           0        2.213173   -0.995398    0.000000
      6          6           0        0.968201   -1.331815    0.000000
      7         17           0       -1.572686   -1.483432    0.000000
      8         17           0       -1.222498    1.723570    0.000000
      9          1           0        1.440265    2.273378    0.000000
     10          1           0        3.245014    0.738932    0.000000
     11          1           0        3.117885   -1.778506    0.000000
 ---------------------------------------------------------------------
 Rotational constants (GHZ):           2.0135078           1.5966203           0.8904968
 Standard basis: VSTO-6G (5D, 7F)
 There are    27 symmetry adapted cartesian basis functions of A'  symmetry.
 There are     8 symmetry adapted cartesian basis functions of A"  symmetry.
 There are    27 symmetry adapted basis functions of A'  symmetry.
 There are     8 symmetry adapted basis functions of A"  symmetry.
    35 basis functions,   210 primitive gaussians,    35 cartesian basis functions
    21 alpha electrons       20 beta electrons
       nuclear repulsion energy       202.6158166060 Hartrees.



 Warning!  Cl atom    7 may be hypervalent but has no d functions.
 Warning!  Cl atom    8 may be hypervalent but has no d functions.



 Integral buffers will be    131072 words long.
[...]
 ClnCor:  largest displacement from symmetrization is 9.18D-14 for atom     2.
 Variable       Old X    -DE/DX   Delta X   Delta X   Delta X     New X
                                 (Linear)    (Quad)   (Total)
    R1        2.68232  -0.00020   0.00000  -0.00042  -0.00042   2.68190
    R2        2.60091  -0.00008   0.00000  -0.00010  -0.00010   2.60081
    R3        3.17526  -0.00011  -0.00000  -0.00024  -0.00025   3.17501
    R4        2.66091  -0.00003   0.00000  -0.00004  -0.00004   2.66088
    R5        3.19330  -0.00029  -0.00000  -0.00091  -0.00091   3.19239
    R6        2.64679   0.00002   0.00000  -0.00005  -0.00005   2.64674
    R7        2.08116  -0.00000  -0.00000   0.00004   0.00003   2.08120
    R8        2.66318   0.00003   0.00000   0.00002   0.00002   2.66321
    R9        2.07665   0.00001   0.00000  -0.00003  -0.00002   2.07663
   R10        2.58621   0.00014   0.00000   0.00035   0.00035   2.58656
   R11        2.07283  -0.00023   0.00000  -0.00067  -0.00067   2.07216
    A1        2.00079   0.00001  -0.00000  -0.00004  -0.00004   2.00075
    A2        2.14961   0.00003  -0.00000   0.00022   0.00022   2.14982
    A3        2.13279  -0.00004   0.00000  -0.00018  -0.00017   2.13262
    A4        2.08669   0.00010   0.00000   0.00031   0.00031   2.08700
    A5        2.10838  -0.00006  -0.00000  -0.00013  -0.00014   2.10824
    A6        2.08812  -0.00005  -0.00000  -0.00018  -0.00018   2.08794
    A7        2.12092  -0.00000  -0.00000   0.00007   0.00006   2.12099
    A8        2.07892  -0.00001   0.00000  -0.00010  -0.00010   2.07882
    A9        2.08334   0.00002   0.00000   0.00004   0.00004   2.08338
   A10        2.09657  -0.00011   0.00000  -0.00044  -0.00044   2.09614
   A11        2.09351   0.00005  -0.00000   0.00019   0.00019   2.09370
   A12        2.09310   0.00006   0.00000   0.00024   0.00024   2.09334
   A13        2.00482   0.00007  -0.00000   0.00043   0.00043   2.00525
   A14        2.13622   0.00000  -0.00000   0.00007   0.00007   2.13629
   A15        2.14215  -0.00007   0.00000  -0.00050  -0.00050   2.14165
   A16        2.25658  -0.00008   0.00000  -0.00033  -0.00033   2.25625
    D1        0.00000  -0.00000   0.00000  -0.00000   0.00000   0.00000
    D2        3.14159  -0.00000   0.00000  -0.00000   0.00000   3.14159
    D3        3.14159   0.00000   0.00000   0.00000   0.00000   3.14159
    D4        0.00000   0.00000   0.00000   0.00000   0.00000   0.00000
    D5        0.00000   0.00000   0.00000   0.00000   0.00000   0.00000
    D6        3.14159  -0.00000   0.00000  -0.00000   0.00000   3.14159
    D7        0.00000  -0.00000   0.00000  -0.00000   0.00000   0.00000
    D8        3.14159  -0.00000   0.00000  -0.00000   0.00000   3.14159
    D9        3.14159   0.00000   0.00000   0.00000   0.00000   3.14159
   D10        0.00000   0.00000   0.00000   0.00000   0.00000   0.00000
   D11        0.00000   0.00000   0.00000   0.00000   0.00000   0.00000
   D12        3.14159  -0.00000   0.00000  -0.00000   0.00000   3.14159
   D13        3.14159   0.00000   0.00000   0.00000   0.00000   3.14159
   D14        0.00000   0.00000   0.00000   0.00000   0.00000   0.00000
   D15        0.00000  -0.00000   0.00000  -0.00000   0.00000   0.00000
   D16        3.14159  -0.00000   0.00000  -0.00000   0.00000   3.14159
   D17        3.14159   0.00000   0.00000   0.00000   0.00000   3.14159
   D18        0.00000  -0.00000   0.00000  -0.00000   0.00000   0.00000
   D19        0.00000  -0.00000   0.00000  -0.00000   0.00000   0.00000
   D20        3.14159   0.00000   0.00000   0.00000   0.00000   3.14159
         Item               Value     Threshold  Converged?
 Maximum Force            0.000295     0.000450     YES
 RMS     Force            0.000077     0.000300     YES
 Maximum Displacement     0.001385     0.001800     YES
 RMS     Displacement     0.000319     0.001200     YES
 Predicted change in Energy=-4.111903D-07
 Optimization completed.
    -- Stationary point found.
                           ----------------------------
                           !   Optimized Parameters   !
                           ! (Angstroms and Degrees)  !
 --------------------------                            --------------------------
 ! Name  Definition              Value          Derivative Info.                !
 --------------------------------------------------------------------------------
 ! R1    R(1,2)                  1.4194         -DE/DX =   -0.0002              !
 ! R2    R(1,6)                  1.3763         -DE/DX =   -0.0001              !
 ! R3    R(1,7)                  1.6803         -DE/DX =   -0.0001              !
 ! R4    R(2,3)                  1.4081         -DE/DX =    0.0                 !
 ! R5    R(2,8)                  1.6898         -DE/DX =   -0.0003              !
 ! R6    R(3,4)                  1.4006         -DE/DX =    0.0                 !
 ! R7    R(3,9)                  1.1013         -DE/DX =    0.0                 !
 ! R8    R(4,5)                  1.4093         -DE/DX =    0.0                 !
 ! R9    R(4,10)                 1.0989         -DE/DX =    0.0                 !
 ! R10   R(5,6)                  1.3686         -DE/DX =    0.0001              !
 ! R11   R(5,11)                 1.0969         -DE/DX =   -0.0002              !
 ! A1    A(2,1,6)              114.6368         -DE/DX =    0.0                 !
 ! A2    A(2,1,7)              123.1634         -DE/DX =    0.0                 !
 ! A3    A(6,1,7)              122.1998         -DE/DX =    0.0                 !
 ! A4    A(1,2,3)              119.5585         -DE/DX =    0.0001              !
 ! A5    A(1,2,8)              120.8013         -DE/DX =   -0.0001              !
 ! A6    A(3,2,8)              119.6403         -DE/DX =    0.0                 !
 ! A7    A(2,3,4)              121.5199         -DE/DX =    0.0                 !
 ! A8    A(2,3,9)              119.1134         -DE/DX =    0.0                 !
 ! A9    A(4,3,9)              119.3666         -DE/DX =    0.0                 !
 ! A10   A(3,4,5)              120.1249         -DE/DX =   -0.0001              !
 ! A11   A(3,4,10)             119.9493         -DE/DX =    0.0                 !
 ! A12   A(5,4,10)             119.9258         -DE/DX =    0.0001              !
 ! A13   A(4,5,6)              114.8675         -DE/DX =    0.0001              !
 ! A14   A(4,5,11)             122.3964         -DE/DX =    0.0                 !
 ! A15   A(6,5,11)             122.7361         -DE/DX =   -0.0001              !
 ! A16   A(1,6,5)              129.2924         -DE/DX =   -0.0001              !
 ! D1    D(6,1,2,3)              0.0            -DE/DX =    0.0                 !
 ! D2    D(6,1,2,8)            180.0            -DE/DX =    0.0                 !
 ! D3    D(7,1,2,3)            180.0            -DE/DX =    0.0                 !
 ! D4    D(7,1,2,8)              0.0            -DE/DX =    0.0                 !
 ! D5    D(2,1,6,5)              0.0            -DE/DX =    0.0                 !
 ! D6    D(7,1,6,5)            180.0            -DE/DX =    0.0                 !
 ! D7    D(1,2,3,4)              0.0            -DE/DX =    0.0                 !
 ! D8    D(1,2,3,9)            180.0            -DE/DX =    0.0                 !
 ! D9    D(8,2,3,4)            180.0            -DE/DX =    0.0                 !
 ! D10   D(8,2,3,9)              0.0            -DE/DX =    0.0                 !
 ! D11   D(2,3,4,5)              0.0            -DE/DX =    0.0                 !
 ! D12   D(2,3,4,10)           180.0            -DE/DX =    0.0                 !
 ! D13   D(9,3,4,5)            180.0            -DE/DX =    0.0                 !
 ! D14   D(9,3,4,10)             0.0            -DE/DX =    0.0                 !
 ! D15   D(3,4,5,6)              0.0            -DE/DX =    0.0                 !
 ! D16   D(3,4,5,11)           180.0            -DE/DX =    0.0                 !
 ! D17   D(10,4,5,6)           180.0            -DE/DX =    0.0                 !
 ! D18   D(10,4,5,11)            0.0            -DE/DX =    0.0                 !
 ! D19   D(4,5,6,1)              0.0            -DE/DX =    0.0                 !
 ! D20   D(11,5,6,1)           180.0            -DE/DX =    0.0                 !
 --------------------------------------------------------------------------------
 GradGradGradGradGradGradGradGradGradGradGradGradGradGradGradGradGradGrad

                          Input orientation:                          
 ---------------------------------------------------------------------
 Center     Atomic      Atomic             Coordinates (Angstroms)
 Number     Number       Type             X           Y           Z
 ---------------------------------------------------------------------
      1          6           0       -3.134269    0.163974    0.000000
      2          6           0       -1.921188    0.900991    0.000000
      3          6           0       -0.691557    0.214887    0.000000
      4          6           0       -0.633894   -1.184545    0.000000
      5          6           0       -1.822687   -1.941435    0.000000
      6          6           0       -2.975019   -1.203124    0.000000
      7         17           0       -4.650158    0.888821    0.000000
      8         17           0       -1.935339    2.590755    0.000000
      9          1           0        0.245181    0.794019    0.000000
     10          1           0        0.340060   -1.693495    0.000000
     11          1           0       -1.821002   -3.038329    0.000000
 ---------------------------------------------------------------------
                    Distance matrix (angstroms):
                    1          2          3          4          5
     1  C    0.000000
     2  C    1.419422   0.000000
     3  C    2.443243   1.408095   0.000000
     4  C    2.840842   2.450833   1.400619   0.000000
     5  C    2.480523   2.844132   2.434991   1.409295   0.000000
     6  C    1.376342   2.353266   2.687928   2.341199   1.368566
     7  Cl   1.680274   2.728997   4.015559   4.519870   4.000617
     8  Cl   2.706787   1.689823   2.681742   3.993325   4.533589
     9  H    3.437680   2.169008   1.101304   2.165060   3.429109
    10  H    3.939690   3.441598   2.169368   1.098916   2.176913
    11  H    3.461129   3.940593   3.443699   2.201305   1.096896
                    6          7          8          9         10
     6  C    0.000000
     7  Cl   2.679986   0.000000
     8  Cl   3.933758   3.204188   0.000000
     9  H    3.789231   4.896257   2.825408   0.000000
    10  H    3.351151   5.618775   4.851004   2.489323   0.000000
    11  H    2.167887   4.840106   5.630245   4.353849   2.545342
                   11
    11  H    0.000000
 Stoichiometry    C6H3Cl2(2)
 Framework group  CS[SG(C6H3Cl2)]
 Deg. of freedom    19
 Full point group                 CS      NOp   2
 Largest Abelian subgroup         CS      NOp   2
 Largest concise Abelian subgroup C1      NOp   1
                         Standard orientation:                         
 ---------------------------------------------------------------------
 Center     Atomic      Atomic             Coordinates (Angstroms)
 Number     Number       Type             X           Y           Z
 ---------------------------------------------------------------------
      1          6           0       -0.111687   -0.739244    0.000000
      2          6           0        0.000000    0.675777    0.000000
      3          6           0        1.275694    1.271877    0.000000
      4          6           0        2.444533    0.500158    0.000000
      5          6           0        2.363171   -0.906786    0.000000
      6          6           0        1.090340   -1.409652    0.000000
      7         17           0       -1.586232   -1.544875    0.000000
      8         17           0       -1.378886    1.652598    0.000000
      9          1           0        1.353820    2.370407    0.000000
     10          1           0        3.426995    0.992484    0.000000
     11          1           0        3.253874   -1.546964    0.000000
 ---------------------------------------------------------------------
 Rotational constants (GHZ):           1.9730042           1.4410168           0.8327811

 **********************************************************************

            Population analysis using the SCF Density.

 **********************************************************************

 Orbital symmetries:
 Alpha Orbitals:
       Occupied  (A') (A') (A') (A') (A') (A') (A') (A') (A') (A')
                 (A') (A") (A') (A') (A") (A") (A') (A') (A') (A")
                 (A")
       Virtual   (A") (A") (A') (A') (A") (A') (A') (A') (A') (A')
                 (A') (A') (A') (A')
 Beta  Orbitals:
       Occupied  (A') (A') (A') (A') (A') (A') (A') (A') (A') (A')
                 (A') (A") (A') (A') (A") (A") (A') (A') (A") (A")
       Virtual   (A') (A") (A") (A') (A') (A") (A') (A') (A') (A')
                 (A') (A') (A') (A') (A')
 The electronic state is 2-A'.
 Alpha  occ. eigenvalues --   -1.47129  -1.39477  -1.38842  -1.16596  -1.15279
 Alpha  occ. eigenvalues --   -0.88445  -0.86190  -0.68172  -0.62962  -0.61955
 Alpha  occ. eigenvalues --   -0.57326  -0.56073  -0.51688  -0.49370  -0.48453
 Alpha  occ. eigenvalues --   -0.46271  -0.45346  -0.44338  -0.39630  -0.38409
 Alpha  occ. eigenvalues --   -0.36352
 Alpha virt. eigenvalues --   -0.00474   0.00333   0.03396   0.04757   0.08001
 Alpha virt. eigenvalues --    0.12331   0.12753   0.13611   0.14221   0.15247
 Alpha virt. eigenvalues --    0.16602   0.17704   0.18090   0.18855
  Beta  occ. eigenvalues --   -1.46464  -1.39448  -1.38542  -1.16445  -1.13904
  Beta  occ. eigenvalues --   -0.88059  -0.83928  -0.67976  -0.61978  -0.60984
  Beta  occ. eigenvalues --   -0.57137  -0.55826  -0.50629  -0.49000  -0.48304
  Beta  occ. eigenvalues --   -0.46102  -0.44685  -0.44107  -0.37656  -0.36485
  Beta virt. eigenvalues --   -0.00680  -0.00551   0.01799   0.03943   0.05034
  Beta virt. eigenvalues --    0.08752   0.12716   0.13080   0.13646   0.14779
  Beta virt. eigenvalues --    0.15613   0.16893   0.17810   0.19033   0.19849
          Condensed to atoms (all electrons):
               1          2          3          4          5          6
     1  C    4.059171   0.000000   0.000000   0.000000   0.000000   0.000000
     2  C    0.000000   4.062339   0.000000   0.000000   0.000000   0.000000
     3  C    0.000000   0.000000   4.131118   0.000000   0.000000   0.000000
     4  C    0.000000   0.000000   0.000000   4.116454   0.000000   0.000000
     5  C    0.000000   0.000000   0.000000   0.000000   4.113155   0.000000
     6  C    0.000000   0.000000   0.000000   0.000000   0.000000   4.051013
     7  Cl   0.000000   0.000000   0.000000   0.000000   0.000000   0.000000
     8  Cl   0.000000   0.000000   0.000000   0.000000   0.000000   0.000000
     9  H    0.000000   0.000000   0.000000   0.000000   0.000000   0.000000
    10  H    0.000000   0.000000   0.000000   0.000000   0.000000   0.000000
    11  H    0.000000   0.000000   0.000000   0.000000   0.000000   0.000000
               7          8          9         10         11
     1  C    0.000000   0.000000   0.000000   0.000000   0.000000
     2  C    0.000000   0.000000   0.000000   0.000000   0.000000
     3  C    0.000000   0.000000   0.000000   0.000000   0.000000
     4  C    0.000000   0.000000   0.000000   0.000000   0.000000
     5  C    0.000000   0.000000   0.000000   0.000000   0.000000
     6  C    0.000000   0.000000   0.000000   0.000000   0.000000
     7  Cl   6.952480   0.000000   0.000000   0.000000   0.000000
     8  Cl   0.000000   6.979265   0.000000   0.000000   0.000000
     9  H    0.000000   0.000000   0.846599   0.000000   0.000000
    10  H    0.000000   0.000000   0.000000   0.852875   0.000000
    11  H    0.000000   0.000000   0.000000   0.000000   0.835531
          Atomic-Atomic Spin Densities.
               1          2          3          4          5          6
     1  C   -0.484812   0.000000   0.000000   0.000000   0.000000   0.000000
     2  C    0.000000   0.490090   0.000000   0.000000   0.000000   0.000000
     3  C    0.000000   0.000000  -0.461179   0.000000   0.000000   0.000000
     4  C    0.000000   0.000000   0.000000   0.498570   0.000000   0.000000
     5  C    0.000000   0.000000   0.000000   0.000000  -0.487038   0.000000
     6  C    0.000000   0.000000   0.000000   0.000000   0.000000   1.388828
     7  Cl   0.000000   0.000000   0.000000   0.000000   0.000000   0.000000
     8  Cl   0.000000   0.000000   0.000000   0.000000   0.000000   0.000000
     9  H    0.000000   0.000000   0.000000   0.000000   0.000000   0.000000
    10  H    0.000000   0.000000   0.000000   0.000000   0.000000   0.000000
    11  H    0.000000   0.000000   0.000000   0.000000   0.000000   0.000000
               7          8          9         10         11
     1  C    0.000000   0.000000   0.000000   0.000000   0.000000
     2  C    0.000000   0.000000   0.000000   0.000000   0.000000
     3  C    0.000000   0.000000   0.000000   0.000000   0.000000
     4  C    0.000000   0.000000   0.000000   0.000000   0.000000
     5  C    0.000000   0.000000   0.000000   0.000000   0.000000
     6  C    0.000000   0.000000   0.000000   0.000000   0.000000
     7  Cl   0.000044   0.000000   0.000000   0.000000   0.000000
     8  Cl   0.000000   0.015162   0.000000   0.000000   0.000000
     9  H    0.000000   0.000000   0.027099   0.000000   0.000000
    10  H    0.000000   0.000000   0.000000  -0.019508   0.000000
    11  H    0.000000   0.000000   0.000000   0.000000   0.032745
 Mulliken charges and spin densities:
               1          2
     1  C   -0.059171  -0.484812
     2  C   -0.062339   0.490090
     3  C   -0.131118  -0.461179
     4  C   -0.116454   0.498570
     5  C   -0.113155  -0.487038
     6  C   -0.051013   1.388828
     7  Cl   0.047520   0.000044
     8  Cl   0.020735   0.015162
     9  H    0.153401   0.027099
    10  H    0.147125  -0.019508
    11  H    0.164469   0.032745
 Sum of Mulliken charges =  -0.00000   1.00000
 Mulliken charges and spin densities with hydrogens summed into heavy atoms:
               1          2
     1  C   -0.059171  -0.484812
     2  C   -0.062339   0.490090
     3  C    0.022283  -0.434080
     4  C    0.030671   0.479062
     5  C    0.051314  -0.454293
     6  C   -0.051013   1.388828
     7  Cl   0.047520   0.000044
     8  Cl   0.020735   0.015162
 Charge=              0.0000 electrons
 Dipole moment (field-independent basis, Debye):
    X=              1.7595    Y=              0.8807    Z=              0.0000  Tot=              1.9676
 N-N= 1.980474833685D+02 E-N=-2.751953417376D+02  KE=-9.044489740039D+01
 Symmetry A'   KE=-7.006288774230D+01
 Symmetry A"   KE=-2.038200965809D+01
 Symmetry A'   SP= 1.000000000000D+00
 Symmetry A"   SP=-2.997602166488D-15
 1\1\GINC-SH04-01N22\FOpt\UAM1\ZDO\C6H3Cl2(2)\JLAPIER\09-Dec-2025\0\\# 
 opt am1 SCF=XQC\\Neutral Radical (removed 1) _23\\0,2\C,-3.1342690714,
 0.1639741801,0.\C,-1.9211877537,0.9009908083,0.\C,-0.6915566242,0.2148
 872857,0.\C,-0.6338935587,-1.1845445577,0.\C,-1.8226869867,-1.94143462
 29,0.\C,-2.9750191358,-1.2031239546,0.\Cl,-4.6501579718,0.8888207117,0
 .\Cl,-1.9353391184,2.5907549883,0.\H,0.2451812795,0.7940190053,0.\H,0.
 3400604445,-1.6934949587,0.\H,-1.8210015032,-3.0383288854,0.\\Version=
 ES64L-G16RevB.01\State=2-A'\HF=0.0975555\S2=1.252078\S2-1=0.\S2A=0.968
 662\RMSD=9.439e-09\RMSF=1.023e-04\Dipole=0.6859351,-0.3588461,0.\PG=CS
  [SG(C6H3Cl2)]\\@


 REPARTEE - WHAT YOU THINK OF AFTER YOU BECOME A DEPARTEE.
 Job cpu time:       0 days  0 hours  0 minutes  4.6 seconds.
 Elapsed time:       0 days  0 hours  0 minutes 26.5 seconds.
 File lengths (MBytes):  RWF=     10 Int=      0 D2E=      0 Chk=      2 Scr=      1
 Normal termination of Gaussian 16 at Tue Dec  9 09:59:12 2025.
