 Entering Gaussian System, Link 0=g16
 Initial command:
 /share/software/user/restricted/gaussian/g16.B01/l1.exe "/home/users/jlapier/Chloroaromatics/Gau-179951.inp" -scrdir="/home/users/jlapier/Chloroaromatics/"
 Entering Link 1 = /share/software/user/restricted/gaussian/g16.B01/l1.exe PID=    179952.
  
 Copyright (c) 1988-2017, Gaussian, Inc.  All Rights Reserved.
  
 This is part of the Gaussian(R) 16 program.  It is based on
 the Gaussian(R) 09 system (copyright 2009, Gaussian, Inc.),
 the Gaussian(R) 03 system (copyright 2003, Gaussian, Inc.),
 the Gaussian(R) 98 system (copyright 1998, Gaussian, Inc.),
 the Gaussian(R) 94 system (copyright 1995, Gaussian, Inc.),
 the Gaussian 92(TM) system (copyright 1992, Gaussian, Inc.),
 the Gaussian 90(TM) system (copyright 1990, Gaussian, Inc.),
 the Gaussian 88(TM) system (copyright 1988, Gaussian, Inc.),
 the Gaussian 86(TM) system (copyright 1986, Carnegie Mellon
 University), and the Gaussian 82(TM) system (copyright 1983,
 Carnegie Mellon University). Gaussian is a federally registered
 trademark of Gaussian, Inc.
  
 This software contains proprietary and confidential information,
 including trade secrets, belonging to Gaussian, Inc.
  
 This software is provided under written license and may be
 used, copied, transmitted, or stored only in accord with that
 written license.
  
 The following legend is applicable only to US Government
 contracts under FAR:
  
                    RESTRICTED RIGHTS LEGEND
  
 Use, reproduction and disclosure by the US Government is
 subject to restrictions as set forth in subparagraphs (a)
 and (c) of the Commercial Computer Software - Restricted
 Rights clause in FAR 52.227-19.
  
 Gaussian, Inc.
 340 Quinnipiac St., Bldg. 40, Wallingford CT 06492
  
  
 ---------------------------------------------------------------
 Warning -- This program may not be used in any manner that
 competes with the business of Gaussian, Inc. or will provide
 assistance to any competitor of Gaussian, Inc.  The licensee
 of this program is prohibited from giving any competitor of
 Gaussian, Inc. access to this program.  By using this program,
 the user acknowledges that Gaussian, Inc. is engaged in the
 business of creating and licensing software in the field of
 computational chemistry and represents and warrants to the
 licensee that it is not a competitor of Gaussian, Inc. and that
 it will not use this program in any manner prohibited above.
 ---------------------------------------------------------------
  

 Cite this work as:
 Gaussian 16, Revision B.01,
 M. J. Frisch, G. W. Trucks, H. B. Schlegel, G. E. Scuseria, 
 M. A. Robb, J. R. Cheeseman, G. Scalmani, V. Barone, 
 G. A. Petersson, H. Nakatsuji, X. Li, M. Caricato, A. V. Marenich, 
 J. Bloino, B. G. Janesko, R. Gomperts, B. Mennucci, H. P. Hratchian, 
 J. V. Ortiz, A. F. Izmaylov, J. L. Sonnenberg, D. Williams-Young, 
 F. Ding, F. Lipparini, F. Egidi, J. Goings, B. Peng, A. Petrone, 
 T. Henderson, D. Ranasinghe, V. G. Zakrzewski, J. Gao, N. Rega, 
 G. Zheng, W. Liang, M. Hada, M. Ehara, K. Toyota, R. Fukuda, 
 J. Hasegawa, M. Ishida, T. Nakajima, Y. Honda, O. Kitao, H. Nakai, 
 T. Vreven, K. Throssell, J. A. Montgomery, Jr., J. E. Peralta, 
 F. Ogliaro, M. J. Bearpark, J. J. Heyd, E. N. Brothers, K. N. Kudin, 
 V. N. Staroverov, T. A. Keith, R. Kobayashi, J. Normand, 
 K. Raghavachari, A. P. Rendell, J. C. Burant, S. S. Iyengar, 
 J. Tomasi, M. Cossi, J. M. Millam, M. Klene, C. Adamo, R. Cammi, 
 J. W. Ochterski, R. L. Martin, K. Morokuma, O. Farkas, 
 J. B. Foresman, and D. J. Fox, Gaussian, Inc., Wallingford CT, 2016.
 
 ******************************************
 Gaussian 16:  ES64L-G16RevB.01 20-Dec-2017
                 8-Dec-2025 
 ******************************************
 %mem=2GB
 %nprocshare=1
 Will use up to    1 processors via shared memory.
 %chk=geometry_chks/_245ClBzNeutralRadical.chk
 ----------------------------
 # opt am1 SCF(maxcyc=100000)
 ----------------------------
 1/18=20,19=15,26=1,38=1/1,3;
 2/9=110,12=2,17=6,18=5,40=1/2;
 3/5=2,25=1,41=700000,71=1/1,2,3;
 4/35=1/1;
 5/5=2,7=100000,35=1,38=5/2;
 6/7=2,8=2,9=2,10=2,28=1/1;
 7//1,2,3,16;
 1/18=20,19=15,26=1/3(2);
 2/9=110/2;
 99//99;
 2/9=110/2;
 3/5=2,25=1,41=700000,71=1,135=20/1,2,3;
 4/5=5,16=3,35=1/1;
 5/5=2,7=100000,35=1,38=5/2;
 7//1,2,3,16;
 1/18=20,19=15,26=1/3(-5);
 2/9=110/2;
 6/7=2,8=2,9=2,10=2,19=2,28=1/1;
 99/9=1/99;
 --------------------------------
 Neutral Radical (removed 1) _245
 --------------------------------
 Symbolic Z-matrix:
 Charge =  0 Multiplicity = 2
 C                    -3.20928   0.19943   0. 
 C                    -2.0115    0.93555   0. 
 C                    -0.77511   0.2663    0. 
 C                    -0.7365   -1.13907   0. 
 C                    -1.93429  -1.87519   0. 
 C                    -3.17067  -1.20594   0. 
 Cl                   -4.76193   1.03987   0. 
 H                     0.81614  -1.97951   0. 
 Cl                   -1.8858   -3.64003   0. 
 Cl                   -2.05998   2.7004    0. 
 H                     0.72905   1.19071   0. 
 
 Add virtual bond connecting atoms H8         and C4         Dist= 3.34D+00.
 Add virtual bond connecting atoms H11        and C3         Dist= 3.34D+00.

 GradGradGradGradGradGradGradGradGradGradGradGradGradGradGradGradGradGrad
 Berny optimization.
 Initialization pass.
                           ----------------------------
                           !    Initial Parameters    !
                           ! (Angstroms and Degrees)  !
 --------------------------                            --------------------------
 ! Name  Definition              Value          Derivative Info.                !
 --------------------------------------------------------------------------------
 ! R1    R(1,2)                  1.4059         estimate D2E/DX2                !
 ! R2    R(1,6)                  1.4059         estimate D2E/DX2                !
 ! R3    R(1,7)                  1.7655         estimate D2E/DX2                !
 ! R4    R(2,3)                  1.4059         estimate D2E/DX2                !
 ! R5    R(2,10)                 1.7655         estimate D2E/DX2                !
 ! R6    R(3,4)                  1.4059         estimate D2E/DX2                !
 ! R7    R(3,11)                 1.7655         estimate D2E/DX2                !
 ! R8    R(4,5)                  1.4059         estimate D2E/DX2                !
 ! R9    R(4,8)                  1.7655         estimate D2E/DX2                !
 ! R10   R(5,6)                  1.4059         estimate D2E/DX2                !
 ! R11   R(5,9)                  1.7655         estimate D2E/DX2                !
 ! A1    A(2,1,6)              119.9999         estimate D2E/DX2                !
 ! A2    A(2,1,7)              119.9999         estimate D2E/DX2                !
 ! A3    A(6,1,7)              120.0001         estimate D2E/DX2                !
 ! A4    A(1,2,3)              120.0            estimate D2E/DX2                !
 ! A5    A(1,2,10)             120.0001         estimate D2E/DX2                !
 ! A6    A(3,2,10)             119.9999         estimate D2E/DX2                !
 ! A7    A(2,3,4)              120.0001         estimate D2E/DX2                !
 ! A8    A(2,3,11)             120.0            estimate D2E/DX2                !
 ! A9    A(4,3,11)             119.9999         estimate D2E/DX2                !
 ! A10   A(3,4,5)              119.9997         estimate D2E/DX2                !
 ! A11   A(3,4,8)              120.0003         estimate D2E/DX2                !
 ! A12   A(5,4,8)              120.0            estimate D2E/DX2                !
 ! A13   A(4,5,6)              120.0            estimate D2E/DX2                !
 ! A14   A(4,5,9)              119.9996         estimate D2E/DX2                !
 ! A15   A(6,5,9)              120.0004         estimate D2E/DX2                !
 ! A16   A(1,6,5)              120.0003         estimate D2E/DX2                !
 ! D1    D(6,1,2,3)              0.0            estimate D2E/DX2                !
 ! D2    D(6,1,2,10)           180.0            estimate D2E/DX2                !
 ! D3    D(7,1,2,3)            180.0            estimate D2E/DX2                !
 ! D4    D(7,1,2,10)             0.0            estimate D2E/DX2                !
 ! D5    D(2,1,6,5)              0.0            estimate D2E/DX2                !
 ! D6    D(7,1,6,5)            180.0            estimate D2E/DX2                !
 ! D7    D(1,2,3,4)              0.0            estimate D2E/DX2                !
 ! D8    D(1,2,3,11)           180.0            estimate D2E/DX2                !
 ! D9    D(10,2,3,4)           180.0            estimate D2E/DX2                !
 ! D10   D(10,2,3,11)            0.0            estimate D2E/DX2                !
 ! D11   D(2,3,4,5)              0.0            estimate D2E/DX2                !
 ! D12   D(2,3,4,8)            180.0            estimate D2E/DX2                !
 ! D13   D(11,3,4,5)           180.0            estimate D2E/DX2                !
 ! D14   D(11,3,4,8)             0.0            estimate D2E/DX2                !
 ! D15   D(3,4,5,6)              0.0            estimate D2E/DX2                !
 ! D16   D(3,4,5,9)            180.0            estimate D2E/DX2                !
 ! D17   D(8,4,5,6)            180.0            estimate D2E/DX2                !
 ! D18   D(8,4,5,9)              0.0            estimate D2E/DX2                !
 ! D19   D(4,5,6,1)              0.0            estimate D2E/DX2                !
 ! D20   D(9,5,6,1)            180.0            estimate D2E/DX2                !
 --------------------------------------------------------------------------------
 Trust Radius=3.00D-01 FncErr=1.00D-07 GrdErr=1.00D-07 EigMax=2.50D+02 EigMin=1.00D-04
 Number of steps in this run=     57 maximum allowed number of steps=    100.
 GradGradGradGradGradGradGradGradGradGradGradGradGradGradGradGradGradGrad

                          Input orientation:                          
 ---------------------------------------------------------------------
 Center     Atomic      Atomic             Coordinates (Angstroms)
 Number     Number       Type             X           Y           Z
 ---------------------------------------------------------------------
      1          6           0       -3.209280    0.199430    0.000000
      2          6           0       -2.011500    0.935550    0.000000
      3          6           0       -0.775110    0.266300    0.000000
      4          6           0       -0.736500   -1.139070    0.000000
      5          6           0       -1.934290   -1.875190    0.000000
      6          6           0       -3.170670   -1.205940    0.000000
      7         17           0       -4.761930    1.039870    0.000000
      8          1           0        0.816140   -1.979510    0.000000
      9         17           0       -1.885800   -3.640030    0.000000
     10         17           0       -2.059980    2.700400    0.000000
     11          1           0        0.729050    1.190710    0.000000
 ---------------------------------------------------------------------
                    Distance matrix (angstroms):
                    1          2          3          4          5
     1  C    0.000000
     2  C    1.405898   0.000000
     3  C    2.435088   1.405900   0.000000
     4  C    2.811801   2.435092   1.405900   0.000000
     5  C    2.435087   2.811800   2.435093   1.405907   0.000000
     6  C    1.405900   2.435088   2.811796   2.435088   1.405892
     7  Cl   1.765520   2.752408   4.061175   4.577321   4.061173
     8  H    4.577312   4.061173   2.752406   1.765511   2.752408
     9  Cl   4.061164   4.577306   4.061163   2.752397   1.765506
    10  Cl   2.752406   1.765516   2.752405   4.061173   4.577316
    11  H    4.061167   2.752403   1.765512   2.752401   4.061173
                    6          7          8          9         10
     6  C    0.000000
     7  Cl   2.752412   0.000000
     8  H    4.061165   6.342832   0.000000
     9  Cl   2.752396   5.493049   3.171404   0.000000
    10  Cl   4.061173   3.171418   5.493052   6.342822   0.000000
    11  H    4.577308   5.493051   3.171416   5.493040   3.171412
                   11
    11  H    0.000000
 Stoichiometry    C6H2Cl3(2)
 Framework group  CS[SG(C6H2Cl3)]
 Deg. of freedom    19
 Full point group                 CS      NOp   2
 Largest Abelian subgroup         CS      NOp   2
 Largest concise Abelian subgroup C1      NOp   1
                         Standard orientation:                         
 ---------------------------------------------------------------------
 Center     Atomic      Atomic             Coordinates (Angstroms)
 Number     Number       Type             X           Y           Z
 ---------------------------------------------------------------------
      1          6           0        0.030861    0.853573   -0.000000
      2          6           0       -1.186683    0.150625    0.000000
      3          6           0       -1.186683   -1.255276    0.000000
      4          6           0        0.030861   -1.958228    0.000000
      5          6           0        1.248410   -1.255271    0.000000
      6          6           0        1.248405    0.150620   -0.000000
      7         17           0        0.030861    2.619093   -0.000000
      8          1           0        0.030866   -3.723739    0.000000
      9         17           0        2.777379   -2.138031    0.000000
     10         17           0       -2.715666    1.033380    0.000000
     11          1           0       -2.715661   -2.138032    0.000000
 ---------------------------------------------------------------------
 Rotational constants (GHZ):           1.8217072           0.5760402           0.4376510
 Standard basis: VSTO-6G (5D, 7F)
 There are    29 symmetry adapted cartesian basis functions of A'  symmetry.
 There are     9 symmetry adapted cartesian basis functions of A"  symmetry.
 There are    29 symmetry adapted basis functions of A'  symmetry.
 There are     9 symmetry adapted basis functions of A"  symmetry.
    38 basis functions,   228 primitive gaussians,    38 cartesian basis functions
    24 alpha electrons       23 beta electrons
       nuclear repulsion energy       238.8629470790 Hartrees.
 Integral buffers will be    131072 words long.
 Regular integral format.
 Two-electron integral symmetry is turned off.
 Do NDO integrals.
 One-electron integrals computed using PRISM.
 NBasis=    38 RedAO= T EigKep=  1.00D+00  NBF=    29     9
 NBsUse=    38 1.00D-06 EigRej= -1.00D+00 NBFU=    29     9
 Simple Huckel Guess.
 Initial guess orbital symmetries:
 Alpha Orbitals:
       Occupied  (A') (A') (A') (A') (A') (A') (A') (A') (A') (A")
                 (A') (A') (A') (A") (A') (A") (A') (A") (A') (A')
                 (A') (A") (A") (A')
       Virtual   (A') (A") (A") (A') (A") (A') (A') (A') (A') (A')
                 (A') (A') (A') (A')
 Beta  Orbitals:
       Occupied  (A') (A') (A') (A') (A') (A') (A') (A') (A') (A")
                 (A') (A') (A') (A") (A') (A") (A') (A") (A') (A')
                 (A') (A") (A")
       Virtual   (A') (A') (A") (A") (A') (A") (A') (A') (A') (A')
                 (A') (A') (A') (A') (A')
 The electronic state of the initial guess is 2-A'.
 Initial guess <Sx>= 0.0000 <Sy>= 0.0000 <Sz>= 0.5000 <S**2>= 0.7500 S= 0.5000
 Keep J ints in memory in canonical form, NReq=863588.
 Overlap will be assumed to be unity.
 Requested convergence on RMS density matrix=1.00D-08 within**** cycles.
 Requested convergence on MAX density matrix=1.00D-06.
 Requested convergence on             energy=1.00D-06.
 No special actions if energy rises.
 Fock symm off for IB=2 I1=    1 I=   30 J=   22 Cut=1.00D-07 Err=3.13D-03
 Fock matrix is not symmetric: symmetry in diagonalization turned off.
 Rare condition: small coef for last iteration:  0.000D+00
 Rare condition: small coef for last iteration:  0.000D+00
 Rare condition: small coef for last iteration:  0.000D+00
 Rare condition: small coef for last iteration:  0.000D+00
 Rare condition: small coef for last iteration:  0.000D+00
 Rare condition: small coef for last iteration:  0.000D+00
 Rare condition: small coef for last iteration:  0.000D+00
 Rare condition: small coef for last iteration:  0.000D+00
 Rare condition: small coef for last iteration:  0.000D+00
 Rare condition: small coef for last iteration:  0.000D+00
 Rare condition: small coef for last iteration:  0.000D+00
 Rare condition: small coef for last iteration:  0.000D+00
 Rare condition: small coef for last iteration:  0.000D+00
 Rare condition: small coef for last iteration:  0.000D+00
 Rare condition: small coef for last iteration:  0.000D+00
 Rare condition: small coef for last iteration:  0.000D+00
 Rare condition: small coef for last iteration:  0.000D+00
 Rare condition: small coef for last iteration:  0.000D+00
 Rare condition: small coef for last iteration:  0.000D+00
 Rare condition: small coef for last iteration:  0.000D+00
 Rare condition: small coef for last iteration:  0.000D+00
 Rare condition: small coef for last iteration:  0.000D+00
 Rare condition: small coef for last iteration:  0.000D+00
 Rare condition: small coef for last iteration:  0.000D+00
 Rare condition: small coef for last iteration:  0.000D+00
 Rare condition: small coef for last iteration:  0.000D+00
 Rare condition: small coef for last iteration:  0.000D+00
 Rare condition: small coef for last iteration:  0.000D+00
 Rare condition: small coef for last iteration:  0.000D+00
 Rare condition: small coef for last iteration:  0.000D+00
 Rare condition: small coef for last iteration:  0.000D+00
 Rare condition: small coef for last iteration:  0.000D+00
 Rare condition: small coef for last iteration:  0.000D+00
 Rare condition: small coef for last iteration:  0.000D+00
 Rare condition: small coef for last iteration:  0.000D+00
 Rare condition: small coef for last iteration:  0.000D+00
 Rare condition: small coef for last iteration:  0.000D+00
 Rare condition: small coef for last iteration:  0.000D+00
 Rare condition: small coef for last iteration:  0.000D+00
 Rare condition: small coef for last iteration:  0.000D+00
 Rare condition: small coef for last iteration:  0.000D+00
 Rare condition: small coef for last iteration:  0.000D+00
 Rare condition: small coef for last iteration:  0.000D+00
 Rare condition: small coef for last iteration:  0.000D+00
 Rare condition: small coef for last iteration:  0.000D+00
 Rare condition: small coef for last iteration:  0.000D+00
 Rare condition: small coef for last iteration:  0.000D+00
 Rare condition: small coef for last iteration:  0.000D+00
 Rare condition: small coef for last iteration:  0.000D+00
 Rare condition: small coef for last iteration:  0.000D+00
 Rare condition: small coef for last iteration:  0.000D+00
 Rare condition: small coef for last iteration:  0.000D+00
 Rare condition: small coef for last iteration:  0.000D+00
 Rare condition: small coef for last iteration:  0.000D+00
 Rare condition: small coef for last iteration:  0.000D+00
 Rare condition: small coef for last iteration:  0.000D+00
 Rare condition: small coef for last iteration:  0.000D+00
 Rare condition: small coef for last iteration:  0.000D+00
 Rare condition: small coef for last iteration:  0.000D+00
 Rare condition: small coef for last iteration:  0.000D+00
 Rare condition: small coef for last iteration:  0.000D+00
 Rare condition: small coef for last iteration:  0.000D+00
 Rare condition: small coef for last iteration:  0.000D+00
 Rare condition: small coef for last iteration:  0.000D+00
 Rare condition: small coef for last iteration:  0.000D+00
 Rare condition: small coef for last iteration:  0.000D+00
 Rare condition: small coef for last iteration:  0.000D+00
 Rare condition: small coef for last iteration:  0.000D+00
 Rare condition: small coef for last iteration:  0.000D+00
 Rare condition: small coef for last iteration:  0.000D+00
 Rare condition: small coef for last iteration:  0.000D+00
 Rare condition: small coef for last iteration:  0.000D+00
 Rare condition: small coef for last iteration:  0.000D+00
 Rare condition: small coef for last iteration:  0.000D+00
 Rare condition: small coef for last iteration:  0.000D+00
 Rare condition: small coef for last iteration:  0.000D+00
 Rare condition: small coef for last iteration:  0.000D+00
 Rare condition: small coef for last iteration:  0.000D+00
 Rare condition: small coef for last iteration:  0.000D+00
 Rare condition: small coef for last iteration:  0.000D+00
 Rare condition: small coef for last iteration:  0.000D+00
 Rare condition: small coef for last iteration:  0.000D+00
 Rare condition: small coef for last iteration:  0.000D+00
 Rare condition: small coef for last iteration:  0.000D+00
 Rare condition: small coef for last iteration:  0.000D+00
 Rare condition: small coef for last iteration:  0.000D+00
 Rare condition: small coef for last iteration:  0.000D+00
 Rare condition: small coef for last iteration:  0.000D+00
 Rare condition: small coef for last iteration:  0.000D+00
 Rare condition: small coef for last iteration:  0.000D+00
 Rare condition: small coef for last iteration:  0.000D+00
 Rare condition: small coef for last iteration:  0.000D+00
 Rare condition: small coef for last iteration:  0.000D+00
 Rare condition: small coef for last iteration:  0.000D+00
 Rare condition: small coef for last iteration:  0.000D+00
 Rare condition: small coef for last iteration:  0.000D+00
 Rare condition: small coef for last iteration:  0.000D+00
 Rare condition: small coef for last iteration:  0.000D+00
 Rare condition: small coef for last iteration:  0.000D+00
 Rare condition: small coef for last iteration:  0.000D+00
 Rare condition: small coef for last iteration:  0.000D+00
 Rare condition: small coef for last iteration:  0.000D+00
 Rare condition: small coef for last iteration:  0.000D+00
 Rare condition: small coef for last iteration:  0.000D+00
 Rare condition: small coef for last iteration:  0.000D+00
 Rare condition: small coef for last iteration:  0.000D+00
 Rare condition: small coef for last iteration:  0.000D+00
 Rare condition: small coef for last iteration:  0.000D+00
 Rare condition: small coef for last iteration:  0.000D+00
 Rare condition: small coef for last iteration:  0.000D+00
 Rare condition: small coef for last iteration:  0.000D+00
 Rare condition: small coef for last iteration:  0.000D+00
 Rare condition: small coef for last iteration:  0.000D+00
 Rare condition: small coef for last iteration:  0.000D+00
 Rare condition: small coef for last iteration:  0.000D+00
 Rare condition: small coef for last iteration:  0.000D+00
 Rare condition: small coef for last iteration:  0.000D+00
 Rare condition: small coef for last iteration:  0.000D+00
 Rare condition: small coef for last iteration:  0.000D+00
 Rare condition: small coef for last iteration:  0.000D+00
 Rare condition: small coef for last iteration:  0.000D+00
 Rare condition: small coef for last iteration:  0.000D+00
 Rare condition: small coef for last iteration:  0.000D+00
 Rare condition: small coef for last iteration:  0.000D+00
 Rare condition: small coef for last iteration:  0.000D+00
 Rare condition: small coef for last iteration:  0.000D+00
 Rare condition: small coef for last iteration:  0.000D+00
 Rare condition: small coef for last iteration:  0.000D+00
 Rare condition: small coef for last iteration:  0.000D+00
 Rare condition: small coef for last iteration:  0.000D+00
 Rare condition: small coef for last iteration:  0.000D+00
 Rare condition: small coef for last iteration:  0.000D+00
 Rare condition: small coef for last iteration:  0.000D+00
 Rare condition: small coef for last iteration:  0.000D+00
 Rare condition: small coef for last iteration:  0.000D+00
 Rare condition: small coef for last iteration:  0.000D+00
 Rare condition: small coef for last iteration:  0.000D+00
 Rare condition: small coef for last iteration:  0.000D+00
 Rare condition: small coef for last iteration:  0.000D+00
 Rare condition: small coef for last iteration:  0.000D+00
 Rare condition: small coef for last iteration:  0.000D+00
 Rare condition: small coef for last iteration:  0.000D+00
 Rare condition: small coef for last iteration:  0.000D+00
 Rare condition: small coef for last iteration:  0.000D+00
 Rare condition: small coef for last iteration:  0.000D+00
 Rare condition: small coef for last iteration:  0.000D+00
 Rare condition: small coef for last iteration:  0.000D+00
 SCF Done:  E(UAM1) =  0.342641727914     A.U. after  481 cycles
            NFock=480  Conv=0.69D-08     -V/T= 1.0031
 <Sx>= 0.0000 <Sy>= 0.0000 <Sz>= 0.5000 <S**2>= 1.8719 S= 0.9567
 <L.S>=  0.00000000000    
 Annihilation of the first spin contaminant:
 S**2 before annihilation     1.8719,   after     2.5334

 **********************************************************************

            Population analysis using the SCF Density.

 **********************************************************************

 Orbital symmetries:
 Alpha Orbitals:
       Occupied  (A') (A') (A') (A') (A') (A') (A') (A') (A') (A')
                 (A') (A") (A') (A") (A") (A') (A') (A') (A') (A")
                 (A') (A') (A") (A")
       Virtual   (A') (A") (A") (A') (A') (A') (A') (A") (A') (A')
                 (A') (A') (A') (A')
 Beta  Orbitals:
       Occupied  (A') (A') (A') (A') (A') (A') (A') (A') (A') (A')
                 (A') (A") (A') (A") (A") (A') (A') (A') (A") (A')
                 (A') (A") (A")
       Virtual   (A') (A") (A') (A') (A") (A') (A') (A') (A") (A')
                 (A') (A') (A') (A') (A')
 The electronic state is 2-A'.
 Alpha  occ. eigenvalues --   -1.44622  -1.38799  -1.37801  -1.36035  -1.13985
 Alpha  occ. eigenvalues --   -1.12379  -0.85928  -0.84007  -0.64443  -0.62492
 Alpha  occ. eigenvalues --   -0.60982  -0.55788  -0.54867  -0.49750  -0.47220
 Alpha  occ. eigenvalues --   -0.46760  -0.46116  -0.45777  -0.44450  -0.43918
 Alpha  occ. eigenvalues --   -0.43407  -0.39903  -0.39149  -0.37247
 Alpha virt. eigenvalues --   -0.01086  -0.00779   0.00283   0.01108   0.01843
 Alpha virt. eigenvalues --    0.03302   0.04577   0.07467   0.12721   0.12982
 Alpha virt. eigenvalues --    0.14873   0.15126   0.16380   0.17952
  Beta  occ. eigenvalues --   -1.44081  -1.38771  -1.37750  -1.35761  -1.13477
  Beta  occ. eigenvalues --   -1.11074  -0.85270  -0.81986  -0.64760  -0.62046
  Beta  occ. eigenvalues --   -0.59871  -0.55625  -0.53893  -0.50215  -0.47445
  Beta  occ. eigenvalues --   -0.46776  -0.45387  -0.44267  -0.43844  -0.43376
  Beta  occ. eigenvalues --   -0.42129  -0.37972  -0.37109
  Beta virt. eigenvalues --   -0.03844  -0.00411   0.00296   0.00847   0.01719
  Beta virt. eigenvalues --    0.02219   0.03379   0.04466   0.08169   0.13179
  Beta virt. eigenvalues --    0.13551   0.15412   0.16568   0.16962   0.18367
          Condensed to atoms (all electrons):
               1          2          3          4          5          6
     1  C    4.049108   0.000000   0.000000   0.000000   0.000000   0.000000
     2  C    0.000000   4.033317   0.000000   0.000000   0.000000   0.000000
     3  C    0.000000   0.000000   4.122768   0.000000   0.000000   0.000000
     4  C    0.000000   0.000000   0.000000   4.128070   0.000000   0.000000
     5  C    0.000000   0.000000   0.000000   0.000000   4.044028   0.000000
     6  C    0.000000   0.000000   0.000000   0.000000   0.000000   3.989435
     7  Cl   0.000000   0.000000   0.000000   0.000000   0.000000   0.000000
     8  H    0.000000   0.000000   0.000000   0.000000   0.000000   0.000000
     9  Cl   0.000000   0.000000   0.000000   0.000000   0.000000   0.000000
    10  Cl   0.000000   0.000000   0.000000   0.000000   0.000000   0.000000
    11  H    0.000000   0.000000   0.000000   0.000000   0.000000   0.000000
               7          8          9         10         11
     1  C    0.000000   0.000000   0.000000   0.000000   0.000000
     2  C    0.000000   0.000000   0.000000   0.000000   0.000000
     3  C    0.000000   0.000000   0.000000   0.000000   0.000000
     4  C    0.000000   0.000000   0.000000   0.000000   0.000000
     5  C    0.000000   0.000000   0.000000   0.000000   0.000000
     6  C    0.000000   0.000000   0.000000   0.000000   0.000000
     7  Cl   6.991151   0.000000   0.000000   0.000000   0.000000
     8  H    0.000000   0.806150   0.000000   0.000000   0.000000
     9  Cl   0.000000   0.000000   7.010188   0.000000   0.000000
    10  Cl   0.000000   0.000000   0.000000   7.003414   0.000000
    11  H    0.000000   0.000000   0.000000   0.000000   0.822372
          Atomic-Atomic Spin Densities.
               1          2          3          4          5          6
     1  C   -0.563527   0.000000   0.000000   0.000000   0.000000   0.000000
     2  C    0.000000   0.571793   0.000000   0.000000   0.000000   0.000000
     3  C    0.000000   0.000000  -0.970146   0.000000   0.000000   0.000000
     4  C    0.000000   0.000000   0.000000   0.949560   0.000000   0.000000
     5  C    0.000000   0.000000   0.000000   0.000000  -0.572092   0.000000
     6  C    0.000000   0.000000   0.000000   0.000000   0.000000   1.501681
     7  Cl   0.000000   0.000000   0.000000   0.000000   0.000000   0.000000
     8  H    0.000000   0.000000   0.000000   0.000000   0.000000   0.000000
     9  Cl   0.000000   0.000000   0.000000   0.000000   0.000000   0.000000
    10  Cl   0.000000   0.000000   0.000000   0.000000   0.000000   0.000000
    11  H    0.000000   0.000000   0.000000   0.000000   0.000000   0.000000
               7          8          9         10         11
     1  C    0.000000   0.000000   0.000000   0.000000   0.000000
     2  C    0.000000   0.000000   0.000000   0.000000   0.000000
     3  C    0.000000   0.000000   0.000000   0.000000   0.000000
     4  C    0.000000   0.000000   0.000000   0.000000   0.000000
     5  C    0.000000   0.000000   0.000000   0.000000   0.000000
     6  C    0.000000   0.000000   0.000000   0.000000   0.000000
     7  Cl   0.008961   0.000000   0.000000   0.000000   0.000000
     8  H    0.000000  -0.400240   0.000000   0.000000   0.000000
     9  Cl   0.000000   0.000000   0.010553   0.000000   0.000000
    10  Cl   0.000000   0.000000   0.000000   0.005034   0.000000
    11  H    0.000000   0.000000   0.000000   0.000000   0.458423
 Mulliken charges and spin densities:
               1          2
     1  C   -0.049108  -0.563527
     2  C   -0.033317   0.571793
     3  C   -0.122768  -0.970146
     4  C   -0.128070   0.949560
     5  C   -0.044028  -0.572092
     6  C    0.010565   1.501681
     7  Cl   0.008849   0.008961
     8  H    0.193850  -0.400240
     9  Cl  -0.010188   0.010553
    10  Cl  -0.003414   0.005034
    11  H    0.177628   0.458423
 Sum of Mulliken charges =   0.00000   1.00000
 Mulliken charges and spin densities with hydrogens summed into heavy atoms:
               1          2
     1  C   -0.049108  -0.563527
     2  C   -0.033317   0.571793
     3  C    0.054860  -0.511723
     4  C    0.065780   0.549320
     5  C   -0.044028  -0.572092
     6  C    0.010565   1.501681
     7  Cl   0.008849   0.008961
     9  Cl  -0.010188   0.010553
    10  Cl  -0.003414   0.005034
 Charge=              0.0000 electrons
 Dipole moment (field-independent basis, Debye):
    X=             -1.5215    Y=             -2.7553    Z=              0.0000  Tot=              3.1474
 N-N= 2.388629470790D+02 E-N=-3.310878647667D+02  KE=-1.117656640346D+02
 Symmetry A'   KE=-8.578483671287D+01
 Symmetry A"   KE=-2.598082732169D+01
 Symmetry A'   SP= 1.000000000000D+00
 Symmetry A"   SP=-2.775557561563D-15
 Calling FoFJK, ICntrl=      2127 FMM=F ISym2X=1 I1Cent= 0 IOpClX= 1 NMat=1 NMatS=1 NMatT=0.
 ***** Axes restored to original set *****
 -------------------------------------------------------------------
 Center     Atomic                   Forces (Hartrees/Bohr)
 Number     Number              X              Y              Z
 -------------------------------------------------------------------
      1        6          -0.049975732   -0.003275321   -0.000000000
      2        6           0.019852610    0.032218455   -0.000000000
      3        6           0.059440707    0.013118076   -0.000000000
      4        6           0.065079930   -0.010639968   -0.000000000
      5        6          -0.006788577   -0.038445814   -0.000000000
      6        6           0.049498114    0.031004564    0.000000000
      7       17           0.034313248   -0.021553641    0.000000000
      8        1          -0.090441652    0.047834322    0.000000000
      9       17          -0.000904591    0.040109099    0.000000000
     10       17           0.003298383   -0.039940295    0.000000000
     11        1          -0.083372439   -0.050429475    0.000000000
 -------------------------------------------------------------------
 Cartesian Forces:  Max     0.090441652 RMS     0.035568708

 GradGradGradGradGradGradGradGradGradGradGradGradGradGradGradGradGradGrad
 Berny optimization.
 FormGI is forming the generalized inverse of G from B-inverse, IUseBI=4.
 Internal  Forces:  Max     0.102307586 RMS     0.025575767
 Search for a local minimum.
 Step number   1 out of a maximum of   57
 All quantities printed in internal units (Hartrees-Bohrs-Radians)
 Mixed Optimization -- RFO/linear search
 Second derivative matrix not updated -- first step.
 ITU=  0
     Eigenvalues ---    0.02011   0.02011   0.02011   0.02011   0.02011
     Eigenvalues ---    0.02011   0.02011   0.02011   0.06524   0.06524
     Eigenvalues ---    0.16000   0.16000   0.22472   0.24476   0.25000
     Eigenvalues ---    0.25000   0.25000   0.25000   0.29033   0.29033
     Eigenvalues ---    0.29034   0.41072   0.41425   0.44656   0.44657
     Eigenvalues ---    0.44657   0.44657
 RFO step:  Lambda=-1.27147616D-01 EMin= 2.01065650D-02
 Linear search not attempted -- first point.
 Maximum step size (   0.300) exceeded in Quadratic search.
    -- Step size scaled by   0.390
 Iteration  1 RMS(Cart)=  0.04601957 RMS(Int)=  0.00108882
 Iteration  2 RMS(Cart)=  0.00105086 RMS(Int)=  0.00001069
 Iteration  3 RMS(Cart)=  0.00000012 RMS(Int)=  0.00001069
 ClnCor:  largest displacement from symmetrization is 3.24D-11 for atom     8.
 Variable       Old X    -DE/DX   Delta X   Delta X   Delta X     New X
                                 (Linear)    (Quad)   (Total)
    R1        2.65676  -0.00224   0.00000  -0.00104  -0.00104   2.65572
    R2        2.65677  -0.02970   0.00000  -0.01985  -0.01984   2.63693
    R3        3.33635  -0.04044   0.00000  -0.03778  -0.03778   3.29857
    R4        2.65677  -0.02097   0.00000  -0.01411  -0.01413   2.64264
    R5        3.33634  -0.04002   0.00000  -0.03739  -0.03739   3.29895
    R6        2.65677  -0.03969   0.00000  -0.02733  -0.02734   2.62943
    R7        3.33633  -0.09744   0.00000  -0.19756  -0.19756   3.13877
    R8        2.65678  -0.02413   0.00000  -0.01690  -0.01689   2.63989
    R9        3.33633  -0.10231   0.00000  -0.20744  -0.20744   3.12889
   R10        2.65675  -0.02988   0.00000  -0.02046  -0.02044   2.63631
   R11        3.33632  -0.04012   0.00000  -0.03749  -0.03749   3.29884
    A1        2.09439  -0.01559   0.00000  -0.01503  -0.01503   2.07937
    A2        2.09439   0.01217   0.00000   0.01204   0.01204   2.10643
    A3        2.09440   0.00342   0.00000   0.00299   0.00299   2.09739
    A4        2.09439  -0.00749   0.00000  -0.00697  -0.00699   2.08740
    A5        2.09440   0.00742   0.00000   0.00728   0.00729   2.10169
    A6        2.09439   0.00008   0.00000  -0.00031  -0.00030   2.09409
    A7        2.09440   0.00940   0.00000   0.01001   0.00998   2.10438
    A8        2.09440  -0.00585   0.00000  -0.00657  -0.00655   2.08784
    A9        2.09439  -0.00355   0.00000  -0.00345  -0.00343   2.09096
   A10        2.09439   0.00532   0.00000   0.00436   0.00435   2.09874
   A11        2.09440  -0.00101   0.00000   0.00005   0.00006   2.09446
   A12        2.09440  -0.00430   0.00000  -0.00442  -0.00441   2.08998
   A13        2.09439  -0.01478   0.00000  -0.01647  -0.01645   2.07794
   A14        2.09439   0.00706   0.00000   0.00789   0.00788   2.10227
   A15        2.09440   0.00772   0.00000   0.00857   0.00857   2.10297
   A16        2.09440   0.02314   0.00000   0.02409   0.02413   2.11853
    D1       -0.00000  -0.00000   0.00000   0.00000   0.00000   0.00000
    D2        3.14159   0.00000   0.00000   0.00000   0.00000   3.14159
    D3        3.14159  -0.00000   0.00000  -0.00000   0.00000   3.14159
    D4        0.00000  -0.00000   0.00000  -0.00000  -0.00000   0.00000
    D5        0.00000  -0.00000   0.00000  -0.00000   0.00000   0.00000
    D6        3.14159   0.00000   0.00000   0.00000   0.00000   3.14159
    D7        0.00000   0.00000   0.00000   0.00000  -0.00000   0.00000
    D8        3.14159   0.00000   0.00000   0.00000   0.00000   3.14159
    D9        3.14159  -0.00000   0.00000  -0.00000   0.00000   3.14159
   D10        0.00000   0.00000   0.00000   0.00000   0.00000   0.00000
   D11       -0.00000   0.00000   0.00000   0.00000   0.00000   0.00000
   D12        3.14159   0.00000   0.00000   0.00000   0.00000   3.14159
   D13        3.14159  -0.00000   0.00000  -0.00000   0.00000   3.14159
   D14        0.00000  -0.00000   0.00000  -0.00000  -0.00000   0.00000
   D15        0.00000  -0.00000   0.00000  -0.00000   0.00000   0.00000
   D16        3.14159   0.00000   0.00000   0.00000   0.00000   3.14159
   D17        3.14159  -0.00000   0.00000  -0.00000   0.00000   3.14159
   D18       -0.00000   0.00000   0.00000   0.00000   0.00000   0.00000
   D19        0.00000   0.00000   0.00000   0.00000  -0.00000   0.00000
   D20        3.14159  -0.00000   0.00000  -0.00000   0.00000   3.14159
         Item               Value     Threshold  Converged?
 Maximum Force            0.102308     0.000450     NO 
 RMS     Force            0.025576     0.000300     NO 
 Maximum Displacement     0.166647     0.001800     NO 
 RMS     Displacement     0.046704     0.001200     NO 
 Predicted change in Energy=-4.564616D-02
 GradGradGradGradGradGradGradGradGradGradGradGradGradGradGradGradGradGrad

                          Input orientation:                          
 ---------------------------------------------------------------------
 Center     Atomic      Atomic             Coordinates (Angstroms)
 Number     Number       Type             X           Y           Z
 ---------------------------------------------------------------------
      1          6           0       -3.192995    0.200781    0.000000
      2          6           0       -1.994894    0.935324    0.000000
      3          6           0       -0.770490    0.259735    0.000000
      4          6           0       -0.729610   -1.131097   -0.000000
      5          6           0       -1.915177   -1.869982   -0.000000
      6          6           0       -3.135217   -1.193425   -0.000000
      7         17           0       -4.737076    1.014829    0.000000
      8          1           0        0.727954   -1.916576   -0.000000
      9         17           0       -1.870053   -3.615068   -0.000000
     10         17           0       -2.028228    2.680735    0.000000
     11          1           0        0.645916    1.127265    0.000000
 ---------------------------------------------------------------------
                    Distance matrix (angstroms):
                    1          2          3          4          5
     1  C    0.000000
     2  C    1.405346   0.000000
     3  C    2.423222   1.398423   0.000000
     4  C    2.800386   2.423023   1.391433   0.000000
     5  C    2.433285   2.806439   2.417852   1.396968   0.000000
     6  C    1.395403   2.414934   2.775538   2.406414   1.395073
     7  Cl   1.745526   2.743334   4.037818   4.545853   4.035499
     8  H    4.456124   3.942999   2.642285   1.655739   2.643542
     9  Cl   4.038673   4.552105   4.027796   2.733262   1.745670
    10  Cl   2.739864   1.745730   2.728213   4.026969   4.552122
    11  H    3.949128   2.647777   1.660967   2.644290   3.942421
                    6          7          8          9         10
     6  C    0.000000
     7  Cl   2.728065   0.000000
     8  H    3.930272   6.201588   0.000000
     9  Cl   2.732215   5.445712   3.103952   0.000000
    10  Cl   4.029211   3.180110   5.360207   6.297790   0.000000
    11  H    4.436504   5.384166   3.044946   5.368410   3.092623
                   11
    11  H    0.000000
 Stoichiometry    C6H2Cl3(2)
 Framework group  CS[SG(C6H2Cl3)]
 Deg. of freedom    19
 Full point group                 CS      NOp   2
 Largest Abelian subgroup         CS      NOp   2
 Largest concise Abelian subgroup C1      NOp   1
                         Standard orientation:                         
 ---------------------------------------------------------------------
 Center     Atomic      Atomic             Coordinates (Angstroms)
 Number     Number       Type             X           Y           Z
 ---------------------------------------------------------------------
      1          6           0       -0.000000    0.857849   -0.000000
      2          6           0       -1.192130    0.113655   -0.000000
      3          6           0       -1.134172   -1.283567    0.000000
      4          6           0        0.092139   -1.941021    0.000000
      5          6           0        1.282559   -1.209981    0.000000
      6          6           0        1.221787    0.183767    0.000000
      7         17           0       -0.039151    2.602936   -0.000000
      8          1           0        0.144347   -3.595937    0.000000
      9         17           0        2.823973   -2.029374    0.000000
     10         17           0       -2.739098    0.922643   -0.000000
     11          1           0       -2.542755   -2.163742    0.000000
 ---------------------------------------------------------------------
 Rotational constants (GHZ):           1.8356306           0.5857249           0.4440383
 Standard basis: VSTO-6G (5D, 7F)
 There are    29 symmetry adapted cartesian basis functions of A'  symmetry.
 There are     9 symmetry adapted cartesian basis functions of A"  symmetry.
 There are    29 symmetry adapted basis functions of A'  symmetry.
 There are     9 symmetry adapted basis functions of A"  symmetry.
    38 basis functions,   228 primitive gaussians,    38 cartesian basis functions
    24 alpha electrons       23 beta electrons
       nuclear repulsion energy       240.1626057418 Hartrees.
 Integral buffers will be    131072 words long.
 Regular integral format.
 Two-electron integral symmetry is turned off.
 Do NDO integrals.
 One-electron integrals computed using PRISM.
 NBasis=    38 RedAO= T EigKep=  1.00D+00  NBF=    29     9
 NBsUse=    38 1.00D-06 EigRej= -1.00D+00 NBFU=    29     9
 Initial guess from the checkpoint file:  "geometry_chks/_245ClBzNeutralRadical.chk"
 B after Tr=     0.000000    0.000000    0.000000
         Rot=    0.999863    0.000000   -0.000000   -0.016544 Ang=  -1.90 deg.
 Initial guess orbital symmetries:
 Alpha Orbitals:
       Occupied  (A') (A') (A') (A') (A') (A') (A') (A') (A') (A')
                 (A') (A") (A') (A") (A") (A') (A') (A') (A') (A")
                 (A') (A') (A") (A")
       Virtual   (A') (A") (A") (A') (A') (A') (A') (A") (A') (A')
                 (A') (A') (A') (A')
 Beta  Orbitals:
       Occupied  (A') (A') (A') (A') (A') (A') (A') (A') (A') (A')
                 (A') (A") (A') (A") (A") (A') (A') (A') (A") (A')
                 (A') (A") (A")
       Virtual   (A') (A") (A') (A') (A") (A') (A') (A') (A") (A')
                 (A') (A') (A') (A') (A')
 Initial guess <Sx>= 0.0000 <Sy>= 0.0000 <Sz>= 0.5000 <S**2>= 1.8719 S= 0.9567
 Keep J ints in memory in canonical form, NReq=863588.
 Overlap will be assumed to be unity.
 Requested convergence on RMS density matrix=1.00D-08 within**** cycles.
 Requested convergence on MAX density matrix=1.00D-06.
 Requested convergence on             energy=1.00D-06.
 No special actions if energy rises.
 Fock symm off for IB=2 I1=    1 I=   30 J=   16 Cut=1.00D-07 Err=4.25D-03
 Fock matrix is not symmetric: symmetry in diagonalization turned off.
 SCF Done:  E(UAM1) =  0.289707212569     A.U. after   20 cycles
            NFock= 19  Conv=0.93D-08     -V/T= 1.0026
 <Sx>= 0.0000 <Sy>= 0.0000 <Sz>= 0.5000 <S**2>= 1.3870 S= 0.7795
 <L.S>=  0.00000000000    
 Annihilation of the first spin contaminant:
 S**2 before annihilation     1.3870,   after     1.1688
 Calling FoFJK, ICntrl=      2127 FMM=F ISym2X=1 I1Cent= 0 IOpClX= 1 NMat=1 NMatS=1 NMatT=0.
 ***** Axes restored to original set *****
 -------------------------------------------------------------------
 Center     Atomic                   Forces (Hartrees/Bohr)
 Number     Number              X              Y              Z
 -------------------------------------------------------------------
      1        6          -0.044660504   -0.000361431    0.000000000
      2        6           0.013825816    0.029429667   -0.000000000
      3        6           0.087952905    0.038243582   -0.000000000
      4        6           0.094438138   -0.031988624   -0.000000000
      5        6          -0.008516851   -0.038455611    0.000000000
      6        6           0.036054770    0.023839555    0.000000000
      7       17           0.026783569   -0.016289965    0.000000000
      8        1          -0.106370514    0.056199171    0.000000000
      9       17          -0.000726990    0.030528346    0.000000000
     10       17           0.002085483   -0.030331768    0.000000000
     11        1          -0.100865821   -0.060812921    0.000000000
 -------------------------------------------------------------------
 Cartesian Forces:  Max     0.106370514 RMS     0.041486203

 GradGradGradGradGradGradGradGradGradGradGradGradGradGradGradGradGradGrad
 Berny optimization.
 Using GEDIIS/GDIIS optimizer.
 FormGI is forming the generalized inverse of G from B-inverse, IUseBI=4.
 Internal  Forces:  Max     0.120299853 RMS     0.026726125
 Search for a local minimum.
 Step number   2 out of a maximum of   57
 All quantities printed in internal units (Hartrees-Bohrs-Radians)
 Mixed Optimization -- RFO/linear search
 Update second derivatives using D2CorX and points    1    2
 DE= -5.29D-02 DEPred=-4.56D-02 R= 1.16D+00
 TightC=F SS=  1.41D+00  RLast= 3.00D-01 DXNew= 5.0454D-01 9.0000D-01
 Trust test= 1.16D+00 RLast= 3.00D-01 DXMaxT set to 5.05D-01
 ITU=  1  0
 Use linear search instead of GDIIS.
     Eigenvalues ---   -0.19552   0.02011   0.02011   0.02011   0.02011
     Eigenvalues ---    0.02011   0.02011   0.02011   0.02011   0.06172
     Eigenvalues ---    0.07997   0.15999   0.16005   0.22489   0.24630
     Eigenvalues ---    0.24983   0.25000   0.25000   0.25460   0.29032
     Eigenvalues ---    0.29034   0.35311   0.41311   0.41460   0.44579
     Eigenvalues ---    0.44657   0.44657
 RFO step:  Lambda=-2.62103569D-01 EMin=-1.95517882D-01
 Skip linear search -- no minimum in search direction.
 Maximum step size (   0.505) exceeded in Quadratic search.
    -- Step size scaled by   0.465
 Iteration  1 RMS(Cart)=  0.03378873 RMS(Int)=  0.03134614
 Iteration  2 RMS(Cart)=  0.02914844 RMS(Int)=  0.00001646
 Iteration  3 RMS(Cart)=  0.00000865 RMS(Int)=  0.00001576
 Iteration  4 RMS(Cart)=  0.00000000 RMS(Int)=  0.00001576
 ClnCor:  largest displacement from symmetrization is 5.41D-09 for atom     8.
 Variable       Old X    -DE/DX   Delta X   Delta X   Delta X     New X
                                 (Linear)    (Quad)   (Total)
    R1        2.65572   0.00284   0.00000   0.02114   0.02112   2.67684
    R2        2.63693  -0.01835   0.00000   0.02088   0.02086   2.65779
    R3        3.29857  -0.03129   0.00000   0.00025   0.00025   3.29882
    R4        2.64264  -0.00915   0.00000   0.03341   0.03340   2.67604
    R5        3.29895  -0.03037   0.00000   0.00377   0.00377   3.30272
    R6        2.62943  -0.02116   0.00000   0.04531   0.04533   2.67476
    R7        3.13877  -0.11778   0.00000  -0.35784  -0.35784   2.78093
    R8        2.63989  -0.01000   0.00000   0.04112   0.04114   2.68103
    R9        3.12889  -0.12030   0.00000  -0.34575  -0.34575   2.78314
   R10        2.63631  -0.01763   0.00000   0.02535   0.02536   2.66167
   R11        3.29884  -0.03054   0.00000   0.00323   0.00323   3.30207
    A1        2.07937  -0.01267   0.00000  -0.00492  -0.00496   2.07440
    A2        2.10643   0.00950   0.00000   0.00102   0.00104   2.10747
    A3        2.09739   0.00317   0.00000   0.00390   0.00392   2.10131
    A4        2.08740  -0.00536   0.00000   0.00277   0.00274   2.09014
    A5        2.10169   0.00516   0.00000  -0.00368  -0.00367   2.09802
    A6        2.09409   0.00019   0.00000   0.00091   0.00093   2.09502
    A7        2.10438   0.00706   0.00000  -0.00023  -0.00022   2.10416
    A8        2.08784  -0.00482   0.00000  -0.00279  -0.00279   2.08505
    A9        2.09096  -0.00224   0.00000   0.00302   0.00301   2.09397
   A10        2.09874   0.00313   0.00000  -0.00489  -0.00484   2.09390
   A11        2.09446  -0.00002   0.00000   0.00437   0.00434   2.09880
   A12        2.08998  -0.00311   0.00000   0.00052   0.00050   2.09048
   A13        2.07794  -0.01308   0.00000  -0.00965  -0.00961   2.06833
   A14        2.10227   0.00644   0.00000   0.00578   0.00577   2.10804
   A15        2.10297   0.00664   0.00000   0.00387   0.00385   2.10682
   A16        2.11853   0.02091   0.00000   0.01691   0.01690   2.13543
    D1       -0.00000  -0.00000   0.00000  -0.00000   0.00000   0.00000
    D2        3.14159   0.00000   0.00000   0.00000   0.00000   3.14159
    D3        3.14159  -0.00000   0.00000  -0.00000   0.00000   3.14159
    D4        0.00000   0.00000   0.00000   0.00000   0.00000   0.00000
    D5       -0.00000  -0.00000   0.00000  -0.00000   0.00000   0.00000
    D6        3.14159   0.00000   0.00000   0.00000   0.00000   3.14159
    D7        0.00000   0.00000   0.00000   0.00000   0.00000   0.00000
    D8        3.14159   0.00000   0.00000   0.00000   0.00000   3.14159
    D9        3.14159  -0.00000   0.00000  -0.00000   0.00000   3.14159
   D10        0.00000   0.00000   0.00000   0.00000  -0.00000   0.00000
   D11       -0.00000  -0.00000   0.00000  -0.00000   0.00000   0.00000
   D12        3.14159   0.00000   0.00000   0.00000   0.00000   3.14159
   D13        3.14159  -0.00000   0.00000  -0.00000   0.00000   3.14159
   D14       -0.00000  -0.00000   0.00000  -0.00000   0.00000   0.00000
   D15       -0.00000   0.00000   0.00000   0.00000   0.00000   0.00000
   D16        3.14159   0.00000   0.00000   0.00000   0.00000   3.14159
   D17        3.14159  -0.00000   0.00000  -0.00000   0.00000   3.14159
   D18        0.00000  -0.00000   0.00000  -0.00000  -0.00000   0.00000
   D19        0.00000   0.00000   0.00000   0.00000  -0.00000   0.00000
   D20        3.14159  -0.00000   0.00000  -0.00000   0.00000   3.14159
         Item               Value     Threshold  Converged?
 Maximum Force            0.120300     0.000450     NO 
 RMS     Force            0.026726     0.000300     NO 
 Maximum Displacement     0.233580     0.001800     NO 
 RMS     Displacement     0.061039     0.001200     NO 
 Predicted change in Energy=-1.013901D-01
 GradGradGradGradGradGradGradGradGradGradGradGradGradGradGradGradGradGrad

                          Input orientation:                          
 ---------------------------------------------------------------------
 Center     Atomic      Atomic             Coordinates (Angstroms)
 Number     Number       Type             X           Y           Z
 ---------------------------------------------------------------------
      1          6           0       -3.176762    0.209759    0.000000
      2          6           0       -1.969983    0.951524    0.000000
      3          6           0       -0.727455    0.272214    0.000000
      4          6           0       -0.680686   -1.142433   -0.000000
      5          6           0       -1.885613   -1.891414   -0.000000
      6          6           0       -3.109947   -1.195095   -0.000000
      7         17           0       -4.722738    1.020491    0.000000
      8          1           0        0.615338   -1.841993   -0.000000
      9         17           0       -1.852575   -3.638482   -0.000000
     10         17           0       -2.011759    2.698749    0.000000
     11          1           0        0.522311    1.049199    0.000000
 ---------------------------------------------------------------------
                    Distance matrix (angstroms):
                    1          2          3          4          5
     1  C    0.000000
     2  C    1.416521   0.000000
     3  C    2.450103   1.416099   0.000000
     4  C    2.838806   2.459052   1.415420   0.000000
     5  C    2.466170   2.844189   2.454102   1.418739   0.000000
     6  C    1.406442   2.430533   2.798082   2.429831   1.408493
     7  Cl   1.745660   2.753619   4.064751   4.584367   4.065522
     8  H    4.311578   3.806260   2.504589   1.472774   2.501439
     9  Cl   4.069697   4.591508   4.069330   2.757461   1.747381
    10  Cl   2.748146   1.747725   2.745452   4.065272   4.591896
    11  H    3.793125   2.494207   1.471605   2.500090   3.800697
                    6          7          8          9         10
     6  C    0.000000
     7  Cl   2.740423   0.000000
     8  H    3.781035   6.057134   0.000000
     9  Cl   2.747931   5.472099   3.052535   0.000000
    10  Cl   4.045743   3.188410   5.245949   6.339231   0.000000
    11  H    4.269678   5.245128   2.892688   5.254945   3.023661
                   11
    11  H    0.000000
 Stoichiometry    C6H2Cl3(2)
 Framework group  CS[SG(C6H2Cl3)]
 Deg. of freedom    19
 Full point group                 CS      NOp   2
 Largest Abelian subgroup         CS      NOp   2
 Largest concise Abelian subgroup C1      NOp   1
                         Standard orientation:                         
 ---------------------------------------------------------------------
 Center     Atomic      Atomic             Coordinates (Angstroms)
 Number     Number       Type             X           Y           Z
 ---------------------------------------------------------------------
      1          6           0       -0.000000    0.864469    0.000000
      2          6           0       -1.208052    0.124778    0.000000
      3          6           0       -1.165477   -1.290680   -0.000000
      4          6           0        0.074426   -1.973361   -0.000000
      5          6           0        1.288072   -1.238592   -0.000000
      6          6           0        1.222090    0.168355    0.000000
      7         17           0       -0.022237    2.609987    0.000000
      8          1           0        0.110814   -3.445685   -0.000000
      9         17           0        2.830536   -2.059655   -0.000000
     10         17           0       -2.746697    0.953703    0.000000
     11          1           0       -2.424404   -2.052733   -0.000000
 ---------------------------------------------------------------------
 Rotational constants (GHZ):           1.8277506           0.5782082           0.4392512
 Standard basis: VSTO-6G (5D, 7F)
 There are    29 symmetry adapted cartesian basis functions of A'  symmetry.
 There are     9 symmetry adapted cartesian basis functions of A"  symmetry.
 There are    29 symmetry adapted basis functions of A'  symmetry.
 There are     9 symmetry adapted basis functions of A"  symmetry.
    38 basis functions,   228 primitive gaussians,    38 cartesian basis functions
    24 alpha electrons       23 beta electrons
       nuclear repulsion energy       239.7549878493 Hartrees.
 Integral buffers will be    131072 words long.
 Regular integral format.
 Two-electron integral symmetry is turned off.
 Do NDO integrals.
 One-electron integrals computed using PRISM.
 NBasis=    38 RedAO= T EigKep=  1.00D+00  NBF=    29     9
 NBsUse=    38 1.00D-06 EigRej= -1.00D+00 NBFU=    29     9
 Initial guess from the checkpoint file:  "geometry_chks/_245ClBzNeutralRadical.chk"
 B after Tr=    -0.000000   -0.000000   -0.000000
         Rot=    0.999993    0.000000    0.000000    0.003691 Ang=   0.42 deg.
 Initial guess orbital symmetries:
 Alpha Orbitals:
       Occupied  (A') (A') (A') (A') (A') (A') (A') (A') (A') (A')
                 (A') (A") (A') (A") (A") (A') (A') (A') (A') (A")
                 (A') (A') (A") (A")
       Virtual   (A") (A") (A') (A') (A') (A') (A') (A") (A') (A')
                 (A') (A') (A') (A')
 Beta  Orbitals:
       Occupied  (A') (A') (A') (A') (A') (A') (A') (A') (A') (A')
                 (A') (A") (A') (A") (A") (A') (A') (A') (A") (A')
                 (A') (A") (A")
       Virtual   (A') (A") (A') (A') (A") (A') (A') (A') (A") (A')
                 (A') (A') (A') (A') (A')
 Initial guess <Sx>= 0.0000 <Sy>= 0.0000 <Sz>= 0.5000 <S**2>= 1.3870 S= 0.7795
 Keep J ints in memory in canonical form, NReq=863588.
 Overlap will be assumed to be unity.
 Requested convergence on RMS density matrix=1.00D-08 within**** cycles.
 Requested convergence on MAX density matrix=1.00D-06.
 Requested convergence on             energy=1.00D-06.
 No special actions if energy rises.
 Fock symm off for IB=2 I1=    1 I=   30 J=    6 Cut=1.00D-07 Err=3.46D-03
 Fock matrix is not symmetric: symmetry in diagonalization turned off.
 SCF Done:  E(UAM1) =  0.209116936064     A.U. after   18 cycles
            NFock= 17  Conv=0.87D-08     -V/T= 1.0019
 <Sx>= 0.0000 <Sy>= 0.0000 <Sz>= 0.5000 <S**2>= 1.3927 S= 0.7817
 <L.S>=  0.00000000000    
 Annihilation of the first spin contaminant:
 S**2 before annihilation     1.3927,   after     1.1324
 Calling FoFJK, ICntrl=      2127 FMM=F ISym2X=1 I1Cent= 0 IOpClX= 1 NMat=1 NMatS=1 NMatT=0.
 ***** Axes restored to original set *****
 -------------------------------------------------------------------
 Center     Atomic                   Forces (Hartrees/Bohr)
 Number     Number              X              Y              Z
 -------------------------------------------------------------------
      1        6          -0.029374935   -0.007151252   -0.000000000
      2        6           0.015046399    0.011659678   -0.000000000
      3        6           0.072514040    0.028404906   -0.000000000
      4        6           0.072808100   -0.023837198   -0.000000000
      5        6          -0.006225231   -0.014385342    0.000000000
      6        6           0.047798812    0.027326590    0.000000000
      7       17           0.028750285   -0.017381331    0.000000000
      8        1          -0.103864100    0.055488977    0.000000000
      9       17          -0.000382062    0.034746363   -0.000000000
     10       17           0.002619710   -0.033198121    0.000000000
     11        1          -0.099691018   -0.061673271    0.000000000
 -------------------------------------------------------------------
 Cartesian Forces:  Max     0.103864100 RMS     0.037955987

 GradGradGradGradGradGradGradGradGradGradGradGradGradGradGradGradGradGrad
 Berny optimization.
 Using GEDIIS/GDIIS optimizer.
 FormGI is forming the generalized inverse of G from B-inverse, IUseBI=4.
 Internal  Forces:  Max     0.117756200 RMS     0.028566908
 Search for a local minimum.
 Step number   3 out of a maximum of   57
 All quantities printed in internal units (Hartrees-Bohrs-Radians)
 Mixed Optimization -- RFO/linear search
 Update second derivatives using D2CorX and points    2    3
 DE= -8.06D-02 DEPred=-1.01D-01 R= 7.95D-01
 TightC=F SS=  1.41D+00  RLast= 5.05D-01 DXNew= 8.4853D-01 1.5136D+00
 Trust test= 7.95D-01 RLast= 5.05D-01 DXMaxT set to 8.49D-01
 ITU=  1  1  0
 Use linear search instead of GDIIS.
     Eigenvalues ---    0.00532   0.02011   0.02011   0.02011   0.02011
     Eigenvalues ---    0.02011   0.02011   0.02011   0.02011   0.06442
     Eigenvalues ---    0.15582   0.16001   0.16597   0.22523   0.24743
     Eigenvalues ---    0.25000   0.25000   0.25015   0.26909   0.29032
     Eigenvalues ---    0.29049   0.40607   0.41354   0.44008   0.44654
     Eigenvalues ---    0.44657   0.76582
 RFO step:  Lambda=-1.77601965D-01 EMin= 5.31887011D-03
 Skip linear search -- no minimum in search direction.
 Maximum step size (   0.849) exceeded in Quadratic search.
    -- Step size scaled by   0.886
 Iteration  1 RMS(Cart)=  0.06378069 RMS(Int)=  0.07693829
 Iteration  2 RMS(Cart)=  0.03833509 RMS(Int)=  0.03569475
 Iteration  3 RMS(Cart)=  0.03316148 RMS(Int)=  0.00014648
 Iteration  4 RMS(Cart)=  0.00001191 RMS(Int)=  0.00014617
 Iteration  5 RMS(Cart)=  0.00000000 RMS(Int)=  0.00014617
 ClnCor:  largest displacement from symmetrization is 9.03D-09 for atom     9.
 Variable       Old X    -DE/DX   Delta X   Delta X   Delta X     New X
                                 (Linear)    (Quad)   (Total)
    R1        2.67684  -0.01418   0.00000   0.00601   0.00600   2.68284
    R2        2.65779  -0.03559   0.00000  -0.05379  -0.05359   2.60420
    R3        3.29882  -0.03353   0.00000  -0.11327  -0.11327   3.18555
    R4        2.67604  -0.02864   0.00000  -0.02611  -0.02632   2.64972
    R5        3.30272  -0.03325   0.00000  -0.10983  -0.10983   3.19289
    R6        2.67476  -0.04320   0.00000  -0.05879  -0.05899   2.61577
    R7        2.78093  -0.11723   0.00000  -0.56586  -0.56586   2.21507
    R8        2.68103  -0.03247   0.00000  -0.02944  -0.02943   2.65160
    R9        2.78314  -0.11776   0.00000  -0.57989  -0.57989   2.20325
   R10        2.66167  -0.03706   0.00000  -0.05287  -0.05266   2.60901
   R11        3.30207  -0.03475   0.00000  -0.11151  -0.11151   3.19056
    A1        2.07440  -0.01246   0.00000  -0.04645  -0.04629   2.02812
    A2        2.10747   0.00960   0.00000   0.03534   0.03526   2.14273
    A3        2.10131   0.00287   0.00000   0.01111   0.01103   2.11233
    A4        2.09014  -0.00400   0.00000  -0.01720  -0.01746   2.07268
    A5        2.09802   0.00501   0.00000   0.01826   0.01839   2.11641
    A6        2.09502  -0.00102   0.00000  -0.00106  -0.00093   2.09409
    A7        2.10416   0.00546   0.00000   0.02608   0.02565   2.12981
    A8        2.08505  -0.00309   0.00000  -0.01798  -0.01776   2.06728
    A9        2.09397  -0.00237   0.00000  -0.00810  -0.00788   2.08609
   A10        2.09390   0.00318   0.00000   0.00875   0.00854   2.10243
   A11        2.09880  -0.00089   0.00000   0.00183   0.00193   2.10074
   A12        2.09048  -0.00229   0.00000  -0.01058  -0.01047   2.08001
   A13        2.06833  -0.00837   0.00000  -0.05026  -0.05007   2.01826
   A14        2.10804   0.00373   0.00000   0.02458   0.02448   2.13252
   A15        2.10682   0.00464   0.00000   0.02569   0.02559   2.13240
   A16        2.13543   0.01619   0.00000   0.07909   0.07963   2.21506
    D1        0.00000   0.00000   0.00000   0.00000  -0.00000   0.00000
    D2        3.14159   0.00000   0.00000  -0.00000   0.00000   3.14159
    D3        3.14159  -0.00000   0.00000   0.00000   0.00000   3.14159
    D4       -0.00000   0.00000   0.00000  -0.00000   0.00000   0.00000
    D5       -0.00000  -0.00000   0.00000   0.00000   0.00000   0.00000
    D6        3.14159   0.00000   0.00000   0.00000   0.00000   3.14159
    D7       -0.00000   0.00000   0.00000  -0.00000   0.00000   0.00000
    D8        3.14159   0.00000   0.00000  -0.00000   0.00000   3.14159
    D9        3.14159  -0.00000   0.00000   0.00000   0.00000   3.14159
   D10        0.00000   0.00000   0.00000  -0.00000  -0.00000   0.00000
   D11        0.00000  -0.00000   0.00000   0.00000  -0.00000   0.00000
   D12        3.14159   0.00000   0.00000  -0.00000   0.00000   3.14159
   D13        3.14159  -0.00000   0.00000   0.00000   0.00000   3.14159
   D14       -0.00000  -0.00000   0.00000   0.00000   0.00000   0.00000
   D15       -0.00000   0.00000   0.00000  -0.00000   0.00000   0.00000
   D16        3.14159   0.00000   0.00000  -0.00000   0.00000   3.14159
   D17        3.14159  -0.00000   0.00000   0.00000   0.00000   3.14159
   D18        0.00000  -0.00000   0.00000   0.00000  -0.00000   0.00000
   D19        0.00000   0.00000   0.00000  -0.00000   0.00000   0.00000
   D20        3.14159   0.00000   0.00000   0.00000   0.00000   3.14159
         Item               Value     Threshold  Converged?
 Maximum Force            0.117756     0.000450     NO 
 RMS     Force            0.028567     0.000300     NO 
 Maximum Displacement     0.453892     0.001800     NO 
 RMS     Displacement     0.127998     0.001200     NO 
 Predicted change in Energy=-1.515721D-01
 GradGradGradGradGradGradGradGradGradGradGradGradGradGradGradGradGradGrad

                          Input orientation:                          
 ---------------------------------------------------------------------
 Center     Atomic      Atomic             Coordinates (Angstroms)
 Number     Number       Type             X           Y           Z
 ---------------------------------------------------------------------
      1          6           0       -3.135210    0.214949    0.000000
      2          6           0       -1.924150    0.955806    0.000000
      3          6           0       -0.707247    0.259217    0.000000
      4          6           0       -0.653118   -1.123930   -0.000000
      5          6           0       -1.833874   -1.882013   -0.000000
      6          6           0       -3.009031   -1.157348   -0.000000
      7         17           0       -4.653222    0.947950    0.000000
      8          1           0        0.375149   -1.673485   -0.000000
      9         17           0       -1.818624   -3.570316   -0.000000
     10         17           0       -1.929883    2.645399    0.000000
     11          1           0        0.289339    0.876292    0.000000
 ---------------------------------------------------------------------
                    Distance matrix (angstroms):
                    1          2          3          4          5
     1  C    0.000000
     2  C    1.419696   0.000000
     3  C    2.428366   1.402172   0.000000
     4  C    2.820173   2.437380   1.384206   0.000000
     5  C    2.467940   2.839255   2.419536   1.403166   0.000000
     6  C    1.378085   2.375371   2.702752   2.356151   1.380629
     7  Cl   1.685720   2.729084   4.005630   4.504833   3.994674
     8  H    3.986075   3.492842   2.215157   1.165908   2.218843
     9  Cl   4.007696   4.527352   3.987541   2.709836   1.688372
    10  Cl   2.712914   1.689603   2.681176   3.979695   4.528430
    11  H    3.487823   2.214917   1.172163   2.211134   3.480845
                    6          7          8          9         10
     6  C    0.000000
     7  Cl   2.671262   0.000000
     8  H    3.423313   5.670664   0.000000
     9  Cl   2.690630   5.333824   2.900104   0.000000
    10  Cl   3.952903   3.209036   4.895501   6.216711   0.000000
    11  H    3.874911   4.943081   2.551220   4.920958   2.838078
                   11
    11  H    0.000000
 Stoichiometry    C6H2Cl3(2)
 Framework group  CS[SG(C6H2Cl3)]
 Deg. of freedom    19
 Full point group                 CS      NOp   2
 Largest Abelian subgroup         CS      NOp   2
 Largest concise Abelian subgroup C1      NOp   1
                         Standard orientation:                         
 ---------------------------------------------------------------------
 Center     Atomic      Atomic             Coordinates (Angstroms)
 Number     Number       Type             X           Y           Z
 ---------------------------------------------------------------------
      1          6           0        0.000000    0.877046    0.000000
      2          6           0       -1.215223    0.143038    0.000000
      3          6           0       -1.157085   -1.257928   -0.000000
      4          6           0        0.045844   -1.942754   -0.000000
      5          6           0        1.262409   -1.243579   -0.000000
      6          6           0        1.160127    0.133256   -0.000000
      7         17           0        0.048163    2.562078    0.000000
      8          1           0        0.060302   -3.108573   -0.000000
      9         17           0        2.754131   -2.034379   -0.000000
     10         17           0       -2.712472    0.925984    0.000000
     11          1           0       -2.163685   -1.858530   -0.000000
 ---------------------------------------------------------------------
 Rotational constants (GHZ):           1.8620789           0.6054147           0.4568725
 Standard basis: VSTO-6G (5D, 7F)
 There are    29 symmetry adapted cartesian basis functions of A'  symmetry.
 There are     9 symmetry adapted cartesian basis functions of A"  symmetry.
 There are    29 symmetry adapted basis functions of A'  symmetry.
 There are     9 symmetry adapted basis functions of A"  symmetry.
    38 basis functions,   228 primitive gaussians,    38 cartesian basis functions
    24 alpha electrons       23 beta electrons
       nuclear repulsion energy       243.5148980452 Hartrees.
 Integral buffers will be    131072 words long.
 Regular integral format.
 Two-electron integral symmetry is turned off.
 Do NDO integrals.
 One-electron integrals computed using PRISM.
 NBasis=    38 RedAO= T EigKep=  1.00D+00  NBF=    29     9
 NBsUse=    38 1.00D-06 EigRej= -1.00D+00 NBFU=    29     9
 Initial guess from the checkpoint file:  "geometry_chks/_245ClBzNeutralRadical.chk"
 B after Tr=    -0.000000   -0.000000    0.000000
         Rot=    0.999990   -0.000000    0.000000    0.004402 Ang=   0.50 deg.
 Initial guess orbital symmetries:
 Alpha Orbitals:
       Occupied  (A') (A') (A') (A') (A') (A') (A') (A') (A') (A')
                 (A') (A') (A") (A") (A') (A') (A") (A') (A') (A')
                 (A") (A') (A") (A")
       Virtual   (A") (A") (A') (A') (A') (A') (A') (A") (A') (A')
                 (A') (A') (A') (A')
 Beta  Orbitals:
       Occupied  (A') (A') (A') (A') (A') (A') (A') (A') (A') (A')
                 (A') (A") (A') (A") (A') (A") (A') (A') (A') (A')
                 (A") (A") (A")
       Virtual   (A') (A") (A") (A') (A') (A') (A') (A') (A") (A')
                 (A') (A') (A') (A') (A')
 Initial guess <Sx>= 0.0000 <Sy>= 0.0000 <Sz>= 0.5000 <S**2>= 1.3927 S= 0.7817
 Keep J ints in memory in canonical form, NReq=863588.
 Overlap will be assumed to be unity.
 Requested convergence on RMS density matrix=1.00D-08 within**** cycles.
 Requested convergence on MAX density matrix=1.00D-06.
 Requested convergence on             energy=1.00D-06.
 No special actions if energy rises.
 Fock symm off for IB=2 I1=    1 I=   30 J=   13 Cut=1.00D-07 Err=1.67D-03
 Fock matrix is not symmetric: symmetry in diagonalization turned off.
 SCF Done:  E(UAM1) =  0.950706312476E-01 A.U. after   17 cycles
            NFock= 16  Conv=0.46D-08     -V/T= 1.0008
 <Sx>= 0.0000 <Sy>= 0.0000 <Sz>= 0.5000 <S**2>= 1.2805 S= 0.7371
 <L.S>=  0.00000000000    
 Annihilation of the first spin contaminant:
 S**2 before annihilation     1.2805,   after     0.9949
 Calling FoFJK, ICntrl=      2127 FMM=F ISym2X=1 I1Cent= 0 IOpClX= 1 NMat=1 NMatS=1 NMatT=0.
 ***** Axes restored to original set *****
 -------------------------------------------------------------------
 Center     Atomic                   Forces (Hartrees/Bohr)
 Number     Number              X              Y              Z
 -------------------------------------------------------------------
      1        6          -0.007887299    0.001077538   -0.000000000
      2        6          -0.004281727    0.000809433   -0.000000000
      3        6           0.037599293    0.030257108   -0.000000000
      4        6           0.041661037   -0.025319262   -0.000000000
      5        6          -0.011744855   -0.008525170   -0.000000000
      6        6           0.009525961    0.004115354    0.000000000
      7       17           0.002275043   -0.000711424    0.000000000
      8        1          -0.033045857    0.018501531    0.000000000
      9       17           0.000014659    0.003496207    0.000000000
     10       17          -0.000487586   -0.001970829    0.000000000
     11        1          -0.033628670   -0.021730485    0.000000000
 -------------------------------------------------------------------
 Cartesian Forces:  Max     0.041661037 RMS     0.015730717

 GradGradGradGradGradGradGradGradGradGradGradGradGradGradGradGradGradGrad
 Berny optimization.
 Using GEDIIS/GDIIS optimizer.
 FormGI is forming the generalized inverse of G from B-inverse, IUseBI=4.
 Internal  Forces:  Max     0.040031305 RMS     0.008462428
 Search for a local minimum.
 Step number   4 out of a maximum of   57
 All quantities printed in internal units (Hartrees-Bohrs-Radians)
 Mixed Optimization -- RFO/linear search
 Update second derivatives using D2CorX and points    3    4
 DE= -1.14D-01 DEPred=-1.52D-01 R= 7.52D-01
 TightC=F SS=  1.41D+00  RLast= 8.49D-01 DXNew= 1.4270D+00 2.5456D+00
 Trust test= 7.52D-01 RLast= 8.49D-01 DXMaxT set to 1.43D+00
 ITU=  1  1  1  0
 Use linear search instead of GDIIS.
     Eigenvalues ---    0.02011   0.02011   0.02011   0.02011   0.02011
     Eigenvalues ---    0.02011   0.02011   0.02011   0.05384   0.06868
     Eigenvalues ---    0.16000   0.16048   0.18441   0.22522   0.24720
     Eigenvalues ---    0.25000   0.25001   0.25022   0.26728   0.29032
     Eigenvalues ---    0.29048   0.40598   0.41147   0.43621   0.44656
     Eigenvalues ---    0.44666   0.61826
 RFO step:  Lambda=-1.01318834D-02 EMin= 2.01065677D-02
 Quartic linear search produced a step of  0.20857.
 Iteration  1 RMS(Cart)=  0.04239071 RMS(Int)=  0.01929742
 Iteration  2 RMS(Cart)=  0.01816285 RMS(Int)=  0.00010200
 Iteration  3 RMS(Cart)=  0.00001115 RMS(Int)=  0.00010159
 Iteration  4 RMS(Cart)=  0.00000000 RMS(Int)=  0.00010159
 ClnCor:  largest displacement from symmetrization is 2.17D-09 for atom     8.
 Variable       Old X    -DE/DX   Delta X   Delta X   Delta X     New X
                                 (Linear)    (Quad)   (Total)
    R1        2.68284  -0.00055   0.00125  -0.00461  -0.00348   2.67936
    R2        2.60420  -0.00175  -0.01118   0.05021   0.03889   2.64309
    R3        3.18555  -0.00236  -0.02362   0.10221   0.07859   3.26414
    R4        2.64972   0.00562  -0.00549   0.06114   0.05568   2.70540
    R5        3.19289  -0.00197  -0.02291   0.10404   0.08113   3.27402
    R6        2.61577   0.00998  -0.01230   0.12082   0.10867   2.72444
    R7        2.21507  -0.04003  -0.11802  -0.20822  -0.32624   1.88883
    R8        2.65160   0.00748  -0.00614   0.07610   0.07009   2.72169
    R9        2.20325  -0.03787  -0.12095  -0.11737  -0.23832   1.96493
   R10        2.60901  -0.00310  -0.01098   0.04955   0.03854   2.64755
   R11        3.19056  -0.00350  -0.02326   0.09504   0.07178   3.26234
    A1        2.02812  -0.00291  -0.00965   0.02578   0.01585   2.04397
    A2        2.14273   0.00090   0.00735  -0.02987  -0.02238   2.12036
    A3        2.11233   0.00201   0.00230   0.00409   0.00653   2.11886
    A4        2.07268   0.00168  -0.00364   0.03638   0.03264   2.10533
    A5        2.11641  -0.00163   0.00384  -0.03392  -0.03004   2.08637
    A6        2.09409  -0.00005  -0.00019  -0.00246  -0.00260   2.09148
    A7        2.12981  -0.00113   0.00535  -0.03476  -0.02921   2.10060
    A8        2.06728   0.00142  -0.00371   0.02942   0.02562   2.09290
    A9        2.08609  -0.00029  -0.00164   0.00534   0.00359   2.08968
   A10        2.10243  -0.00341   0.00178  -0.02999  -0.02791   2.07453
   A11        2.10074   0.00089   0.00040   0.00079   0.00104   2.10178
   A12        2.08001   0.00252  -0.00218   0.02920   0.02686   2.10688
   A13        2.01826  -0.00202  -0.01044   0.04398   0.03366   2.05192
   A14        2.13252   0.00094   0.00511  -0.02138  -0.01634   2.11618
   A15        2.13240   0.00108   0.00534  -0.02260  -0.01732   2.11509
   A16        2.21506   0.00779   0.01661  -0.04139  -0.02503   2.19003
    D1        0.00000   0.00000   0.00000   0.00000   0.00000   0.00000
    D2        3.14159   0.00000   0.00000  -0.00000   0.00000   3.14159
    D3        3.14159  -0.00000   0.00000   0.00000   0.00000   3.14159
    D4        0.00000  -0.00000   0.00000  -0.00000   0.00000   0.00000
    D5       -0.00000  -0.00000   0.00000   0.00000   0.00000   0.00000
    D6        3.14159   0.00000   0.00000  -0.00000   0.00000   3.14159
    D7       -0.00000  -0.00000   0.00000  -0.00000   0.00000   0.00000
    D8        3.14159   0.00000   0.00000  -0.00000   0.00000   3.14159
    D9        3.14159  -0.00000   0.00000   0.00000   0.00000   3.14159
   D10        0.00000  -0.00000   0.00000  -0.00000   0.00000   0.00000
   D11        0.00000   0.00000   0.00000   0.00000   0.00000   0.00000
   D12        3.14159   0.00000   0.00000  -0.00000   0.00000   3.14159
   D13        3.14159  -0.00000   0.00000   0.00000   0.00000   3.14159
   D14       -0.00000   0.00000   0.00000   0.00000   0.00000   0.00000
   D15       -0.00000  -0.00000   0.00000  -0.00000   0.00000   0.00000
   D16        3.14159   0.00000   0.00000  -0.00000   0.00000   3.14159
   D17        3.14159  -0.00000   0.00000   0.00000   0.00000   3.14159
   D18        0.00000   0.00000   0.00000   0.00000  -0.00000   0.00000
   D19        0.00000   0.00000   0.00000  -0.00000  -0.00000   0.00000
   D20        3.14159  -0.00000   0.00000   0.00000   0.00000   3.14159
         Item               Value     Threshold  Converged?
 Maximum Force            0.040031     0.000450     NO 
 RMS     Force            0.008462     0.000300     NO 
 Maximum Displacement     0.167969     0.001800     NO 
 RMS     Displacement     0.051873     0.001200     NO 
 Predicted change in Energy=-1.662875D-02
 GradGradGradGradGradGradGradGradGradGradGradGradGradGradGradGradGradGrad

                          Input orientation:                          
 ---------------------------------------------------------------------
 Center     Atomic      Atomic             Coordinates (Angstroms)
 Number     Number       Type             X           Y           Z
 ---------------------------------------------------------------------
      1          6           0       -3.120337    0.219771    0.000000
      2          6           0       -1.910617    0.959290    0.000000
      3          6           0       -0.645802    0.288599    0.000000
      4          6           0       -0.584930   -1.151825   -0.000000
      5          6           0       -1.815810   -1.899669   -0.000000
      6          6           0       -3.014799   -1.174903   -0.000000
      7         17           0       -4.658359    1.005951    0.000000
      8          1           0        0.333125   -1.640031   -0.000000
      9         17           0       -1.814807   -3.626023   -0.000000
     10         17           0       -1.967987    2.690878    0.000000
     11          1           0        0.200454    0.820483    0.000000
 ---------------------------------------------------------------------
                    Distance matrix (angstroms):
                    1          2          3          4          5
     1  C    0.000000
     2  C    1.417854   0.000000
     3  C    2.475492   1.431637   0.000000
     4  C    2.882631   2.492841   1.441710   0.000000
     5  C    2.488738   2.860531   2.481418   1.440255   0.000000
     6  C    1.398662   2.402915   2.784598   2.429979   1.401021
     7  Cl   1.727308   2.748139   4.076176   4.609644   4.064814
     8  H    3.922406   3.433781   2.162849   1.039794   2.164564
     9  Cl   4.061348   4.586315   4.085442   2.763015   1.726355
    10  Cl   2.726587   1.732537   2.742101   4.084019   4.593068
    11  H    3.374686   2.115629   0.999525   2.122929   3.385933
                    6          7          8          9         10
     6  C    0.000000
     7  Cl   2.730827   0.000000
     8  H    3.380081   5.649437   0.000000
     9  Cl   2.729097   5.435161   2.925368   0.000000
[...]
    R1        2.68349  -0.00000  -0.00004   0.00004   0.00001   2.68350
    R2        2.59843  -0.00005  -0.00005  -0.00004  -0.00009   2.59835
    R3        3.17263   0.00001  -0.00008   0.00013   0.00005   3.17267
    R4        2.66210  -0.00002  -0.00005   0.00002  -0.00003   2.66208
    R5        3.18924  -0.00006  -0.00014  -0.00006  -0.00019   3.18905
    R6        2.64398  -0.00002  -0.00009   0.00004  -0.00006   2.64392
    R7        2.08162   0.00022   0.00021   0.00038   0.00059   2.08220
    R8        2.67282  -0.00002  -0.00009   0.00007  -0.00002   2.67280
    R9        2.07758   0.00006   0.00023  -0.00006   0.00018   2.07776
   R10        2.59718  -0.00003  -0.00006   0.00003  -0.00003   2.59715
   R11        3.17701  -0.00004  -0.00010  -0.00002  -0.00012   3.17689
    A1        2.00399  -0.00001  -0.00003   0.00001  -0.00001   2.00398
    A2        2.15097  -0.00004   0.00006  -0.00022  -0.00016   2.15081
    A3        2.12822   0.00005  -0.00004   0.00021   0.00017   2.12839
    A4        2.08618   0.00001  -0.00003   0.00005   0.00002   2.08620
    A5        2.10839  -0.00003   0.00005  -0.00017  -0.00012   2.10827
    A6        2.08862   0.00002  -0.00002   0.00012   0.00010   2.08871
    A7        2.12756  -0.00002   0.00004  -0.00008  -0.00005   2.12751
    A8        2.07838  -0.00001  -0.00001  -0.00008  -0.00009   2.07829
    A9        2.07725   0.00003  -0.00003   0.00017   0.00014   2.07739
   A10        2.08780   0.00001  -0.00000   0.00004   0.00004   2.08784
   A11        2.09862   0.00002  -0.00001   0.00017   0.00016   2.09878
   A12        2.09677  -0.00003   0.00001  -0.00021  -0.00020   2.09657
   A13        2.01093  -0.00000  -0.00002  -0.00001  -0.00003   2.01090
   A14        2.13226  -0.00003   0.00003  -0.00014  -0.00011   2.13216
   A15        2.13999   0.00004  -0.00002   0.00015   0.00013   2.14013
   A16        2.24991   0.00001   0.00004  -0.00002   0.00002   2.24993
    D1        0.00000   0.00000   0.00000   0.00000  -0.00000   0.00000
    D2        3.14159   0.00000   0.00000   0.00000   0.00000   3.14159
    D3        3.14159  -0.00000   0.00000  -0.00000   0.00000   3.14159
    D4       -0.00000  -0.00000   0.00000  -0.00000   0.00000   0.00000
    D5        0.00000  -0.00000   0.00000  -0.00000   0.00000   0.00000
    D6        3.14159   0.00000   0.00000   0.00000   0.00000   3.14159
    D7       -0.00000   0.00000   0.00000   0.00000   0.00000   0.00000
    D8        3.14159   0.00000   0.00000   0.00000   0.00000   3.14159
    D9        3.14159  -0.00000   0.00000  -0.00000   0.00000   3.14159
   D10        0.00000  -0.00000   0.00000  -0.00000  -0.00000   0.00000
   D11        0.00000  -0.00000   0.00000  -0.00000  -0.00000   0.00000
   D12        3.14159   0.00000   0.00000   0.00000   0.00000   3.14159
   D13        3.14159  -0.00000   0.00000  -0.00000   0.00000   3.14159
   D14       -0.00000   0.00000   0.00000   0.00000   0.00000   0.00000
   D15       -0.00000  -0.00000   0.00000  -0.00000   0.00000   0.00000
   D16        3.14159   0.00000   0.00000   0.00000   0.00000   3.14159
   D17        3.14159  -0.00000   0.00000  -0.00000   0.00000   3.14159
   D18        0.00000   0.00000   0.00000   0.00000   0.00000   0.00000
   D19       -0.00000   0.00000   0.00000   0.00000   0.00000   0.00000
   D20        3.14159  -0.00000   0.00000  -0.00000   0.00000   3.14159
         Item               Value     Threshold  Converged?
 Maximum Force            0.000216     0.000450     YES
 RMS     Force            0.000039     0.000300     YES
 Maximum Displacement     0.000446     0.001800     YES
 RMS     Displacement     0.000152     0.001200     YES
 Predicted change in Energy=-1.036570D-07
 Optimization completed.
    -- Stationary point found.
                           ----------------------------
                           !   Optimized Parameters   !
                           ! (Angstroms and Degrees)  !
 --------------------------                            --------------------------
 ! Name  Definition              Value          Derivative Info.                !
 --------------------------------------------------------------------------------
 ! R1    R(1,2)                  1.42           -DE/DX =    0.0                 !
 ! R2    R(1,6)                  1.375          -DE/DX =    0.0                 !
 ! R3    R(1,7)                  1.6789         -DE/DX =    0.0                 !
 ! R4    R(2,3)                  1.4087         -DE/DX =    0.0                 !
 ! R5    R(2,10)                 1.6877         -DE/DX =   -0.0001              !
 ! R6    R(3,4)                  1.3991         -DE/DX =    0.0                 !
 ! R7    R(3,11)                 1.1015         -DE/DX =    0.0002              !
 ! R8    R(4,5)                  1.4144         -DE/DX =    0.0                 !
 ! R9    R(4,8)                  1.0994         -DE/DX =    0.0001              !
 ! R10   R(5,6)                  1.3744         -DE/DX =    0.0                 !
 ! R11   R(5,9)                  1.6812         -DE/DX =    0.0                 !
 ! A1    A(2,1,6)              114.8202         -DE/DX =    0.0                 !
 ! A2    A(2,1,7)              123.2415         -DE/DX =    0.0                 !
 ! A3    A(6,1,7)              121.9383         -DE/DX =    0.0                 !
 ! A4    A(1,2,3)              119.5293         -DE/DX =    0.0                 !
 ! A5    A(1,2,10)             120.8018         -DE/DX =    0.0                 !
 ! A6    A(3,2,10)             119.6689         -DE/DX =    0.0                 !
 ! A7    A(2,3,4)              121.9001         -DE/DX =    0.0                 !
 ! A8    A(2,3,11)             119.0823         -DE/DX =    0.0                 !
 ! A9    A(4,3,11)             119.0176         -DE/DX =    0.0                 !
 ! A10   A(3,4,5)              119.622          -DE/DX =    0.0                 !
 ! A11   A(3,4,8)              120.2419         -DE/DX =    0.0                 !
 ! A12   A(5,4,8)              120.1361         -DE/DX =    0.0                 !
 ! A13   A(4,5,6)              115.2178         -DE/DX =    0.0                 !
 ! A14   A(4,5,9)              122.1698         -DE/DX =    0.0                 !
 ! A15   A(6,5,9)              122.6125         -DE/DX =    0.0                 !
 ! A16   A(1,6,5)              128.9106         -DE/DX =    0.0                 !
 ! D1    D(6,1,2,3)              0.0            -DE/DX =    0.0                 !
 ! D2    D(6,1,2,10)           180.0            -DE/DX =    0.0                 !
 ! D3    D(7,1,2,3)            180.0            -DE/DX =    0.0                 !
 ! D4    D(7,1,2,10)             0.0            -DE/DX =    0.0                 !
 ! D5    D(2,1,6,5)              0.0            -DE/DX =    0.0                 !
 ! D6    D(7,1,6,5)            180.0            -DE/DX =    0.0                 !
 ! D7    D(1,2,3,4)              0.0            -DE/DX =    0.0                 !
 ! D8    D(1,2,3,11)           180.0            -DE/DX =    0.0                 !
 ! D9    D(10,2,3,4)           180.0            -DE/DX =    0.0                 !
 ! D10   D(10,2,3,11)            0.0            -DE/DX =    0.0                 !
 ! D11   D(2,3,4,5)              0.0            -DE/DX =    0.0                 !
 ! D12   D(2,3,4,8)            180.0            -DE/DX =    0.0                 !
 ! D13   D(11,3,4,5)           180.0            -DE/DX =    0.0                 !
 ! D14   D(11,3,4,8)             0.0            -DE/DX =    0.0                 !
 ! D15   D(3,4,5,6)              0.0            -DE/DX =    0.0                 !
 ! D16   D(3,4,5,9)            180.0            -DE/DX =    0.0                 !
 ! D17   D(8,4,5,6)            180.0            -DE/DX =    0.0                 !
 ! D18   D(8,4,5,9)              0.0            -DE/DX =    0.0                 !
 ! D19   D(4,5,6,1)              0.0            -DE/DX =    0.0                 !
 ! D20   D(9,5,6,1)            180.0            -DE/DX =    0.0                 !
 --------------------------------------------------------------------------------
 GradGradGradGradGradGradGradGradGradGradGradGradGradGradGradGradGradGrad

                          Input orientation:                          
 ---------------------------------------------------------------------
 Center     Atomic      Atomic             Coordinates (Angstroms)
 Number     Number       Type             X           Y           Z
 ---------------------------------------------------------------------
      1          6           0       -3.135444    0.220207    0.000000
      2          6           0       -1.920101    0.954689    0.000000
      3          6           0       -0.691889    0.264761    0.000000
      4          6           0       -0.629013   -1.132959   -0.000000
      5          6           0       -1.825894   -1.886608   -0.000000
      6          6           0       -2.983934   -1.146452   -0.000000
      7         17           0       -4.649359    0.945950    0.000000
      8          1           0        0.344697   -1.643436   -0.000000
      9         17           0       -1.825074   -3.567809   -0.000000
     10         17           0       -1.930250    2.642333    0.000000
     11          1           0        0.246393    0.841844    0.000000
 ---------------------------------------------------------------------
                    Distance matrix (angstroms):
                    1          2          3          4          5
     1  C    0.000000
     2  C    1.420043   0.000000
     3  C    2.443961   1.408725   0.000000
     4  C    2.848377   2.454625   1.399134   0.000000
     5  C    2.480643   2.842859   2.431945   1.414394   0.000000
     6  C    1.375031   2.355108   2.691652   2.354959   1.374368
     7  Cl   1.678881   2.729272   4.015668   4.526041   3.999418
     8  H    3.947726   3.446674   2.171572   1.099408   2.184170
     9  Cl   4.008258   4.523496   3.996586   2.712758   1.681201
    10  Cl   2.705400   1.687675   2.680744   3.993250   4.530144
    11  H    3.438496   2.169431   1.101543   2.160135   3.426197
                    6          7          8          9         10
     6  C    0.000000
     7  Cl   2.674283   0.000000
     8  H    3.365527   5.625435   0.000000
     9  Cl   2.684386   5.324529   2.900192   0.000000
    10  Cl   3.932574   3.204882   4.852134   6.211033   0.000000
    11  H    3.793195   4.896859   2.487224   4.871962   2.824807
                   11
    11  H    0.000000
 Stoichiometry    C6H2Cl3(2)
 Framework group  CS[SG(C6H2Cl3)]
 Deg. of freedom    19
 Full point group                 CS      NOp   2
 Largest Abelian subgroup         CS      NOp   2
 Largest concise Abelian subgroup C1      NOp   1
                         Standard orientation:                         
 ---------------------------------------------------------------------
 Center     Atomic      Atomic             Coordinates (Angstroms)
 Number     Number       Type             X           Y           Z
 ---------------------------------------------------------------------
      1          6           0       -0.000000    0.883048   -0.000000
      2          6           0       -1.213954    0.146274   -0.000000
      3          6           0       -1.171545   -1.261813    0.000000
      4          6           0        0.037998   -1.965076    0.000000
      5          6           0        1.260386   -1.253543    0.000000
      6          6           0        1.140954    0.115626    0.000000
      7         17           0        0.058213    2.560920   -0.000000
      8          1           0        0.039283   -3.064483    0.000000
      9         17           0        2.749902   -2.033143    0.000000
     10         17           0       -2.704859    0.937127   -0.000000
     11          1           0       -2.117654   -1.825973    0.000000
 ---------------------------------------------------------------------
 Rotational constants (GHZ):           1.8609596           0.6063690           0.4573481

 **********************************************************************

            Population analysis using the SCF Density.

 **********************************************************************

 Orbital symmetries:
 Alpha Orbitals:
       Occupied  (A') (A') (A') (A') (A') (A') (A') (A') (A') (A')
                 (A') (A') (A") (A') (A") (A') (A") (A') (A') (A')
                 (A") (A') (A") (A")
       Virtual   (A") (A") (A') (A') (A') (A") (A') (A') (A') (A')
                 (A') (A') (A') (A')
 Beta  Orbitals:
       Occupied  (A') (A') (A') (A') (A') (A') (A') (A') (A') (A')
                 (A') (A') (A") (A') (A") (A') (A") (A') (A') (A')
                 (A") (A") (A")
       Virtual   (A') (A") (A") (A') (A') (A') (A") (A') (A') (A')
                 (A') (A') (A') (A') (A')
 The electronic state is 2-A'.
 Alpha  occ. eigenvalues --   -1.48188  -1.41444  -1.40133  -1.37976  -1.17103
 Alpha  occ. eigenvalues --   -1.15618  -0.89564  -0.87510  -0.69701  -0.64360
 Alpha  occ. eigenvalues --   -0.64140  -0.59391  -0.57451  -0.53189  -0.51353
 Alpha  occ. eigenvalues --   -0.51213  -0.48712  -0.46732  -0.45183  -0.44652
 Alpha  occ. eigenvalues --   -0.44250  -0.40713  -0.39233  -0.36526
 Alpha virt. eigenvalues --   -0.01487  -0.00511   0.02710   0.03447   0.04896
 Alpha virt. eigenvalues --    0.06828   0.11488   0.12286   0.13092   0.13523
 Alpha virt. eigenvalues --    0.15509   0.15975   0.16741   0.17543
  Beta  occ. eigenvalues --   -1.47548  -1.41508  -1.40063  -1.37711  -1.16560
  Beta  occ. eigenvalues --   -1.14355  -0.89185  -0.85361  -0.69661  -0.63745
  Beta  occ. eigenvalues --   -0.62812  -0.59116  -0.57287  -0.52665  -0.51896
  Beta  occ. eigenvalues --   -0.50767  -0.48878  -0.45415  -0.45135  -0.44406
  Beta  occ. eigenvalues --   -0.44137  -0.38019  -0.36415
  Beta virt. eigenvalues --   -0.01879  -0.01439   0.01069   0.02801   0.03458
  Beta virt. eigenvalues --    0.04818   0.07657   0.12165   0.12864   0.13418
  Beta virt. eigenvalues --    0.14183   0.15795   0.16579   0.17634   0.18311
          Condensed to atoms (all electrons):
               1          2          3          4          5          6
     1  C    4.052860   0.000000   0.000000   0.000000   0.000000   0.000000
     2  C    0.000000   4.064620   0.000000   0.000000   0.000000   0.000000
     3  C    0.000000   0.000000   4.123397   0.000000   0.000000   0.000000
     4  C    0.000000   0.000000   0.000000   4.112439   0.000000   0.000000
     5  C    0.000000   0.000000   0.000000   0.000000   4.056579   0.000000
     6  C    0.000000   0.000000   0.000000   0.000000   0.000000   4.035419
     7  Cl   0.000000   0.000000   0.000000   0.000000   0.000000   0.000000
     8  H    0.000000   0.000000   0.000000   0.000000   0.000000   0.000000
     9  Cl   0.000000   0.000000   0.000000   0.000000   0.000000   0.000000
    10  Cl   0.000000   0.000000   0.000000   0.000000   0.000000   0.000000
    11  H    0.000000   0.000000   0.000000   0.000000   0.000000   0.000000
               7          8          9         10         11
     1  C    0.000000   0.000000   0.000000   0.000000   0.000000
     2  C    0.000000   0.000000   0.000000   0.000000   0.000000
     3  C    0.000000   0.000000   0.000000   0.000000   0.000000
     4  C    0.000000   0.000000   0.000000   0.000000   0.000000
     5  C    0.000000   0.000000   0.000000   0.000000   0.000000
     6  C    0.000000   0.000000   0.000000   0.000000   0.000000
     7  Cl   6.942805   0.000000   0.000000   0.000000   0.000000
     8  H    0.000000   0.840154   0.000000   0.000000   0.000000
     9  Cl   0.000000   0.000000   6.958689   0.000000   0.000000
    10  Cl   0.000000   0.000000   0.000000   6.971143   0.000000
    11  H    0.000000   0.000000   0.000000   0.000000   0.841894
          Atomic-Atomic Spin Densities.
               1          2          3          4          5          6
     1  C   -0.500438   0.000000   0.000000   0.000000   0.000000   0.000000
     2  C    0.000000   0.513292   0.000000   0.000000   0.000000   0.000000
     3  C    0.000000   0.000000  -0.473268   0.000000   0.000000   0.000000
     4  C    0.000000   0.000000   0.000000   0.513180   0.000000   0.000000
     5  C    0.000000   0.000000   0.000000   0.000000  -0.494493   0.000000
     6  C    0.000000   0.000000   0.000000   0.000000   0.000000   1.419054
     7  Cl   0.000000   0.000000   0.000000   0.000000   0.000000   0.000000
     8  H    0.000000   0.000000   0.000000   0.000000   0.000000   0.000000
     9  Cl   0.000000   0.000000   0.000000   0.000000   0.000000   0.000000
    10  Cl   0.000000   0.000000   0.000000   0.000000   0.000000   0.000000
    11  H    0.000000   0.000000   0.000000   0.000000   0.000000   0.000000
               7          8          9         10         11
     1  C    0.000000   0.000000   0.000000   0.000000   0.000000
     2  C    0.000000   0.000000   0.000000   0.000000   0.000000
     3  C    0.000000   0.000000   0.000000   0.000000   0.000000
     4  C    0.000000   0.000000   0.000000   0.000000   0.000000
     5  C    0.000000   0.000000   0.000000   0.000000   0.000000
     6  C    0.000000   0.000000   0.000000   0.000000   0.000000
     7  Cl  -0.000398   0.000000   0.000000   0.000000   0.000000
     8  H    0.000000  -0.020252   0.000000   0.000000   0.000000
     9  Cl   0.000000   0.000000   0.000046   0.000000   0.000000
    10  Cl   0.000000   0.000000   0.000000   0.015824   0.000000
    11  H    0.000000   0.000000   0.000000   0.000000   0.027453
 Mulliken charges and spin densities:
               1          2
     1  C   -0.052860  -0.500438
     2  C   -0.064620   0.513292
     3  C   -0.123397  -0.473268
     4  C   -0.112439   0.513180
     5  C   -0.056579  -0.494493
     6  C   -0.035419   1.419054
     7  Cl   0.057195  -0.000398
     8  H    0.159846  -0.020252
     9  Cl   0.041311   0.000046
    10  Cl   0.028857   0.015824
    11  H    0.158106   0.027453
 Sum of Mulliken charges =  -0.00000   1.00000
 Mulliken charges and spin densities with hydrogens summed into heavy atoms:
               1          2
     1  C   -0.052860  -0.500438
     2  C   -0.064620   0.513292
     3  C    0.034709  -0.445815
     4  C    0.047407   0.492928
     5  C   -0.056579  -0.494493
     6  C   -0.035419   1.419054
     7  Cl   0.057195  -0.000398
     9  Cl   0.041311   0.000046
    10  Cl   0.028857   0.015824
 Charge=             -0.0000 electrons
 Dipole moment (field-independent basis, Debye):
    X=             -0.9114    Y=             -1.4428    Z=              0.0000  Tot=              1.7066
 N-N= 2.437320858168D+02 E-N=-3.398110119646D+02  KE=-1.121049613559D+02
 Symmetry A'   KE=-8.614244570026D+01
 Symmetry A"   KE=-2.596251565564D+01
 Symmetry A'   SP= 1.000000000000D+00
 Symmetry A"   SP= 1.110223024625D-16
 1\1\GINC-SH02-10N42\FOpt\UAM1\ZDO\C6H2Cl3(2)\JLAPIER\08-Dec-2025\0\\# 
 opt am1 SCF(maxcyc=100000)\\Neutral Radical (removed 1) _245\\0,2\C,-3
 .1354439889,0.2202067762,0.\C,-1.9201014486,0.9546889248,0.\C,-0.69188
 91097,0.2647610188,0.\C,-0.629013337,-1.1329590622,0.\C,-1.8258940772,
 -1.8866083487,0.\C,-2.9839339067,-1.1464518561,0.\Cl,-4.6493593442,0.9
 459500194,0.\H,0.3446966598,-1.643436053,0.\Cl,-1.8250740585,-3.567809
 0055,0.\Cl,-1.9302499952,2.6423331859,0.\H,0.2463926063,0.8418444005,0
 .\\Version=ES64L-G16RevB.01\State=2-A'\HF=0.089184\S2=1.306317\S2-1=0.
 \S2A=1.023435\RMSD=5.317e-09\RMSF=6.455e-05\Dipole=0.669174,0.0548101,
 0.\PG=CS [SG(C6H2Cl3)]\\@


 A great many people think they are thinking when they
 are merely rearranging their prejudices.
                               -- William James
 Job cpu time:       0 days  0 hours  0 minutes  9.3 seconds.
 Elapsed time:       0 days  0 hours  0 minutes 13.6 seconds.
 File lengths (MBytes):  RWF=     10 Int=      0 D2E=      0 Chk=      2 Scr=      1
 Normal termination of Gaussian 16 at Mon Dec  8 18:17:33 2025.
