 Entering Gaussian System, Link 0=g16
 Initial command:
 /share/software/user/restricted/gaussian/g16.B01/l1.exe "/home/users/jlapier/Chloroaromatics/Gau-10045.inp" -scrdir="/home/users/jlapier/Chloroaromatics/"
 Entering Link 1 = /share/software/user/restricted/gaussian/g16.B01/l1.exe PID=     10046.
  
 Copyright (c) 1988-2017, Gaussian, Inc.  All Rights Reserved.
  
 This is part of the Gaussian(R) 16 program.  It is based on
 the Gaussian(R) 09 system (copyright 2009, Gaussian, Inc.),
 the Gaussian(R) 03 system (copyright 2003, Gaussian, Inc.),
 the Gaussian(R) 98 system (copyright 1998, Gaussian, Inc.),
 the Gaussian(R) 94 system (copyright 1995, Gaussian, Inc.),
 the Gaussian 92(TM) system (copyright 1992, Gaussian, Inc.),
 the Gaussian 90(TM) system (copyright 1990, Gaussian, Inc.),
 the Gaussian 88(TM) system (copyright 1988, Gaussian, Inc.),
 the Gaussian 86(TM) system (copyright 1986, Carnegie Mellon
 University), and the Gaussian 82(TM) system (copyright 1983,
 Carnegie Mellon University). Gaussian is a federally registered
 trademark of Gaussian, Inc.
  
 This software contains proprietary and confidential information,
 including trade secrets, belonging to Gaussian, Inc.
  
 This software is provided under written license and may be
 used, copied, transmitted, or stored only in accord with that
 written license.
  
 The following legend is applicable only to US Government
 contracts under FAR:
  
                    RESTRICTED RIGHTS LEGEND
  
 Use, reproduction and disclosure by the US Government is
 subject to restrictions as set forth in subparagraphs (a)
 and (c) of the Commercial Computer Software - Restricted
 Rights clause in FAR 52.227-19.
  
 Gaussian, Inc.
 340 Quinnipiac St., Bldg. 40, Wallingford CT 06492
  
  
 ---------------------------------------------------------------
 Warning -- This program may not be used in any manner that
 competes with the business of Gaussian, Inc. or will provide
 assistance to any competitor of Gaussian, Inc.  The licensee
 of this program is prohibited from giving any competitor of
 Gaussian, Inc. access to this program.  By using this program,
 the user acknowledges that Gaussian, Inc. is engaged in the
 business of creating and licensing software in the field of
 computational chemistry and represents and warrants to the
 licensee that it is not a competitor of Gaussian, Inc. and that
 it will not use this program in any manner prohibited above.
 ---------------------------------------------------------------
  

 Cite this work as:
 Gaussian 16, Revision B.01,
 M. J. Frisch, G. W. Trucks, H. B. Schlegel, G. E. Scuseria, 
 M. A. Robb, J. R. Cheeseman, G. Scalmani, V. Barone, 
 G. A. Petersson, H. Nakatsuji, X. Li, M. Caricato, A. V. Marenich, 
 J. Bloino, B. G. Janesko, R. Gomperts, B. Mennucci, H. P. Hratchian, 
 J. V. Ortiz, A. F. Izmaylov, J. L. Sonnenberg, D. Williams-Young, 
 F. Ding, F. Lipparini, F. Egidi, J. Goings, B. Peng, A. Petrone, 
 T. Henderson, D. Ranasinghe, V. G. Zakrzewski, J. Gao, N. Rega, 
 G. Zheng, W. Liang, M. Hada, M. Ehara, K. Toyota, R. Fukuda, 
 J. Hasegawa, M. Ishida, T. Nakajima, Y. Honda, O. Kitao, H. Nakai, 
 T. Vreven, K. Throssell, J. A. Montgomery, Jr., J. E. Peralta, 
 F. Ogliaro, M. J. Bearpark, J. J. Heyd, E. N. Brothers, K. N. Kudin, 
 V. N. Staroverov, T. A. Keith, R. Kobayashi, J. Normand, 
 K. Raghavachari, A. P. Rendell, J. C. Burant, S. S. Iyengar, 
 J. Tomasi, M. Cossi, J. M. Millam, M. Klene, C. Adamo, R. Cammi, 
 J. W. Ochterski, R. L. Martin, K. Morokuma, O. Farkas, 
 J. B. Foresman, and D. J. Fox, Gaussian, Inc., Wallingford CT, 2016.
 
 ******************************************
 Gaussian 16:  ES64L-G16RevB.01 20-Dec-2017
                 9-Dec-2025 
 ******************************************
 %mem=2GB
 %nprocshare=1
 Will use up to    1 processors via shared memory.
 %chk=geometry_chks/_24ClBzNeutralRadical.chk
 -----------------
 # opt am1 SCF=XQC
 -----------------
 1/18=20,19=15,26=1,38=1/1,3;
 2/9=110,12=2,17=6,18=5,40=1/2;
 3/5=2,25=1,41=700000,71=1/1,2,3;
 4/35=1/1;
 5/5=2,8=3,13=1,35=1,38=5/2,8;
 6/7=2,8=2,9=2,10=2,28=1/1;
 7//1,2,3,16;
 1/18=20,19=15,26=1/3(2);
 2/9=110/2;
 99//99;
 2/9=110/2;
 3/5=2,25=1,41=700000,71=1,135=20/1,2,3;
 4/5=5,16=3,35=1/1;
 5/5=2,8=3,13=1,35=1,38=5/2,8;
 7//1,2,3,16;
 1/18=20,19=15,26=1/3(-5);
 2/9=110/2;
 6/7=2,8=2,9=2,10=2,19=2,28=1/1;
 99/9=1/99;
 -------------------------------
 Neutral Radical (removed 1) _24
 -------------------------------
 Symbolic Z-matrix:
 Charge =  0 Multiplicity = 2
 C                    -3.20928   0.19943   0. 
 C                    -2.0115    0.93555   0. 
 C                    -0.77511   0.2663    0. 
 C                    -0.7365   -1.13907   0. 
 C                    -1.93429  -1.87519   0. 
 C                    -3.17067  -1.20594   0. 
 Cl                   -4.76193   1.03987   0. 
 H                     0.81614  -1.97951   0. 
 Cl                   -1.8858   -3.64003   0. 
 H                    -2.05998   2.7004    0. 
 H                     0.72905   1.19071   0. 
 
 Add virtual bond connecting atoms H8         and C4         Dist= 3.34D+00.
 Add virtual bond connecting atoms H11        and C3         Dist= 3.34D+00.
 Add virtual bond connecting atoms H10        and C2         Dist= 3.34D+00.

 GradGradGradGradGradGradGradGradGradGradGradGradGradGradGradGradGradGrad
 Berny optimization.
 Initialization pass.
                           ----------------------------
                           !    Initial Parameters    !
                           ! (Angstroms and Degrees)  !
 --------------------------                            --------------------------
 ! Name  Definition              Value          Derivative Info.                !
 --------------------------------------------------------------------------------
 ! R1    R(1,2)                  1.4059         estimate D2E/DX2                !
 ! R2    R(1,6)                  1.4059         estimate D2E/DX2                !
 ! R3    R(1,7)                  1.7655         estimate D2E/DX2                !
 ! R4    R(2,3)                  1.4059         estimate D2E/DX2                !
 ! R5    R(2,10)                 1.7655         estimate D2E/DX2                !
 ! R6    R(3,4)                  1.4059         estimate D2E/DX2                !
 ! R7    R(3,11)                 1.7655         estimate D2E/DX2                !
 ! R8    R(4,5)                  1.4059         estimate D2E/DX2                !
 ! R9    R(4,8)                  1.7655         estimate D2E/DX2                !
 ! R10   R(5,6)                  1.4059         estimate D2E/DX2                !
 ! R11   R(5,9)                  1.7655         estimate D2E/DX2                !
 ! A1    A(2,1,6)              119.9999         estimate D2E/DX2                !
 ! A2    A(2,1,7)              119.9999         estimate D2E/DX2                !
 ! A3    A(6,1,7)              120.0001         estimate D2E/DX2                !
 ! A4    A(1,2,3)              120.0            estimate D2E/DX2                !
 ! A5    A(1,2,10)             120.0001         estimate D2E/DX2                !
 ! A6    A(3,2,10)             119.9999         estimate D2E/DX2                !
 ! A7    A(2,3,4)              120.0001         estimate D2E/DX2                !
 ! A8    A(2,3,11)             120.0            estimate D2E/DX2                !
 ! A9    A(4,3,11)             119.9999         estimate D2E/DX2                !
 ! A10   A(3,4,5)              119.9997         estimate D2E/DX2                !
 ! A11   A(3,4,8)              120.0003         estimate D2E/DX2                !
 ! A12   A(5,4,8)              120.0            estimate D2E/DX2                !
 ! A13   A(4,5,6)              120.0            estimate D2E/DX2                !
 ! A14   A(4,5,9)              119.9996         estimate D2E/DX2                !
 ! A15   A(6,5,9)              120.0004         estimate D2E/DX2                !
 ! A16   A(1,6,5)              120.0003         estimate D2E/DX2                !
 ! D1    D(6,1,2,3)              0.0            estimate D2E/DX2                !
 ! D2    D(6,1,2,10)           180.0            estimate D2E/DX2                !
 ! D3    D(7,1,2,3)            180.0            estimate D2E/DX2                !
 ! D4    D(7,1,2,10)             0.0            estimate D2E/DX2                !
 ! D5    D(2,1,6,5)              0.0            estimate D2E/DX2                !
 ! D6    D(7,1,6,5)            180.0            estimate D2E/DX2                !
 ! D7    D(1,2,3,4)              0.0            estimate D2E/DX2                !
 ! D8    D(1,2,3,11)           180.0            estimate D2E/DX2                !
 ! D9    D(10,2,3,4)           180.0            estimate D2E/DX2                !
 ! D10   D(10,2,3,11)            0.0            estimate D2E/DX2                !
 ! D11   D(2,3,4,5)              0.0            estimate D2E/DX2                !
 ! D12   D(2,3,4,8)            180.0            estimate D2E/DX2                !
 ! D13   D(11,3,4,5)           180.0            estimate D2E/DX2                !
 ! D14   D(11,3,4,8)             0.0            estimate D2E/DX2                !
 ! D15   D(3,4,5,6)              0.0            estimate D2E/DX2                !
 ! D16   D(3,4,5,9)            180.0            estimate D2E/DX2                !
 ! D17   D(8,4,5,6)            180.0            estimate D2E/DX2                !
 ! D18   D(8,4,5,9)              0.0            estimate D2E/DX2                !
 ! D19   D(4,5,6,1)              0.0            estimate D2E/DX2                !
 ! D20   D(9,5,6,1)            180.0            estimate D2E/DX2                !
 --------------------------------------------------------------------------------
 Trust Radius=3.00D-01 FncErr=1.00D-07 GrdErr=1.00D-07 EigMax=2.50D+02 EigMin=1.00D-04
 Number of steps in this run=     57 maximum allowed number of steps=    100.
 GradGradGradGradGradGradGradGradGradGradGradGradGradGradGradGradGradGrad

                          Input orientation:                          
 ---------------------------------------------------------------------
 Center     Atomic      Atomic             Coordinates (Angstroms)
 Number     Number       Type             X           Y           Z
 ---------------------------------------------------------------------
      1          6           0       -3.209280    0.199430    0.000000
      2          6           0       -2.011500    0.935550    0.000000
      3          6           0       -0.775110    0.266300    0.000000
      4          6           0       -0.736500   -1.139070    0.000000
      5          6           0       -1.934290   -1.875190    0.000000
      6          6           0       -3.170670   -1.205940    0.000000
      7         17           0       -4.761930    1.039870    0.000000
      8          1           0        0.816140   -1.979510    0.000000
      9         17           0       -1.885800   -3.640030    0.000000
     10          1           0       -2.059980    2.700400    0.000000
     11          1           0        0.729050    1.190710    0.000000
 ---------------------------------------------------------------------
                    Distance matrix (angstroms):
                    1          2          3          4          5
     1  C    0.000000
     2  C    1.405898   0.000000
     3  C    2.435088   1.405900   0.000000
     4  C    2.811801   2.435092   1.405900   0.000000
     5  C    2.435087   2.811800   2.435093   1.405907   0.000000
     6  C    1.405900   2.435088   2.811796   2.435088   1.405892
     7  Cl   1.765520   2.752408   4.061175   4.577321   4.061173
     8  H    4.577312   4.061173   2.752406   1.765511   2.752408
     9  Cl   4.061164   4.577306   4.061163   2.752397   1.765506
    10  H    2.752406   1.765516   2.752405   4.061173   4.577316
    11  H    4.061167   2.752403   1.765512   2.752401   4.061173
                    6          7          8          9         10
     6  C    0.000000
     7  Cl   2.752412   0.000000
     8  H    4.061165   6.342832   0.000000
     9  Cl   2.752396   5.493049   3.171404   0.000000
    10  H    4.061173   3.171418   5.493052   6.342822   0.000000
    11  H    4.577308   5.493051   3.171416   5.493040   3.171412
                   11
    11  H    0.000000
 Stoichiometry    C6H3Cl2(2)
 Framework group  CS[SG(C6H3Cl2)]
 Deg. of freedom    19
 Full point group                 CS      NOp   2
 Largest Abelian subgroup         CS      NOp   2
 Largest concise Abelian subgroup C1      NOp   1
                         Standard orientation:                         
 ---------------------------------------------------------------------
 Center     Atomic      Atomic             Coordinates (Angstroms)
 Number     Number       Type             X           Y           Z
 ---------------------------------------------------------------------
      1          6           0       -0.564353    1.080067   -0.000000
      2          6           0       -1.781897    0.377119   -0.000000
      3          6           0       -1.781897   -1.028782   -0.000000
      4          6           0       -0.564353   -1.731734   -0.000000
      5          6           0        0.653196   -1.028777    0.000000
      6          6           0        0.653191    0.377115    0.000000
      7         17           0       -0.564354    2.845587   -0.000000
      8          1           0       -0.564348   -3.497245    0.000000
      9         17           0        2.182165   -1.911536    0.000000
     10          1           0       -3.310880    1.259874   -0.000000
     11          1           0       -3.310875   -1.911538   -0.000000
 ---------------------------------------------------------------------
 Rotational constants (GHZ):           2.7044066           0.8231885           0.6310918
 Standard basis: VSTO-6G (5D, 7F)
 There are    27 symmetry adapted cartesian basis functions of A'  symmetry.
 There are     8 symmetry adapted cartesian basis functions of A"  symmetry.
 There are    27 symmetry adapted basis functions of A'  symmetry.
 There are     8 symmetry adapted basis functions of A"  symmetry.
    35 basis functions,   210 primitive gaussians,    35 cartesian basis functions
    21 alpha electrons       20 beta electrons
       nuclear repulsion energy       190.2251230983 Hartrees.
 Integral buffers will be    131072 words long.
 Regular integral format.
 Two-electron integral symmetry is turned off.
 Do NDO integrals.
 One-electron integrals computed using PRISM.
 NBasis=    35 RedAO= T EigKep=  1.00D+00  NBF=    27     8
 NBsUse=    35 1.00D-06 EigRej= -1.00D+00 NBFU=    27     8
 Simple Huckel Guess.
 Initial guess orbital symmetries:
 Alpha Orbitals:
       Occupied  (A') (A') (A') (A') (A') (A') (A') (A') (A') (A")
                 (A') (A') (A') (A") (A') (A") (A') (A') (A") (A")
                 (A')
       Virtual   (A') (A") (A") (A') (A') (A") (A') (A') (A') (A')
                 (A') (A') (A') (A')
 Beta  Orbitals:
       Occupied  (A') (A') (A') (A') (A') (A') (A') (A') (A') (A")
                 (A') (A') (A') (A") (A') (A") (A') (A') (A") (A")
       Virtual   (A') (A') (A") (A") (A') (A') (A") (A') (A') (A')
                 (A') (A') (A') (A') (A')
 The electronic state of the initial guess is 2-A'.
 Initial guess <Sx>= 0.0000 <Sy>= 0.0000 <Sz>= 0.5000 <S**2>= 0.7500 S= 0.5000
 Keep J ints in memory in canonical form, NReq=862793.
 Overlap will be assumed to be unity.
 Requested convergence on RMS density matrix=1.00D-08 within  32 cycles.
 Requested convergence on MAX density matrix=1.00D-06.
 Requested convergence on             energy=1.00D-06.
 No special actions if energy rises.
 Fock symm off for IB=2 I1=    1 I=   28 J=    6 Cut=1.00D-07 Err=2.93D-03
 Fock matrix is not symmetric: symmetry in diagonalization turned off.
 Rare condition: small coef for last iteration:  0.000D+00
 Rare condition: small coef for last iteration:  0.000D+00
 >>>>>>>>>> Convergence criterion not met.
 SCF Done:  E(UAM1) =  0.478391849067     A.U. after   33 cycles
            NFock= 32  Conv=0.43D-07     -V/T= 1.0053
 <Sx>= 0.0000 <Sy>= 0.0000 <Sz>= 0.5000 <S**2>= 1.0950 S= 0.6597
 <L.S>=  0.00000000000    
 Annihilation of the first spin contaminant:
 S**2 before annihilation     1.0950,   after     0.8596
 Keep J ints in memory in canonical form, NReq=863193.
 SCF Done:  E(UAM1) =  0.478391849067     a.u. after    1 cycles
            Convg  =    0.1806D-06                     1 Fock formations.
              S**2 =  1.0950                  -V/T =  1.0053
 <Sx>= 0.0000 <Sy>= 0.0000 <Sz>= 0.5000 <S**2>= 1.0950 S= 0.6597
 <L.S>=  0.00000000000    
 Annihilation of the first spin contaminant:
 S**2 before annihilation     1.0950,   after     0.8596

 **********************************************************************

            Population analysis using the SCF Density.

 **********************************************************************

 Orbital symmetries:
 Alpha Orbitals:
       Occupied  (A') (A') (A') (A') (A') (A') (A') (A') (A') (A')
                 (A") (A') (A") (A') (A') (A") (A') (A') (A') (A")
                 (A")
       Virtual   (A') (A") (A") (A') (A') (A') (A') (A") (A') (A')
                 (A') (A') (A') (A')
 Beta  Orbitals:
       Occupied  (A') (A') (A') (A') (A') (A') (A') (A') (A') (A')
                 (A") (A') (A") (A') (A") (A') (A') (A') (A") (A")
       Virtual   (A') (A") (A') (A") (A') (A') (A') (A') (A") (A')
                 (A') (A') (A') (A') (A')
 The electronic state is 2-A'.
 Alpha  occ. eigenvalues --   -1.42402  -1.37355  -1.35218  -1.11122  -1.11095
 Alpha  occ. eigenvalues --   -0.82098  -0.81908  -0.63391  -0.60063  -0.53891
 Alpha  occ. eigenvalues --   -0.53527  -0.49312  -0.47947  -0.45323  -0.44087
 Alpha  occ. eigenvalues --   -0.43663  -0.43407  -0.40651  -0.37968  -0.37046
 Alpha  occ. eigenvalues --   -0.34728
 Alpha virt. eigenvalues --   -0.01370  -0.00765   0.00649   0.00691   0.01238
 Alpha virt. eigenvalues --    0.03568   0.05250   0.08913   0.14281   0.14307
 Alpha virt. eigenvalues --    0.16544   0.17107   0.17980   0.19641
  Beta  occ. eigenvalues --   -1.41890  -1.37321  -1.35109  -1.11875  -1.08847
  Beta  occ. eigenvalues --   -0.82764  -0.79953  -0.62456  -0.59702  -0.53928
  Beta  occ. eigenvalues --   -0.53202  -0.48761  -0.48048  -0.45060  -0.43765
  Beta  occ. eigenvalues --   -0.43368  -0.41196  -0.39487  -0.35955  -0.34970
  Beta virt. eigenvalues --   -0.02674  -0.00979  -0.00685   0.01693   0.02015
  Beta virt. eigenvalues --    0.02219   0.04500   0.05096   0.09183   0.14695
  Beta virt. eigenvalues --    0.14799   0.17024   0.17944   0.18245   0.19675
          Condensed to atoms (all electrons):
               1          2          3          4          5          6
     1  C    4.069734   0.000000   0.000000   0.000000   0.000000   0.000000
     2  C    0.000000   4.112482   0.000000   0.000000   0.000000   0.000000
     3  C    0.000000   0.000000   4.153795   0.000000   0.000000   0.000000
     4  C    0.000000   0.000000   0.000000   4.112483   0.000000   0.000000
     5  C    0.000000   0.000000   0.000000   0.000000   4.069739   0.000000
     6  C    0.000000   0.000000   0.000000   0.000000   0.000000   3.977869
     7  Cl   0.000000   0.000000   0.000000   0.000000   0.000000   0.000000
     8  H    0.000000   0.000000   0.000000   0.000000   0.000000   0.000000
     9  Cl   0.000000   0.000000   0.000000   0.000000   0.000000   0.000000
    10  H    0.000000   0.000000   0.000000   0.000000   0.000000   0.000000
    11  H    0.000000   0.000000   0.000000   0.000000   0.000000   0.000000
               7          8          9         10         11
     1  C    0.000000   0.000000   0.000000   0.000000   0.000000
     2  C    0.000000   0.000000   0.000000   0.000000   0.000000
     3  C    0.000000   0.000000   0.000000   0.000000   0.000000
     4  C    0.000000   0.000000   0.000000   0.000000   0.000000
     5  C    0.000000   0.000000   0.000000   0.000000   0.000000
     6  C    0.000000   0.000000   0.000000   0.000000   0.000000
     7  Cl   7.022475   0.000000   0.000000   0.000000   0.000000
     8  H    0.000000   0.816405   0.000000   0.000000   0.000000
     9  Cl   0.000000   0.000000   7.022469   0.000000   0.000000
    10  H    0.000000   0.000000   0.000000   0.816407   0.000000
    11  H    0.000000   0.000000   0.000000   0.000000   0.826141
          Atomic-Atomic Spin Densities.
               1          2          3          4          5          6
     1  C   -0.004900   0.000000   0.000000   0.000000   0.000000   0.000000
     2  C    0.000000  -0.367510   0.000000   0.000000   0.000000   0.000000
     3  C    0.000000   0.000000   0.329223   0.000000   0.000000   0.000000
     4  C    0.000000   0.000000   0.000000  -0.367505   0.000000   0.000000
     5  C    0.000000   0.000000   0.000000   0.000000  -0.004912   0.000000
     6  C    0.000000   0.000000   0.000000   0.000000   0.000000   0.993448
     7  Cl   0.000000   0.000000   0.000000   0.000000   0.000000   0.000000
     8  H    0.000000   0.000000   0.000000   0.000000   0.000000   0.000000
     9  Cl   0.000000   0.000000   0.000000   0.000000   0.000000   0.000000
    10  H    0.000000   0.000000   0.000000   0.000000   0.000000   0.000000
    11  H    0.000000   0.000000   0.000000   0.000000   0.000000   0.000000
               7          8          9         10         11
     1  C    0.000000   0.000000   0.000000   0.000000   0.000000
     2  C    0.000000   0.000000   0.000000   0.000000   0.000000
     3  C    0.000000   0.000000   0.000000   0.000000   0.000000
     4  C    0.000000   0.000000   0.000000   0.000000   0.000000
     5  C    0.000000   0.000000   0.000000   0.000000   0.000000
     6  C    0.000000   0.000000   0.000000   0.000000   0.000000
     7  Cl   0.004890   0.000000   0.000000   0.000000   0.000000
     8  H    0.000000   0.347298   0.000000   0.000000   0.000000
     9  Cl   0.000000   0.000000   0.004890   0.000000   0.000000
    10  H    0.000000   0.000000   0.000000   0.347306   0.000000
    11  H    0.000000   0.000000   0.000000   0.000000  -0.282227
 Mulliken charges and spin densities:
               1          2
     1  C   -0.069734  -0.004900
     2  C   -0.112482  -0.367510
     3  C   -0.153795   0.329223
     4  C   -0.112483  -0.367505
     5  C   -0.069739  -0.004912
     6  C    0.022131   0.993448
     7  Cl  -0.022475   0.004890
     8  H    0.183595   0.347298
     9  Cl  -0.022469   0.004890
    10  H    0.183593   0.347306
    11  H    0.173859  -0.282227
 Sum of Mulliken charges =  -0.00000   1.00000
 Mulliken charges and spin densities with hydrogens summed into heavy atoms:
               1          2
     1  C   -0.069734  -0.004900
     2  C    0.071112  -0.020205
     3  C    0.020063   0.046996
     4  C    0.071112  -0.020206
     5  C   -0.069739  -0.004912
     6  C    0.022131   0.993448
     7  Cl  -0.022475   0.004890
     9  Cl  -0.022469   0.004890
 Charge=              0.0000 electrons
 Dipole moment (field-independent basis, Debye):
    X=             -3.4107    Y=             -1.9693    Z=             -0.0000  Tot=              3.9384
 N-N= 1.902251230983D+02 E-N=-2.608460787769D+02  KE=-9.000882566109D+01
 Symmetry A'   KE=-6.956751796710D+01
 Symmetry A"   KE=-2.044130769399D+01
 Symmetry A'   SP= 1.000000000000D+00
 Symmetry A"   SP=-2.220446049250D-16
 Calling FoFJK, ICntrl=      2127 FMM=F ISym2X=1 I1Cent= 0 IOpClX= 1 NMat=1 NMatS=1 NMatT=0.
 ***** Axes restored to original set *****
 -------------------------------------------------------------------
 Center     Atomic                   Forces (Hartrees/Bohr)
 Number     Number              X              Y              Z
 -------------------------------------------------------------------
      1        6          -0.027894780    0.004787720   -0.000000000
      2        6           0.019499581    0.057397962   -0.000000000
      3        6           0.050259092    0.030884478   -0.000000000
      4        6           0.060013277   -0.008529169   -0.000000000
      5        6          -0.008320321   -0.027044843   -0.000000000
      6        6           0.059662104    0.036672538    0.000000000
      7       17           0.033529168   -0.017898282   -0.000000000
      8        1          -0.093445334    0.049376632    0.000000000
      9       17          -0.000823189    0.037992070   -0.000000000
     10        1           0.001842546   -0.105671696    0.000000000
     11        1          -0.094322143   -0.057967410    0.000000000
 -------------------------------------------------------------------
 Cartesian Forces:  Max     0.105671696 RMS     0.040758179

 GradGradGradGradGradGradGradGradGradGradGradGradGradGradGradGradGradGrad
 Berny optimization.
 FormGI is forming the generalized inverse of G from B-inverse, IUseBI=4.
 Internal  Forces:  Max     0.110710827 RMS     0.032229246
 Search for a local minimum.
 Step number   1 out of a maximum of   57
 All quantities printed in internal units (Hartrees-Bohrs-Radians)
 Mixed Optimization -- RFO/linear search
 Second derivative matrix not updated -- first step.
 ITU=  0
     Eigenvalues ---    0.02011   0.02011   0.02011   0.02011   0.02011
     Eigenvalues ---    0.02011   0.02011   0.02011   0.06524   0.06524
     Eigenvalues ---    0.06524   0.16000   0.16000   0.16000   0.22068
     Eigenvalues ---    0.23477   0.24896   0.25000   0.25000   0.29033
     Eigenvalues ---    0.29034   0.40971   0.41356   0.44656   0.44657
     Eigenvalues ---    0.44657   0.44657
 RFO step:  Lambda=-1.71664526D-01 EMin= 2.01065650D-02
 Linear search not attempted -- first point.
 Maximum step size (   0.300) exceeded in Quadratic search.
    -- Step size scaled by   0.368
 Iteration  1 RMS(Cart)=  0.04834517 RMS(Int)=  0.00005098
 Iteration  2 RMS(Cart)=  0.00008689 RMS(Int)=  0.00000452
 Iteration  3 RMS(Cart)=  0.00000000 RMS(Int)=  0.00000452
 ClnCor:  largest displacement from symmetrization is 1.91D-09 for atom    11.
 Variable       Old X    -DE/DX   Delta X   Delta X   Delta X     New X
                                 (Linear)    (Quad)   (Total)
    R1        2.65676  -0.03295   0.00000  -0.01963  -0.01963   2.63714
    R2        2.65677  -0.03997   0.00000  -0.02363  -0.02363   2.63314
    R3        3.33635  -0.03801   0.00000  -0.03029  -0.03029   3.30606
    R4        2.65677  -0.04799   0.00000  -0.02876  -0.02876   2.62800
    R5        3.33634  -0.10568   0.00000  -0.16426  -0.16426   3.17208
    R6        2.65677  -0.04799   0.00000  -0.02876  -0.02877   2.62800
    R7        3.33633  -0.11071   0.00000  -0.17208  -0.17208   3.16426
    R8        2.65678  -0.03296   0.00000  -0.01963  -0.01963   2.63715
    R9        3.33633  -0.10568   0.00000  -0.16426  -0.16426   3.17207
   R10        2.65675  -0.03997   0.00000  -0.02363  -0.02362   2.63313
   R11        3.33632  -0.03800   0.00000  -0.03029  -0.03029   3.30604
    A1        2.09439  -0.01667   0.00000  -0.01445  -0.01445   2.07995
    A2        2.09439   0.00797   0.00000   0.00690   0.00690   2.10130
    A3        2.09440   0.00871   0.00000   0.00755   0.00754   2.10194
    A4        2.09439   0.00333   0.00000   0.00268   0.00267   2.09707
    A5        2.09440  -0.00343   0.00000  -0.00330  -0.00330   2.09110
    A6        2.09439   0.00010   0.00000   0.00062   0.00063   2.09502
    A7        2.09440   0.00596   0.00000   0.00488   0.00486   2.09926
    A8        2.09440  -0.00298   0.00000  -0.00244  -0.00243   2.09196
    A9        2.09439  -0.00298   0.00000  -0.00244  -0.00243   2.09196
   A10        2.09439   0.00333   0.00000   0.00268   0.00267   2.09706
   A11        2.09440   0.00010   0.00000   0.00062   0.00063   2.09503
   A12        2.09440  -0.00343   0.00000  -0.00330  -0.00330   2.09110
   A13        2.09439  -0.01667   0.00000  -0.01445  -0.01445   2.07995
   A14        2.09439   0.00797   0.00000   0.00690   0.00690   2.10129
   A15        2.09440   0.00871   0.00000   0.00755   0.00754   2.10195
   A16        2.09440   0.02073   0.00000   0.01866   0.01868   2.11308
    D1        0.00000   0.00000   0.00000   0.00000   0.00000   0.00000
    D2        3.14159   0.00000   0.00000   0.00000   0.00000   3.14159
    D3        3.14159  -0.00000   0.00000  -0.00000   0.00000   3.14159
    D4       -0.00000   0.00000   0.00000   0.00000   0.00000   0.00000
    D5       -0.00000  -0.00000   0.00000  -0.00000   0.00000   0.00000
    D6        3.14159   0.00000   0.00000   0.00000   0.00000   3.14159
    D7       -0.00000  -0.00000   0.00000  -0.00000   0.00000   0.00000
    D8        3.14159   0.00000   0.00000   0.00000   0.00000   3.14159
    D9        3.14159  -0.00000   0.00000  -0.00000   0.00000   3.14159
   D10        0.00000  -0.00000   0.00000  -0.00000   0.00000   0.00000
   D11       -0.00000   0.00000   0.00000   0.00000   0.00000   0.00000
   D12        3.14159   0.00000   0.00000   0.00000   0.00000   3.14159
   D13        3.14159  -0.00000   0.00000  -0.00000   0.00000   3.14159
   D14       -0.00000   0.00000   0.00000  -0.00000   0.00000   0.00000
   D15        0.00000  -0.00000   0.00000   0.00000  -0.00000   0.00000
   D16        3.14159   0.00000   0.00000   0.00000   0.00000   3.14159
   D17        3.14159  -0.00000   0.00000  -0.00000   0.00000   3.14159
   D18       -0.00000  -0.00000   0.00000  -0.00000   0.00000   0.00000
   D19       -0.00000   0.00000   0.00000  -0.00000   0.00000   0.00000
   D20        3.14159  -0.00000   0.00000  -0.00000   0.00000   3.14159
         Item               Value     Threshold  Converged?
 Maximum Force            0.110711     0.000450     NO 
 RMS     Force            0.032229     0.000300     NO 
 Maximum Displacement     0.172332     0.001800     NO 
 RMS     Displacement     0.048349     0.001200     NO 
 Predicted change in Energy=-5.929753D-02
 GradGradGradGradGradGradGradGradGradGradGradGradGradGradGradGradGradGrad

                          Input orientation:                          
 ---------------------------------------------------------------------
 Center     Atomic      Atomic             Coordinates (Angstroms)
 Number     Number       Type             X           Y           Z
 ---------------------------------------------------------------------
      1          6           0       -3.189324    0.206563   -0.000000
      2          6           0       -1.996678    0.931167   -0.000000
      3          6           0       -0.775288    0.266191    0.000000
      4          6           0       -0.733716   -1.123866    0.000000
      5          6           0       -1.918911   -1.860607    0.000000
      6          6           0       -3.138049   -1.185891    0.000000
      7         17           0       -4.729370    1.036607   -0.000000
      8          1           0        0.743920   -1.920261    0.000000
      9         17           0       -1.874003   -3.609510    0.000000
     10          1           0       -2.039742    2.609206   -0.000000
     11          1           0        0.651293    1.142922    0.000000
 ---------------------------------------------------------------------
                    Distance matrix (angstroms):
                    1          2          3          4          5
     1  C    0.000000
     2  C    1.395512   0.000000
     3  C    2.414773   1.390679   0.000000
     4  C    2.792857   2.412101   1.390678   0.000000
     5  C    2.426343   2.792857   2.414776   1.395519   0.000000
     6  C    1.393398   2.405132   2.773298   2.405132   1.393391
     7  Cl   1.749490   2.734726   4.028438   4.542345   4.036401
     8  H    4.471441   3.954936   2.662435   1.678587   2.663499
     9  Cl   4.036394   4.542333   4.028428   2.734717   1.749479
    10  H    2.663499   1.678592   2.662436   3.954937   4.471446
    11  H    3.953113   2.656424   1.674452   2.656422   3.953117
                    6          7          8          9         10
     6  C    0.000000
     7  Cl   2.733459   0.000000
     8  H    3.950820   6.220930   0.000000
     9  Cl   2.733448   5.453395   3.115619   0.000000
    10  H    3.950827   3.115633   5.316469   6.220924   0.000000
    11  H    4.447750   5.381713   3.064583   5.381703   3.064581
                   11
    11  H    0.000000
 Stoichiometry    C6H3Cl2(2)
 Framework group  CS[SG(C6H3Cl2)]
 Deg. of freedom    19
 Full point group                 CS      NOp   2
 Largest Abelian subgroup         CS      NOp   2
 Largest concise Abelian subgroup C1      NOp   1
                         Standard orientation:                         
 ---------------------------------------------------------------------
 Center     Atomic      Atomic             Coordinates (Angstroms)
 Number     Number       Type             X           Y           Z
 ---------------------------------------------------------------------
      1          6           0       -1.213171    0.048822   -0.000000
      2          6           0       -1.206043   -1.346671   -0.000000
      3          6           0        0.000011   -2.039075   -0.000000
      4          6           0        1.206059   -1.346663    0.000000
      5          6           0        1.213172    0.048838    0.000000
      6          6           0       -0.000000    0.734223    0.000000
      7         17           0       -2.726704    0.926281   -0.000000
      8          1           0        2.658246   -2.188569    0.000000
      9         17           0        2.726691    0.926298    0.000000
     10          1           0       -2.658223   -2.188599   -0.000000
     11          1           0        0.000019   -3.713527   -0.000000
 ---------------------------------------------------------------------
 Rotational constants (GHZ):           2.7640606           0.8360922           0.6419198
 Standard basis: VSTO-6G (5D, 7F)
 There are    27 symmetry adapted cartesian basis functions of A'  symmetry.
 There are     8 symmetry adapted cartesian basis functions of A"  symmetry.
 There are    27 symmetry adapted basis functions of A'  symmetry.
 There are     8 symmetry adapted basis functions of A"  symmetry.
    35 basis functions,   210 primitive gaussians,    35 cartesian basis functions
    21 alpha electrons       20 beta electrons
       nuclear repulsion energy       191.4916958069 Hartrees.
 Integral buffers will be    131072 words long.
 Regular integral format.
 Two-electron integral symmetry is turned off.
 Do NDO integrals.
 One-electron integrals computed using PRISM.
 NBasis=    35 RedAO= T EigKep=  1.00D+00  NBF=    27     8
 NBsUse=    35 1.00D-06 EigRej= -1.00D+00 NBFU=    27     8
 Initial guess from the checkpoint file:  "geometry_chks/_24ClBzNeutralRadical.chk"
 B after Tr=     0.000000   -0.000000    0.000000
         Rot=    0.866024   -0.000000   -0.000000   -0.500002 Ang= -60.00 deg.
 Initial guess orbital symmetries:
 Alpha Orbitals:
       Occupied  (A') (A') (A') (A') (A') (A') (A') (A') (A') (A')
                 (A") (A') (A") (A') (A') (A") (A') (A') (A') (A")
                 (A")
       Virtual   (A') (A") (A") (A') (A') (A') (A') (A") (A') (A')
                 (A') (A') (A') (A')
 Beta  Orbitals:
       Occupied  (A') (A') (A') (A') (A') (A') (A') (A') (A') (A')
                 (A") (A') (A") (A') (A") (A') (A') (A') (A") (A")
       Virtual   (A') (A") (A') (A") (A') (A') (A') (A') (A") (A')
                 (A') (A') (A') (A') (A')
 Initial guess <Sx>= 0.0000 <Sy>= 0.0000 <Sz>= 0.5000 <S**2>= 1.0950 S= 0.6597
 Keep J ints in memory in canonical form, NReq=862793.
 Overlap will be assumed to be unity.
 Requested convergence on RMS density matrix=1.00D-08 within  32 cycles.
 Requested convergence on MAX density matrix=1.00D-06.
 Requested convergence on             energy=1.00D-06.
 No special actions if energy rises.
 Fock symm off for IB=2 I1=    1 I=   28 J=   18 Cut=1.00D-07 Err=2.92D-03
 Fock matrix is not symmetric: symmetry in diagonalization turned off.
 Rare condition: small coef for last iteration:  0.000D+00
 Rare condition: small coef for last iteration:  0.000D+00
 Rare condition: small coef for last iteration:  0.000D+00
 Rare condition: small coef for last iteration:  0.000D+00
 Rare condition: small coef for last iteration:  0.000D+00
 Rare condition: small coef for last iteration:  0.000D+00
 Rare condition: small coef for last iteration:  0.000D+00
 Rare condition: small coef for last iteration:  0.000D+00
 Rare condition: small coef for last iteration:  0.000D+00
 Rare condition: small coef for last iteration:  0.000D+00
 Rare condition: small coef for last iteration:  0.000D+00
 >>>>>>>>>> Convergence criterion not met.
 SCF Done:  E(UAM1) =  0.415335699776     A.U. after   33 cycles
            NFock= 32  Conv=0.20D-01     -V/T= 1.0046
 <Sx>= 0.0000 <Sy>= 0.0000 <Sz>= 0.5000 <S**2>= 0.9873 S= 0.6123
 <L.S>=  0.00000000000    
 Annihilation of the first spin contaminant:
 S**2 before annihilation     0.9873,   after     0.7887
 Keep J ints in memory in canonical form, NReq=863193.
 LinEq1:  Iter=  0 NonCon=     1 RMS=7.55D-04 Max=6.14D-03 NDo=     1
 AX will form     1 AO Fock derivatives at one time.
 LinEq1:  Iter=  1 NonCon=     1 RMS=2.48D-04 Max=2.66D-03 NDo=     1
 LinEq1:  Iter=  2 NonCon=     1 RMS=4.48D-05 Max=3.52D-04 NDo=     1
 LinEq1:  Iter=  3 NonCon=     1 RMS=1.19D-05 Max=1.23D-04 NDo=     1
 LinEq1:  Iter=  4 NonCon=     1 RMS=2.57D-06 Max=1.99D-05 NDo=     1
 LinEq1:  Iter=  5 NonCon=     1 RMS=4.59D-07 Max=4.79D-06 NDo=     1
 LinEq1:  Iter=  6 NonCon=     1 RMS=1.08D-07 Max=1.12D-06 NDo=     1
 LinEq1:  Iter=  7 NonCon=     1 RMS=3.16D-08 Max=3.59D-07 NDo=     1
 LinEq1:  Iter=  8 NonCon=     1 RMS=7.80D-09 Max=6.32D-08 NDo=     1
 LinEq1:  Iter=  9 NonCon=     0 RMS=1.43D-09 Max=1.08D-08 NDo=     1
 Linear equations converged to 2.437D-09 2.437D-08 after     9 iterations.
 LinEq1:  Iter=  0 NonCon=     1 RMS=4.94D-04 Max=4.57D-03 NDo=     1
 LinEq1:  Iter=  1 NonCon=     1 RMS=1.26D-04 Max=1.06D-03 NDo=     1
 LinEq1:  Iter=  2 NonCon=     1 RMS=2.82D-05 Max=1.91D-04 NDo=     1
 LinEq1:  Iter=  3 NonCon=     1 RMS=7.25D-06 Max=7.88D-05 NDo=     1
 LinEq1:  Iter=  4 NonCon=     1 RMS=1.53D-06 Max=1.68D-05 NDo=     1
 LinEq1:  Iter=  5 NonCon=     1 RMS=3.56D-07 Max=4.40D-06 NDo=     1
 LinEq1:  Iter=  6 NonCon=     1 RMS=8.18D-08 Max=7.59D-07 NDo=     1
 LinEq1:  Iter=  7 NonCon=     1 RMS=1.75D-08 Max=1.55D-07 NDo=     1
 LinEq1:  Iter=  8 NonCon=     1 RMS=3.28D-09 Max=3.32D-08 NDo=     1
 LinEq1:  Iter=  9 NonCon=     0 RMS=6.47D-10 Max=4.55D-09 NDo=     1
 Linear equations converged to 2.437D-09 2.437D-08 after     9 iterations.
     Accept linear search using points  1 and  2.
     Minimum is close to point  2 DX= -8.36D-02 DF= -3.30D-06 DXR=  9.13D-02 DFR=  8.95D-03 which will be used.
 LinEq1:  Iter=  0 NonCon=     1 RMS=3.84D-05 Max=3.71D-04 NDo=     1
 LinEq1:  Iter=  1 NonCon=     1 RMS=9.62D-06 Max=8.25D-05 NDo=     1
 LinEq1:  Iter=  2 NonCon=     1 RMS=1.09D-06 Max=8.70D-06 NDo=     1
 LinEq1:  Iter=  3 NonCon=     1 RMS=2.40D-07 Max=1.80D-06 NDo=     1
 LinEq1:  Iter=  4 NonCon=     1 RMS=7.39D-08 Max=6.55D-07 NDo=     1
 LinEq1:  Iter=  5 NonCon=     1 RMS=1.66D-08 Max=1.06D-07 NDo=     1
 LinEq1:  Iter=  6 NonCon=     1 RMS=3.80D-09 Max=2.35D-08 NDo=     1
 LinEq1:  Iter=  7 NonCon=     0 RMS=6.67D-10 Max=5.42D-09 NDo=     1
 Linear equations converged to 2.437D-09 2.437D-08 after     7 iterations.
     Minimum is close to point  2 DX=  2.31D-02 DF= -2.39D-09 DXR=  2.26D-02 DFR=  5.11D-04 which will be used.
 LinEq1:  Iter=  0 NonCon=     1 RMS=1.21D-06 Max=1.29D-05 NDo=     1
 LinEq1:  Iter=  1 NonCon=     1 RMS=3.59D-07 Max=2.39D-06 NDo=     1
 LinEq1:  Iter=  2 NonCon=     1 RMS=7.77D-08 Max=5.13D-07 NDo=     1
 LinEq1:  Iter=  3 NonCon=     1 RMS=1.71D-08 Max=1.59D-07 NDo=     1
 LinEq1:  Iter=  4 NonCon=     1 RMS=4.61D-09 Max=4.93D-08 NDo=     1
 LinEq1:  Iter=  5 NonCon=     1 RMS=1.26D-09 Max=1.47D-08 NDo=     1
 LinEq1:  Iter=  6 NonCon=     1 RMS=2.07D-10 Max=1.40D-09 NDo=     1
 LinEq1:  Iter=  7 NonCon=     0 RMS=4.39D-11 Max=3.32D-10 NDo=     1
 Linear equations converged to 1.998D-10 1.998D-09 after     7 iterations.
 LinEq1:  Iter=  0 NonCon=     1 RMS=3.65D-08 Max=2.76D-07 NDo=     1
 LinEq1:  Iter=  1 NonCon=     1 RMS=1.17D-08 Max=8.42D-08 NDo=     1
 LinEq1:  Iter=  2 NonCon=     1 RMS=3.00D-09 Max=2.56D-08 NDo=     1
 LinEq1:  Iter=  3 NonCon=     1 RMS=7.78D-10 Max=5.12D-09 NDo=     1
 LinEq1:  Iter=  4 NonCon=     1 RMS=1.59D-10 Max=1.48D-09 NDo=     1
 LinEq1:  Iter=  5 NonCon=     1 RMS=2.67D-11 Max=2.26D-10 NDo=     1
 LinEq1:  Iter=  6 NonCon=     1 RMS=5.75D-12 Max=6.38D-11 NDo=     1
 LinEq1:  Iter=  7 NonCon=     0 RMS=1.82D-12 Max=1.67D-11 NDo=     1
 Linear equations converged to 5.959D-12 5.959D-11 after     7 iterations.
 SCF Done:  E(UAM1) =  0.406075111104     a.u. after    6 cycles
            Convg  =    0.7468D-08                    48 Fock formations.
              S**2 =  1.4489                  -V/T =  1.0045
 <Sx>= 0.0000 <Sy>= 0.0000 <Sz>= 0.5000 <S**2>= 1.4489 S= 0.8034
 <L.S>=  0.00000000000    
 Annihilation of the first spin contaminant:
 S**2 before annihilation     1.4489,   after     1.3172
 Calling FoFJK, ICntrl=      2127 FMM=F ISym2X=1 I1Cent= 0 IOpClX= 1 NMat=1 NMatS=1 NMatT=0.
 ***** Axes restored to original set *****
 -------------------------------------------------------------------
 Center     Atomic                   Forces (Hartrees/Bohr)
 Number     Number              X              Y              Z
 -------------------------------------------------------------------
      1        6          -0.039980473    0.011755334   -0.000000000
      2        6           0.013782977    0.100489607   -0.000000000
      3        6           0.079733094    0.049000389   -0.000000000
      4        6           0.095875576   -0.033096121   -0.000000000
      5        6          -0.007563193   -0.040975092   -0.000000000
      6        6           0.032942814    0.020251010    0.000000000
      7       17           0.027462428   -0.014690766    0.000000000
      8        1          -0.105027214    0.055262729    0.000000000
      9       17          -0.000702000    0.031131756   -0.000000000
     10        1           0.001862328   -0.118663751    0.000000000
     11        1          -0.098386337   -0.060465094    0.000000000
 -------------------------------------------------------------------
 Cartesian Forces:  Max     0.118663751 RMS     0.048538318

 GradGradGradGradGradGradGradGradGradGradGradGradGradGradGradGradGradGrad
 Berny optimization.
 Using GEDIIS/GDIIS optimizer.
 FormGI is forming the generalized inverse of G from B-inverse, IUseBI=4.
 Internal  Forces:  Max     0.118673024 RMS     0.031105745
 Search for a local minimum.
 Step number   2 out of a maximum of   57
 All quantities printed in internal units (Hartrees-Bohrs-Radians)
 Mixed Optimization -- RFO/linear search
 Update second derivatives using D2CorX and points    1    2
 DE= -7.23D-02 DEPred=-5.93D-02 R= 1.22D+00
 TightC=F SS=  1.41D+00  RLast= 3.00D-01 DXNew= 5.0454D-01 9.0000D-01
 Trust test= 1.22D+00 RLast= 3.00D-01 DXMaxT set to 5.05D-01
 ITU=  1  0
 Use linear search instead of GDIIS.
     Eigenvalues ---  -10.12235   0.00017   0.02011   0.02011   0.02011
     Eigenvalues ---    0.02011   0.02011   0.02011   0.02011   0.02011
     Eigenvalues ---    0.06524   0.06802   0.15996   0.16000   0.16000
     Eigenvalues ---    0.22067   0.23468   0.24977   0.25000   0.25011
     Eigenvalues ---    0.28850   0.29033   0.40953   0.41282   0.44599
     Eigenvalues ---    0.44656   0.44657
 RFO step:  Lambda=-1.01223676D+01 EMin=-1.01223539D+01
 I=     1 Eig=   -1.01D+01 Dot1= -7.06D-03
 I=     1 Stepn= -6.00D-01 RXN=   6.00D-01 EDone=F
 Mixed    1 eigenvectors in step.  Raw Step.Grad=  7.06D-03.
 RFO eigenvector is Hessian eigenvector with negative curvature.
 Taking step of  6.00D-01 in eigenvector direction(s).  Step.Grad= -4.37D-02.
 Skip linear search -- no minimum in search direction.
 Maximum step size (   0.505) exceeded in Quadratic search.
    -- Step size not scaled.
 Iteration  1 RMS(Cart)=  0.09235923 RMS(Int)=  0.01246228
 Iteration  2 RMS(Cart)=  0.01756371 RMS(Int)=  0.00015448
 Iteration  3 RMS(Cart)=  0.00003470 RMS(Int)=  0.00015204
 Iteration  4 RMS(Cart)=  0.00000000 RMS(Int)=  0.00015204
 ClnCor:  largest displacement from symmetrization is 1.11D-08 for atom     8.
 Variable       Old X    -DE/DX   Delta X   Delta X   Delta X     New X
                                 (Linear)    (Quad)   (Total)
    R1        2.63714  -0.00709   0.00000   0.21897   0.21897   2.85610
    R2        2.63314  -0.01405   0.00000   0.21961   0.21942   2.85256
    R3        3.30606  -0.03114   0.00000   0.06005   0.06005   3.36611
    R4        2.62800  -0.01795   0.00000   0.25489   0.25509   2.88309
    R5        3.17208  -0.11867   0.00000  -0.11148  -0.11148   3.06060
    R6        2.62800  -0.01795   0.00000   0.25491   0.25510   2.88310
    R7        3.16426  -0.11548   0.00000  -0.03968  -0.03968   3.12457
    R8        2.63715  -0.00709   0.00000   0.21897   0.21896   2.85611
    R9        3.17207  -0.11867   0.00000  -0.11148  -0.11148   3.06059
   R10        2.63313  -0.01404   0.00000   0.21961   0.21941   2.85254
   R11        3.30604  -0.03114   0.00000   0.06004   0.06004   3.36608
    A1        2.07995  -0.01321   0.00000   0.03019   0.03001   2.10996
    A2        2.10130   0.00644   0.00000  -0.01331  -0.01322   2.08808
    A3        2.10194   0.00677   0.00000  -0.01688  -0.01679   2.08515
    A4        2.09707   0.00200   0.00000  -0.01132  -0.01108   2.08599
    A5        2.09110  -0.00288   0.00000   0.00479   0.00466   2.09576
    A6        2.09502   0.00088   0.00000   0.00654   0.00642   2.10144
    A7        2.09926   0.00481   0.00000  -0.00975  -0.00929   2.08997
    A8        2.09196  -0.00241   0.00000   0.00487   0.00464   2.09661
    A9        2.09196  -0.00241   0.00000   0.00487   0.00464   2.09661
   A10        2.09706   0.00200   0.00000  -0.01132  -0.01108   2.08598
   A11        2.09503   0.00087   0.00000   0.00654   0.00642   2.10144
   A12        2.09110  -0.00288   0.00000   0.00479   0.00466   2.09576
   A13        2.07995  -0.01321   0.00000   0.03019   0.03001   2.10996
   A14        2.10129   0.00644   0.00000  -0.01331  -0.01322   2.08807
   A15        2.10195   0.00677   0.00000  -0.01688  -0.01679   2.08516
   A16        2.11308   0.01760   0.00000  -0.02798  -0.02857   2.08452
    D1        0.00000   0.00000   0.00000  -0.00000   0.00000   0.00000
    D2        3.14159   0.00000   0.00000   0.00000   0.00000   3.14159
    D3        3.14159  -0.00000   0.00000  -0.00000   0.00000   3.14159
    D4       -0.00000   0.00000   0.00000  -0.00000   0.00000   0.00000
    D5       -0.00000  -0.00000   0.00000  -0.00000   0.00000   0.00000
    D6        3.14159   0.00000   0.00000   0.00000   0.00000   3.14159
    D7       -0.00000   0.00000   0.00000   0.00000   0.00000   0.00000
    D8        3.14159   0.00000   0.00000   0.00000   0.00000   3.14159
    D9        3.14159  -0.00000   0.00000   0.00000   0.00000   3.14159
   D10        0.00000  -0.00000   0.00000   0.00000   0.00000   0.00000
   D11        0.00000  -0.00000   0.00000  -0.00000  -0.00000   0.00000
   D12        3.14159   0.00000   0.00000  -0.00000   0.00000   3.14159
   D13        3.14159  -0.00000   0.00000  -0.00000   0.00000   3.14159
   D14       -0.00000  -0.00000   0.00000  -0.00000   0.00000   0.00000
   D15       -0.00000   0.00000   0.00000   0.00000   0.00000   0.00000
   D16        3.14159   0.00000   0.00000   0.00000   0.00000   3.14159
   D17        3.14159  -0.00000   0.00000   0.00000   0.00000   3.14159
   D18        0.00000   0.00000   0.00000   0.00000   0.00000   0.00000
   D19        0.00000   0.00000   0.00000   0.00000   0.00000   0.00000
   D20        3.14159  -0.00000   0.00000  -0.00000   0.00000   3.14159
         Item               Value     Threshold  Converged?
 Maximum Force            0.118673     0.000450     NO 
 RMS     Force            0.031106     0.000300     NO 
 Maximum Displacement     0.261005     0.001800     NO 
 RMS     Displacement     0.107484     0.001200     NO 
 Predicted change in Energy=-1.829051D+00
 GradGradGradGradGradGradGradGradGradGradGradGradGradGradGradGradGradGrad

                          Input orientation:                          
 ---------------------------------------------------------------------
 Center     Atomic      Atomic             Coordinates (Angstroms)
 Number     Number       Type             X           Y           Z
 ---------------------------------------------------------------------
      1          6           0       -3.284252    0.254274    0.000000
      2          6           0       -2.005077    1.059256   -0.000000
      3          6           0       -0.661759    0.335965   -0.000000
      4          6           0       -0.623235   -1.189221   -0.000000
      5          6           0       -1.919224   -1.966853    0.000000
      6          6           0       -3.250255   -1.254853    0.000000
      7         17           0       -4.854386    1.095462    0.000000
      8          1           0        0.793888   -1.973350   -0.000000
      9         17           0       -1.877966   -3.747627    0.000000
     10          1           0       -2.064533    2.677764   -0.000000
     11          1           0        0.746930    1.201703   -0.000000
 ---------------------------------------------------------------------
                    Distance matrix (angstroms):
                    1          2          3          4          5
     1  C    0.000000
     2  C    1.511385   0.000000
     3  C    2.623765   1.525665   0.000000
     4  C    3.027325   2.639155   1.525673   0.000000
     5  C    2.607050   3.027327   2.623774   1.511390   0.000000
     6  C    1.509510   2.627844   3.038258   2.627841   1.509500
     7  Cl   1.781268   2.849539   4.260863   4.808578   4.241810
     8  H    4.646885   4.126851   2.729807   1.619597   2.713119
     9  Cl   4.241799   4.808563   4.260855   2.849525   1.781252
    10  H    2.713120   1.619600   2.729798   4.126853   4.646890
    11  H    4.141021   2.755691   1.653453   2.755697   4.141029
                    6          7          8          9         10
     6  C    0.000000
     7  Cl   2.845560   0.000000
     8  H    4.107473   6.428110   0.000000
     9  Cl   2.845541   5.684592   3.207314   0.000000
    10  H    4.107482   3.207329   5.459252   6.428100   0.000000
    11  H    4.691711   5.602323   3.175400   5.602316   3.175387
                   11
    11  H    0.000000
 Stoichiometry    C6H3Cl2(2)
 Framework group  CS[SG(C6H3Cl2)]
 Deg. of freedom    19
 Full point group                 CS      NOp   2
 Largest Abelian subgroup         CS      NOp   2
 Largest concise Abelian subgroup C1      NOp   1
                         Standard orientation:                         
 ---------------------------------------------------------------------
 Center     Atomic      Atomic             Coordinates (Angstroms)
 Number     Number       Type             X           Y           Z
 ---------------------------------------------------------------------
      1          6           0       -1.303523    0.072188    0.000000
      2          6           0       -1.319563   -1.439111   -0.000000
      3          6           0        0.000015   -2.204856   -0.000000
      4          6           0        1.319592   -1.439091   -0.000000
      5          6           0        1.303527    0.072214   -0.000000
      6          6           0       -0.000000    0.833403    0.000000
      7         17           0       -2.842307    0.969440    0.000000
      8          1           0        2.729646   -2.235859   -0.000000
      9         17           0        2.842286    0.969477   -0.000000
     10          1           0       -2.729606   -2.235907    0.000000
     11          1           0        0.000027   -3.858309   -0.000000
 ---------------------------------------------------------------------
 Rotational constants (GHZ):           2.4461527           0.7627309           0.5814347
 Standard basis: VSTO-6G (5D, 7F)
 There are    27 symmetry adapted cartesian basis functions of A'  symmetry.
 There are     8 symmetry adapted cartesian basis functions of A"  symmetry.
 There are    27 symmetry adapted basis functions of A'  symmetry.
 There are     8 symmetry adapted basis functions of A"  symmetry.
    35 basis functions,   210 primitive gaussians,    35 cartesian basis functions
    21 alpha electrons       20 beta electrons
       nuclear repulsion energy       185.3306030781 Hartrees.
 Integral buffers will be    131072 words long.
 Regular integral format.
 Two-electron integral symmetry is turned off.
 Do NDO integrals.
 One-electron integrals computed using PRISM.
 NBasis=    35 RedAO= T EigKep=  1.00D+00  NBF=    27     8
 NBsUse=    35 1.00D-06 EigRej= -1.00D+00 NBFU=    27     8
 Initial guess from the checkpoint file:  "geometry_chks/_24ClBzNeutralRadical.chk"
 B after Tr=    -0.000000    0.000000    0.000000
         Rot=    1.000000   -0.000000   -0.000000   -0.000002 Ang=  -0.00 deg.
 Initial guess orbital symmetries:
 Alpha Orbitals:
       Occupied  (A') (A') (A') (A') (A') (A') (A') (A') (A') (A')
                 (A") (A') (A") (A') (A') (A") (A') (A') (A') (A")
                 (A")
       Virtual   (A") (A') (A") (A') (A') (A') (A') (A") (A') (A')
                 (A') (A') (A') (A')
 Beta  Orbitals:
       Occupied  (A') (A') (A') (A') (A') (A') (A') (A') (A') (A')
                 (A") (A") (A') (A') (A") (A') (A') (A') (A") (A")
       Virtual   (A') (A") (A') (A') (A') (A") (A') (A') (A") (A')
                 (A') (A') (A') (A') (A')
 Initial guess <Sx>= 0.0000 <Sy>= 0.0000 <Sz>= 0.5000 <S**2>= 1.4489 S= 0.8034
 Keep J ints in memory in canonical form, NReq=862793.
 Overlap will be assumed to be unity.
 Requested convergence on RMS density matrix=1.00D-08 within  32 cycles.
 Requested convergence on MAX density matrix=1.00D-06.
 Requested convergence on             energy=1.00D-06.
 No special actions if energy rises.
 Fock symm off for IB=2 I1=    1 I=   28 J=    6 Cut=1.00D-07 Err=4.81D-03
 Fock matrix is not symmetric: symmetry in diagonalization turned off.
 Rare condition: small coef for last iteration:  0.000D+00
 SCF Done:  E(UAM1) =  0.488437682722     A.U. after   21 cycles
            NFock= 20  Conv=0.54D-08     -V/T= 1.0054
 <Sx>= 0.0000 <Sy>= 0.0000 <Sz>= 0.5000 <S**2>= 2.1546 S= 1.0507
 <L.S>=  0.00000000000    
 Annihilation of the first spin contaminant:
 S**2 before annihilation     2.1546,   after     3.2322
 QCSCF skips out because SCF is already converged.
 Calling FoFJK, ICntrl=      2127 FMM=F ISym2X=1 I1Cent= 0 IOpClX= 1 NMat=1 NMatS=1 NMatT=0.
 ***** Axes restored to original set *****
 -------------------------------------------------------------------
 Center     Atomic                   Forces (Hartrees/Bohr)
 Number     Number              X              Y              Z
 -------------------------------------------------------------------
      1        6           0.038404940   -0.027165578   -0.000000000
      2        6           0.017223335   -0.005591308    0.000000000
      3        6          -0.015897532   -0.009773269   -0.000000000
      4        6           0.002789925    0.017894057    0.000000000
      5        6          -0.006884455    0.046538324   -0.000000000
      6        6           0.121355177    0.074585439    0.000000000
      7       17           0.049715878   -0.026119264   -0.000000000
      8        1          -0.108206362    0.058622094    0.000000000
      9       17          -0.000846171    0.056146885   -0.000000000
     10        1           0.003423401   -0.123017806    0.000000000
     11        1          -0.101078136   -0.062119575    0.000000000
 -------------------------------------------------------------------
 Cartesian Forces:  Max     0.123017806 RMS     0.048113909

 GradGradGradGradGradGradGradGradGradGradGradGradGradGradGradGradGradGrad
 Berny optimization.
 Using GEDIIS/GDIIS optimizer.
 FormGI is forming the generalized inverse of G from B-inverse, IUseBI=4.
 Internal  Forces:  Max     0.131431988 RMS     0.055307779
 Search for a local minimum.
 Step number   3 out of a maximum of   57
 All quantities printed in internal units (Hartrees-Bohrs-Radians)
 Mixed Optimization -- RFO/linear search
 Update second derivatives using D2CorX and points    1    3    2
 ITU=  0  1  0
 Use linear search instead of GDIIS.
     Eigenvalues ---    0.00016   0.02011   0.02011   0.02011   0.02011
     Eigenvalues ---    0.02011   0.02011   0.02011   0.02011   0.06524
     Eigenvalues ---    0.06717   0.15996   0.16000   0.16000   0.22055
     Eigenvalues ---    0.23499   0.23855   0.25000   0.25000   0.28710
     Eigenvalues ---    0.29033   0.41219   0.41387   0.44098   0.44656
     Eigenvalues ---    0.44657   0.50750
 RFO could not converge Lambda in  999 iterations.
 Quartic linear search produced a step of -0.96901.
 Iteration  1 RMS(Cart)=  0.09192378 RMS(Int)=  0.01028863
 Iteration  2 RMS(Cart)=  0.01509291 RMS(Int)=  0.00002788
 Iteration  3 RMS(Cart)=  0.00003293 RMS(Int)=  0.00000455
 Iteration  4 RMS(Cart)=  0.00000000 RMS(Int)=  0.00000455
 ClnCor:  largest displacement from symmetrization is 8.80D-12 for atom    11.
 Variable       Old X    -DE/DX   Delta X   Delta X   Delta X     New X
                                 (Linear)    (Quad)   (Total)
    R1        2.85610  -0.11848  -0.21218   0.00000  -0.21218   2.64392
    R2        2.85256  -0.12210  -0.21262   0.00000  -0.21261   2.63995
    R3        3.36611  -0.05616  -0.05819   0.00000  -0.05819   3.30792
    R4        2.88309  -0.13143  -0.24718   0.00000  -0.24719   2.63590
    R5        3.06060  -0.12306   0.10802   0.00000   0.10802   3.16862
    R6        2.88310  -0.13143  -0.24720   0.00000  -0.24720   2.63590
    R7        3.12457  -0.11864   0.03845   0.00000   0.03845   3.16303
    R8        2.85611  -0.11848  -0.21218   0.00000  -0.21218   2.64394
    R9        3.06059  -0.12306   0.10802   0.00000   0.10802   3.16861
   R10        2.85254  -0.12209  -0.21261   0.00000  -0.21261   2.63993
   R11        3.36608  -0.05615  -0.05818   0.00000  -0.05818   3.30790
    A1        2.10996  -0.01141  -0.02908   0.00000  -0.02907   2.08088
    A2        2.08808   0.00494   0.01281   0.00000   0.01281   2.10088
    A3        2.08515   0.00647   0.01627   0.00000   0.01627   2.10142
    A4        2.08599   0.00132   0.01074   0.00000   0.01073   2.09672
    A5        2.09576  -0.00234  -0.00452   0.00000  -0.00451   2.09125
    A6        2.10144   0.00101  -0.00622   0.00000  -0.00621   2.09522
    A7        2.08997   0.00617   0.00900   0.00000   0.00899   2.09896
    A8        2.09661  -0.00309  -0.00450   0.00000  -0.00449   2.09211
    A9        2.09661  -0.00309  -0.00450   0.00000  -0.00449   2.09211
   A10        2.08598   0.00132   0.01074   0.00000   0.01073   2.09671
   A11        2.10144   0.00101  -0.00622   0.00000  -0.00621   2.09523
   A12        2.09576  -0.00234  -0.00452   0.00000  -0.00452   2.09124
   A13        2.10996  -0.01141  -0.02908   0.00000  -0.02907   2.08088
   A14        2.08807   0.00494   0.01281   0.00000   0.01280   2.10088
   A15        2.08516   0.00647   0.01627   0.00000   0.01627   2.10142
   A16        2.08452   0.01400   0.02768   0.00000   0.02770   2.11221
    D1       -0.00000   0.00000   0.00000   0.00000   0.00000   0.00000
    D2        3.14159   0.00000   0.00000   0.00000   0.00000   3.14159
    D3        3.14159  -0.00000   0.00000   0.00000   0.00000   3.14159
    D4        0.00000  -0.00000   0.00000   0.00000  -0.00000   0.00000
    D5        0.00000  -0.00000   0.00000   0.00000   0.00000   0.00000
    D6        3.14159   0.00000   0.00000   0.00000   0.00000   3.14159
    D7        0.00000  -0.00000   0.00000   0.00000  -0.00000   0.00000
    D8        3.14159  -0.00000   0.00000   0.00000   0.00000   3.14159
    D9        3.14159  -0.00000   0.00000   0.00000   0.00000   3.14159
   D10       -0.00000  -0.00000   0.00000   0.00000   0.00000   0.00000
   D11        0.00000  -0.00000   0.00000   0.00000   0.00000   0.00000
   D12        3.14159   0.00000   0.00000   0.00000   0.00000   3.14159
   D13        3.14159  -0.00000   0.00000   0.00000   0.00000   3.14159
   D14       -0.00000  -0.00000   0.00000   0.00000   0.00000   0.00000
   D15       -0.00000   0.00000   0.00000   0.00000   0.00000   0.00000
   D16        3.14159   0.00000   0.00000   0.00000   0.00000   3.14159
   D17        3.14159  -0.00000   0.00000   0.00000   0.00000   3.14159
   D18       -0.00000  -0.00000   0.00000   0.00000   0.00000   0.00000
   D19        0.00000   0.00000   0.00000   0.00000  -0.00000   0.00000
   D20        3.14159   0.00000   0.00000   0.00000   0.00000   3.14159
         Item               Value     Threshold  Converged?
 Maximum Force            0.131432     0.000450     NO 
 RMS     Force            0.055308     0.000300     NO 
 Maximum Displacement     0.252856     0.001800     NO 
 RMS     Displacement     0.104145     0.001200     NO 
 Predicted change in Energy=-1.140829D-02
 GradGradGradGradGradGradGradGradGradGradGradGradGradGradGradGradGradGrad

                          Input orientation:                          
 ---------------------------------------------------------------------
 Center     Atomic      Atomic             Coordinates (Angstroms)
 Number     Number       Type             X           Y           Z
 ---------------------------------------------------------------------
      1          6           0       -3.192283    0.208075    0.000000
      2          6           0       -1.996933    0.935143   -0.000000
      3          6           0       -0.771770    0.268352   -0.000000
      4          6           0       -0.730284   -1.125889   -0.000000
      5          6           0       -1.918899   -1.863930    0.000000
      6          6           0       -3.141482   -1.188001    0.000000
      7         17           0       -4.733271    1.038449    0.000000
      8          1           0        0.745461   -1.921938   -0.000000
      9         17           0       -1.874122   -3.613821    0.000000
     10          1           0       -2.040542    2.611339   -0.000000
     11          1           0        0.654255    1.144743   -0.000000
 ---------------------------------------------------------------------
                    Distance matrix (angstroms):
                    1          2          3          4          5
     1  C    0.000000
     2  C    1.399103   0.000000
     3  C    2.421264   1.394859   0.000000
     4  C    2.800161   2.419143   1.394859   0.000000
     5  C    2.432019   2.800161   2.421267   1.399110   0.000000
     6  C    1.397000   2.411997   2.781456   2.411997   1.396993
     7  Cl   1.750475   2.738287   4.035658   4.550633   4.042832
     8  H    4.476918   3.960257   2.664463   1.676758   2.664992
     9  Cl   4.042826   4.550622   4.035648   2.738279   1.750464
    10  H    2.664992   1.676763   2.664464   3.960259   4.476922
    11  H    3.958940   2.659461   1.673801   2.659459   3.958944
                    6          7          8          9         10
     6  C    0.000000
     7  Cl   2.736945   0.000000
     8  H    3.955628   6.227391   0.000000
     9  Cl   2.736934   5.460618   3.118443   0.000000
    10  H    3.955635   3.118456   5.320941   6.227384   0.000000
    11  H    4.455257   5.388575   3.068037   5.388564   3.068034
                   11
    11  H    0.000000
 Stoichiometry    C6H3Cl2(2)
 Framework group  CS[SG(C6H3Cl2)]
 Deg. of freedom    19
 Full point group                 CS      NOp   2
 Largest Abelian subgroup         CS      NOp   2
 Largest concise Abelian subgroup C1      NOp   1
                         Standard orientation:                         
 ---------------------------------------------------------------------
 Center     Atomic      Atomic             Coordinates (Angstroms)
 Number     Number       Type             X           Y           Z
 ---------------------------------------------------------------------
      1          6           0       -1.216009    0.049543   -0.000000
      2          6           0       -1.209563   -1.349545   -0.000000
      3          6           0        0.000011   -2.044212    0.000000
      4          6           0        1.209580   -1.349536    0.000000
      5          6           0        1.216010    0.049559    0.000000
      6          6           0       -0.000000    0.737243   -0.000000
      7         17           0       -2.730315    0.927631   -0.000000
      8          1           0        2.660482   -2.190012    0.000000
      9         17           0        2.730303    0.927649    0.000000
     10          1           0       -2.660459   -2.190043   -0.000000
     11          1           0        0.000019   -3.718013    0.000000
 ---------------------------------------------------------------------
 Rotational constants (GHZ):           2.7533279           0.8336485           0.6399004
 Standard basis: VSTO-6G (5D, 7F)
 There are    27 symmetry adapted cartesian basis functions of A'  symmetry.
 There are     8 symmetry adapted cartesian basis functions of A"  symmetry.
 There are    27 symmetry adapted basis functions of A'  symmetry.
 There are     8 symmetry adapted basis functions of A"  symmetry.
    35 basis functions,   210 primitive gaussians,    35 cartesian basis functions
    21 alpha electrons       20 beta electrons
       nuclear repulsion energy       191.2891712184 Hartrees.
 Integral buffers will be    131072 words long.
 Regular integral format.
 Two-electron integral symmetry is turned off.
 Do NDO integrals.
 One-electron integrals computed using PRISM.
 NBasis=    35 RedAO= T EigKep=  1.00D+00  NBF=    27     8
 NBsUse=    35 1.00D-06 EigRej= -1.00D+00 NBFU=    27     8
 Lowest energy guess from the checkpoint file:  "geometry_chks/_24ClBzNeutralRadical.chk"
 B after Tr=    -0.000000    0.000000    0.000000
         Rot=    1.000000   -0.000000   -0.000000   -0.000000 Ang=  -0.00 deg.
 B after Tr=     0.000000   -0.000000   -0.000000
         Rot=    1.000000    0.000000    0.000000    0.000002 Ang=   0.00 deg.
 Initial guess orbital symmetries:
 Alpha Orbitals:
       Occupied  (A") (A") (A") (A') (A') (A') (A') (A') (A') (A')
                 (A') (A') (A') (A') (A") (A") (A") (A") (A") (A")
                 (A")
       Virtual   (A") (A") (A") (A') (A') (A') (A') (A') (A') (A')
                 (A') (A') (A') (A')
 Beta  Orbitals:
       Occupied  (A") (A") (A") (A') (A') (A') (A') (A') (A') (A')
                 (A') (A') (A') (A') (A') (A") (A") (A") (A") (A")
       Virtual   (A") (A") (A") (A') (A') (A') (A') (A') (A') (A')
                 (A') (A') (A') (A') (A')
 Initial guess <Sx>= 0.0000 <Sy>= 0.0000 <Sz>= 0.5000 <S**2>= 1.4678 S= 0.8107
 Keep J ints in memory in canonical form, NReq=862793.
 Overlap will be assumed to be unity.
 Requested convergence on RMS density matrix=1.00D-08 within  32 cycles.
 Requested convergence on MAX density matrix=1.00D-06.
 Requested convergence on             energy=1.00D-06.
 No special actions if energy rises.
 An orbital has undefined symmetry, so N**3 symmetry is turned off.
 SCF Done:  E(UAM1) =  0.405966532074     A.U. after   17 cycles
            NFock= 16  Conv=0.99D-08     -V/T= 1.0045
 <Sx>= 0.0000 <Sy>= 0.0000 <Sz>= 0.5000 <S**2>= 1.4699 S= 0.8115
 <L.S>=  0.00000000000    
 Annihilation of the first spin contaminant:
 S**2 before annihilation     1.4699,   after     1.3539
 QCSCF skips out because SCF is already converged.
 Calling FoFJK, ICntrl=      2127 FMM=F ISym2X=1 I1Cent= 0 IOpClX= 1 NMat=1 NMatS=1 NMatT=0.
 ***** Axes restored to original set *****
 -------------------------------------------------------------------
 Center     Atomic                   Forces (Hartrees/Bohr)
 Number     Number              X              Y              Z
 -------------------------------------------------------------------
      1        6          -0.036238440    0.009913336   -0.000000000
      2        6           0.014127043    0.095610921   -0.000000000
      3        6           0.075287422    0.046267995   -0.000000000
      4        6           0.091678483   -0.030585156   -0.000000000
      5        6          -0.007516386   -0.036804562   -0.000000000
      6        6           0.036857229    0.022656714    0.000000000
      7       17           0.028271849   -0.015107670    0.000000000
      8        1          -0.105167454    0.055394573    0.000000000
      9       17          -0.000708331    0.032042166    0.000000000
     10        1           0.001916606   -0.118848433    0.000000000
     11        1          -0.098508021   -0.060539883    0.000000000
 -------------------------------------------------------------------
 Cartesian Forces:  Max     0.118848433 RMS     0.047630433

 GradGradGradGradGradGradGradGradGradGradGradGradGradGradGradGradGradGrad
 Berny optimization.
 Using GEDIIS/GDIIS optimizer.
 FormGI is forming the generalized inverse of G from B-inverse, IUseBI=4.
 Internal  Forces:  Max     0.118858619 RMS     0.031506170
 Search for a local minimum.
 Step number   4 out of a maximum of   57
 All quantities printed in internal units (Hartrees-Bohrs-Radians)
 Mixed Optimization -- RFO/linear search
 Update second derivatives using D2CorX and points    1    3    2    4
 DE= -1.09D-04 DEPred=-1.14D-02 R= 9.52D-03
 Trust test= 9.52D-03 RLast= 1.86D-02 DXMaxT set to 2.52D-01
 ITU= -1  0  1  0
 Use linear search instead of GDIIS.
     Eigenvalues ---    0.00009   0.02011   0.02011   0.02011   0.02011
     Eigenvalues ---    0.02011   0.02011   0.02011   0.02011   0.06524
     Eigenvalues ---    0.06653   0.15996   0.16000   0.16000   0.22060
     Eigenvalues ---    0.23469   0.24061   0.25000   0.25000   0.28580
     Eigenvalues ---    0.29033   0.40968   0.41228   0.44476   0.44656
     Eigenvalues ---    0.44657   0.71843
 RFO could not converge Lambda in  999 iterations.
 Quartic linear search produced a step of -0.00303.
 Iteration  1 RMS(Cart)=  0.00001012 RMS(Int)=  0.00000000
 Iteration  2 RMS(Cart)=  0.00000000 RMS(Int)=  0.00000000
 ClnCor:  largest displacement from symmetrization is 2.70D-15 for atom    10.
 Variable       Old X    -DE/DX   Delta X   Delta X   Delta X     New X
                                 (Linear)    (Quad)   (Total)
    R1        2.64392  -0.01208  -0.00002   0.00000  -0.00002   2.64390
    R2        2.63995  -0.01889  -0.00002   0.00000  -0.00002   2.63993
    R3        3.30792  -0.03206  -0.00001   0.00000  -0.00001   3.30791
    R4        2.63590  -0.02325  -0.00002   0.00000  -0.00002   2.63588
    R5        3.16862  -0.11886   0.00001   0.00000   0.00001   3.16863
    R6        2.63590  -0.02325  -0.00002   0.00000  -0.00002   2.63588
    R7        3.16303  -0.11562   0.00000   0.00000   0.00000   3.16303
    R8        2.64394  -0.01209  -0.00002   0.00000  -0.00002   2.64392
    R9        3.16861  -0.11886   0.00001   0.00000   0.00001   3.16862
   R10        2.63993  -0.01888  -0.00002   0.00000  -0.00002   2.63991
   R11        3.30790  -0.03205  -0.00001   0.00000  -0.00001   3.30789
    A1        2.08088  -0.01320  -0.00000   0.00000  -0.00000   2.08088
    A2        2.10088   0.00641   0.00000   0.00000   0.00000   2.10088
    A3        2.10142   0.00678   0.00000   0.00000   0.00000   2.10142
    A4        2.09672   0.00202   0.00000   0.00000   0.00000   2.09672
    A5        2.09125  -0.00287  -0.00000   0.00000  -0.00000   2.09125
    A6        2.09522   0.00085  -0.00000   0.00000  -0.00000   2.09522
    A7        2.09896   0.00493   0.00000   0.00000   0.00000   2.09896
    A8        2.09211  -0.00247  -0.00000   0.00000  -0.00000   2.09211
    A9        2.09211  -0.00247  -0.00000   0.00000  -0.00000   2.09211
   A10        2.09671   0.00202   0.00000   0.00000   0.00000   2.09671
   A11        2.09523   0.00085  -0.00000   0.00000  -0.00000   2.09523
   A12        2.09124  -0.00287  -0.00000   0.00000  -0.00000   2.09124
   A13        2.08088  -0.01320  -0.00000   0.00000  -0.00000   2.08088
   A14        2.10088   0.00642   0.00000   0.00000   0.00000   2.10088
   A15        2.10142   0.00678   0.00000   0.00000   0.00000   2.10143
   A16        2.11221   0.01743   0.00000   0.00000   0.00000   2.11222
    D1       -0.00000   0.00000   0.00000   0.00000   0.00000   0.00000
    D2        3.14159   0.00000   0.00000   0.00000   0.00000   3.14159
    D3        3.14159  -0.00000   0.00000   0.00000   0.00000   3.14159
    D4        0.00000   0.00000   0.00000   0.00000   0.00000   0.00000
    D5        0.00000  -0.00000   0.00000   0.00000   0.00000   0.00000
    D6        3.14159   0.00000   0.00000   0.00000   0.00000   3.14159
    D7        0.00000  -0.00000   0.00000   0.00000   0.00000   0.00000
    D8        3.14159   0.00000   0.00000   0.00000   0.00000   3.14159
    D9        3.14159  -0.00000   0.00000   0.00000   0.00000   3.14159
   D10       -0.00000   0.00000   0.00000   0.00000   0.00000   0.00000
   D11       -0.00000   0.00000   0.00000   0.00000   0.00000   0.00000
   D12        3.14159   0.00000   0.00000   0.00000   0.00000   3.14159
   D13        3.14159  -0.00000   0.00000   0.00000   0.00000   3.14159
   D14        0.00000   0.00000   0.00000   0.00000   0.00000   0.00000
   D15        0.00000  -0.00000   0.00000   0.00000   0.00000   0.00000
   D16        3.14159   0.00000   0.00000   0.00000   0.00000   3.14159
   D17        3.14159  -0.00000   0.00000   0.00000   0.00000   3.14159
   D18       -0.00000  -0.00000   0.00000   0.00000   0.00000   0.00000
   D19       -0.00000   0.00000   0.00000   0.00000   0.00000   0.00000
   D20        3.14159  -0.00000   0.00000   0.00000   0.00000   3.14159
         Item               Value     Threshold  Converged?
 Maximum Force            0.118859     0.000450     NO 
 RMS     Force            0.031506     0.000300     NO 
 Maximum Displacement     0.000025     0.001800     YES
 RMS     Displacement     0.000010     0.001200     YES
 Predicted change in Energy=-9.833548D-10
 GradGradGradGradGradGradGradGradGradGradGradGradGradGradGradGradGradGrad

                          Input orientation:                          
 ---------------------------------------------------------------------
 Center     Atomic      Atomic             Coordinates (Angstroms)
 Number     Number       Type             X           Y           Z
 ---------------------------------------------------------------------
      1          6           0       -3.192275    0.208070    0.000000
      2          6           0       -1.996932    0.935131   -0.000000
      3          6           0       -0.771781    0.268346   -0.000000
      4          6           0       -0.730295   -1.125883   -0.000000
      5          6           0       -1.918899   -1.863920    0.000000
      6          6           0       -3.141471   -1.187994    0.000000
      7         17           0       -4.733259    1.038443    0.000000
      8          1           0        0.745457   -1.921933   -0.000000
      9         17           0       -1.874122   -3.613808    0.000000
     10          1           0       -2.040540    2.611332   -0.000000
     11          1           0        0.654246    1.144737   -0.000000
 ---------------------------------------------------------------------
                    Distance matrix (angstroms):
                    1          2          3          4          5
     1  C    0.000000
     2  C    1.399092   0.000000
     3  C    2.421244   1.394847   0.000000
     4  C    2.800139   2.419121   1.394846   0.000000
     5  C    2.432001   2.800138   2.421247   1.399100   0.000000
     6  C    1.396989   2.411976   2.781431   2.411977   1.396982
     7  Cl   1.750472   2.738277   4.035636   4.550608   4.042813
     8  H    4.476901   3.960241   2.664457   1.676764   2.664987
     9  Cl   4.042807   4.550596   4.035626   2.738268   1.750461
    10  H    2.664988   1.676769   2.664458   3.960243   4.476905
    11  H    3.958923   2.659452   1.673803   2.659450   3.958927
                    6          7          8          9         10
     6  C    0.000000
     7  Cl   2.736935   0.000000
     8  H    3.955613   6.227371   0.000000
     9  Cl   2.736923   5.460596   3.118434   0.000000
    10  H    3.955620   3.118448   5.320928   6.227365   0.000000
    11  H    4.455234   5.388554   3.068027   5.388544   3.068024
                   11
    11  H    0.000000
 Stoichiometry    C6H3Cl2(2)
 Framework group  CS[SG(C6H3Cl2)]
 Deg. of freedom    19
 Full point group                 CS      NOp   2
 Largest Abelian subgroup         CS      NOp   2
 Largest concise Abelian subgroup C1      NOp   1
                         Standard orientation:                         
 ---------------------------------------------------------------------
 Center     Atomic      Atomic             Coordinates (Angstroms)
 Number     Number       Type             X           Y           Z
 ---------------------------------------------------------------------
      1          6           0       -1.216000    0.049541   -0.000000
      2          6           0       -1.209553   -1.349536   -0.000000
      3          6           0        0.000011   -2.044197   -0.000000
      4          6           0        1.209569   -1.349528    0.000000
      5          6           0        1.216001    0.049557    0.000000
      6          6           0       -0.000000    0.737234    0.000000
      7         17           0       -2.730304    0.927627   -0.000000
      8          1           0        2.660475   -2.190008    0.000000
      9         17           0        2.730292    0.927645    0.000000
     10          1           0       -2.660452   -2.190039   -0.000000
     11          1           0        0.000019   -3.718000   -0.000000
 ---------------------------------------------------------------------
 Rotational constants (GHZ):           2.7533603           0.8336559           0.6399065
 Standard basis: VSTO-6G (5D, 7F)
 There are    27 symmetry adapted cartesian basis functions of A'  symmetry.
 There are     8 symmetry adapted cartesian basis functions of A"  symmetry.
 There are    27 symmetry adapted basis functions of A'  symmetry.
 There are     8 symmetry adapted basis functions of A"  symmetry.
    35 basis functions,   210 primitive gaussians,    35 cartesian basis functions
    21 alpha electrons       20 beta electrons
       nuclear repulsion energy       191.2897836842 Hartrees.
 Integral buffers will be    131072 words long.
 Regular integral format.
 Two-electron integral symmetry is turned off.
 Do NDO integrals.
 One-electron integrals computed using PRISM.
 NBasis=    35 RedAO= T EigKep=  1.00D+00  NBF=    27     8
 NBsUse=    35 1.00D-06 EigRej= -1.00D+00 NBFU=    27     8
 Initial guess from the checkpoint file:  "geometry_chks/_24ClBzNeutralRadical.chk"
 B after Tr=    -0.000000    0.000000   -0.000000
         Rot=    1.000000    0.000000    0.000000    0.000000 Ang=   0.00 deg.
 Initial guess orbital symmetries:
 Alpha Orbitals:
       Occupied  (A') (A') (A') (A') (A') (A') (A') (A') (A') (A')
                 (A") (A') (A") (A') (A') (A") (A') (A') (A') (A")
                 (A")
       Virtual   (A") (A') (A") (A') (A') (A') (A') (A") (A') (A')
                 (A') (A') (A') (A')
 Beta  Orbitals:
       Occupied  (A') (A') (A') (A') (A') (A') (A') (A') (A') (A')
                 (A") (A") (A') (A') (A") (A') (A') (A') (A") (A")
       Virtual   (A') (A") (A') (A') (A') (A") (A') (A') (A") (A')
                 (A') (A') (A') (A') (A')
 Initial guess <Sx>= 0.0000 <Sy>= 0.0000 <Sz>= 0.5000 <S**2>= 1.4699 S= 0.8115
 Keep J ints in memory in canonical form, NReq=862793.
 Overlap will be assumed to be unity.
[...]
 ClnCor:  largest displacement from symmetrization is 5.26D-14 for atom     7.
 Variable       Old X    -DE/DX   Delta X   Delta X   Delta X     New X
                                 (Linear)    (Quad)   (Total)
    R1        2.67030   0.00028   0.00005   0.00042   0.00048   2.67078
    R2        2.59881  -0.00025  -0.00004  -0.00044  -0.00048   2.59833
    R3        3.18108  -0.00018  -0.00035  -0.00003  -0.00038   3.18071
    R4        2.64805   0.00016   0.00020   0.00010   0.00030   2.64835
    R5        2.07709  -0.00006  -0.00026  -0.00015  -0.00041   2.07668
    R6        2.64804   0.00017   0.00020   0.00011   0.00031   2.64835
    R7        2.08099  -0.00009  -0.00032   0.00001  -0.00031   2.08068
    R8        2.67030   0.00028   0.00005   0.00043   0.00048   2.67079
    R9        2.07696  -0.00001  -0.00023   0.00037   0.00014   2.07710
   R10        2.59881  -0.00025  -0.00004  -0.00044  -0.00048   2.59833
   R11        3.18108  -0.00018  -0.00035  -0.00003  -0.00038   3.18071
    A1        2.01531   0.00015   0.00027   0.00013   0.00040   2.01571
    A2        2.13076  -0.00008   0.00014  -0.00037  -0.00022   2.13053
    A3        2.13712  -0.00007  -0.00041   0.00023  -0.00018   2.13694
    A4        2.08261  -0.00000   0.00009   0.00000   0.00009   2.08271
    A5        2.09672  -0.00000   0.00002  -0.00011  -0.00008   2.09664
    A6        2.10385   0.00001  -0.00011   0.00010  -0.00001   2.10384
    A7        2.13273  -0.00021  -0.00034  -0.00025  -0.00059   2.13213
    A8        2.07523   0.00010   0.00017   0.00013   0.00030   2.07552
    A9        2.07523   0.00010   0.00017   0.00013   0.00030   2.07553
   A10        2.08261  -0.00001   0.00009  -0.00000   0.00008   2.08270
   A11        2.10385   0.00001  -0.00011   0.00011  -0.00001   2.10384
   A12        2.09672  -0.00000   0.00002  -0.00010  -0.00008   2.09664
   A13        2.01531   0.00015   0.00027   0.00014   0.00041   2.01572
   A14        2.13076  -0.00008   0.00014  -0.00037  -0.00023   2.13053
   A15        2.13712  -0.00007  -0.00041   0.00023  -0.00018   2.13694
   A16        2.23780  -0.00008  -0.00038  -0.00001  -0.00040   2.23740
    D1        0.00000  -0.00000   0.00000   0.00000   0.00000   0.00000
    D2        3.14159   0.00000   0.00000   0.00000   0.00000   3.14159
    D3        3.14159  -0.00000   0.00000  -0.00000   0.00000   3.14159
    D4        0.00000  -0.00000   0.00000  -0.00000   0.00000   0.00000
    D5        0.00000  -0.00000   0.00000  -0.00000   0.00000   0.00000
    D6        3.14159   0.00000   0.00000   0.00000   0.00000   3.14159
    D7        0.00000  -0.00000   0.00000  -0.00000   0.00000   0.00000
    D8        3.14159   0.00000   0.00000   0.00000   0.00000   3.14159
    D9        3.14159  -0.00000   0.00000  -0.00000   0.00000   3.14159
   D10        0.00000  -0.00000   0.00000  -0.00000   0.00000   0.00000
   D11        0.00000   0.00000   0.00000   0.00000   0.00000   0.00000
   D12        3.14159   0.00000   0.00000   0.00000   0.00000   3.14159
   D13        3.14159  -0.00000   0.00000  -0.00000   0.00000   3.14159
   D14        0.00000  -0.00000   0.00000   0.00000   0.00000   0.00000
   D15        0.00000  -0.00000   0.00000  -0.00000   0.00000   0.00000
   D16        3.14159   0.00000   0.00000   0.00000   0.00000   3.14159
   D17        3.14159  -0.00000   0.00000  -0.00000   0.00000   3.14159
   D18        0.00000   0.00000   0.00000   0.00000   0.00000   0.00000
   D19        0.00000   0.00000   0.00000   0.00000   0.00000   0.00000
   D20        3.14159  -0.00000   0.00000  -0.00000   0.00000   3.14159
         Item               Value     Threshold  Converged?
 Maximum Force            0.000280     0.000450     YES
 RMS     Force            0.000108     0.000300     YES
 Maximum Displacement     0.000841     0.001800     YES
 RMS     Displacement     0.000334     0.001200     YES
 Predicted change in Energy=-6.011642D-07
 Optimization completed.
    -- Stationary point found.
                           ----------------------------
                           !   Optimized Parameters   !
                           ! (Angstroms and Degrees)  !
 --------------------------                            --------------------------
 ! Name  Definition              Value          Derivative Info.                !
 --------------------------------------------------------------------------------
 ! R1    R(1,2)                  1.4131         -DE/DX =    0.0003              !
 ! R2    R(1,6)                  1.3752         -DE/DX =   -0.0003              !
 ! R3    R(1,7)                  1.6834         -DE/DX =   -0.0002              !
 ! R4    R(2,3)                  1.4013         -DE/DX =    0.0002              !
 ! R5    R(2,10)                 1.0991         -DE/DX =   -0.0001              !
 ! R6    R(3,4)                  1.4013         -DE/DX =    0.0002              !
 ! R7    R(3,11)                 1.1012         -DE/DX =   -0.0001              !
 ! R8    R(4,5)                  1.4131         -DE/DX =    0.0003              !
 ! R9    R(4,8)                  1.0991         -DE/DX =    0.0                 !
 ! R10   R(5,6)                  1.3752         -DE/DX =   -0.0003              !
 ! R11   R(5,9)                  1.6834         -DE/DX =   -0.0002              !
 ! A1    A(2,1,6)              115.4689         -DE/DX =    0.0002              !
 ! A2    A(2,1,7)              122.0833         -DE/DX =   -0.0001              !
 ! A3    A(6,1,7)              122.4478         -DE/DX =   -0.0001              !
 ! A4    A(1,2,3)              119.3249         -DE/DX =    0.0                 !
 ! A5    A(1,2,10)             120.1335         -DE/DX =    0.0                 !
 ! A6    A(3,2,10)             120.5417         -DE/DX =    0.0                 !
 ! A7    A(2,3,4)              122.1962         -DE/DX =   -0.0002              !
 ! A8    A(2,3,11)             118.9019         -DE/DX =    0.0001              !
 ! A9    A(4,3,11)             118.9019         -DE/DX =    0.0001              !
 ! A10   A(3,4,5)              119.325          -DE/DX =    0.0                 !
 ! A11   A(3,4,8)              120.5416         -DE/DX =    0.0                 !
 ! A12   A(5,4,8)              120.1333         -DE/DX =    0.0                 !
 ! A13   A(4,5,6)              115.4688         -DE/DX =    0.0002              !
 ! A14   A(4,5,9)              122.0833         -DE/DX =   -0.0001              !
 ! A15   A(6,5,9)              122.4479         -DE/DX =   -0.0001              !
 ! A16   A(1,6,5)              128.2162         -DE/DX =   -0.0001              !
 ! D1    D(6,1,2,3)              0.0            -DE/DX =    0.0                 !
 ! D2    D(6,1,2,10)           180.0            -DE/DX =    0.0                 !
 ! D3    D(7,1,2,3)            180.0            -DE/DX =    0.0                 !
 ! D4    D(7,1,2,10)             0.0            -DE/DX =    0.0                 !
 ! D5    D(2,1,6,5)              0.0            -DE/DX =    0.0                 !
 ! D6    D(7,1,6,5)            180.0            -DE/DX =    0.0                 !
 ! D7    D(1,2,3,4)              0.0            -DE/DX =    0.0                 !
 ! D8    D(1,2,3,11)           180.0            -DE/DX =    0.0                 !
 ! D9    D(10,2,3,4)           180.0            -DE/DX =    0.0                 !
 ! D10   D(10,2,3,11)            0.0            -DE/DX =    0.0                 !
 ! D11   D(2,3,4,5)              0.0            -DE/DX =    0.0                 !
 ! D12   D(2,3,4,8)            180.0            -DE/DX =    0.0                 !
 ! D13   D(11,3,4,5)           180.0            -DE/DX =    0.0                 !
 ! D14   D(11,3,4,8)             0.0            -DE/DX =    0.0                 !
 ! D15   D(3,4,5,6)              0.0            -DE/DX =    0.0                 !
 ! D16   D(3,4,5,9)            180.0            -DE/DX =    0.0                 !
 ! D17   D(8,4,5,6)            180.0            -DE/DX =    0.0                 !
 ! D18   D(8,4,5,9)              0.0            -DE/DX =    0.0                 !
 ! D19   D(4,5,6,1)              0.0            -DE/DX =    0.0                 !
 ! D20   D(9,5,6,1)            180.0            -DE/DX =    0.0                 !
 --------------------------------------------------------------------------------
 GradGradGradGradGradGradGradGradGradGradGradGradGradGradGradGradGradGrad

                          Input orientation:                          
 ---------------------------------------------------------------------
 Center     Atomic      Atomic             Coordinates (Angstroms)
 Number     Number       Type             X           Y           Z
 ---------------------------------------------------------------------
      1          6           0       -3.125065    0.274235    0.000000
      2          6           0       -1.915749    1.005198    0.000000
      3          6           0       -0.696427    0.314650    0.000000
      4          6           0       -0.631111   -1.085112    0.000000
      5          6           0       -1.829500   -1.833852    0.000000
      6          6           0       -2.988914   -1.094241    0.000000
      7         17           0       -4.628055    1.032334    0.000000
      8          1           0        0.340488   -1.598896    0.000000
      9         17           0       -1.832046   -3.517207    0.000000
     10          1           0       -1.935261    2.104173    0.000000
     11          1           0        0.241770    0.891237    0.000000
 ---------------------------------------------------------------------
                    Distance matrix (angstroms):
                    1          2          3          4          5
     1  C    0.000000
     2  C    1.413064   0.000000
     3  C    2.428974   1.401286   0.000000
     4  C    2.840358   2.453506   1.401285   0.000000
     5  C    2.474372   2.840359   2.428974   1.413064   0.000000
     6  C    1.375232   2.357822   2.690812   2.357821   1.375232
     7  Cl   1.683357   2.712441   3.996594   4.523178   4.005861
     8  H    3.939375   3.445564   2.176431   1.099080   2.182671
     9  Cl   4.005862   4.523180   3.996593   2.712440   1.683357
    10  H    2.182729   1.099148   2.176488   3.445627   3.939444
    11  H    3.422904   2.160527   1.101212   2.160527   3.422904
                    6          7          8          9         10
     6  C    0.000000
     7  Cl   2.684977   0.000000
     8  H    3.367431   5.622258   0.000000
     9  Cl   2.684978   5.340036   2.898245   0.000000
    10  H    3.367497   2.898272   4.346464   5.622327   0.000000
    11  H    3.792024   4.871869   2.492088   4.871868   2.492123
                   11
    11  H    0.000000
 Stoichiometry    C6H3Cl2(2)
 Framework group  CS[SG(C6H3Cl2)]
 Deg. of freedom    19
 Full point group                 CS      NOp   2
 Largest Abelian subgroup         CS      NOp   2
 Largest concise Abelian subgroup C1      NOp   1
                         Standard orientation:                         
 ---------------------------------------------------------------------
 Center     Atomic      Atomic             Coordinates (Angstroms)
 Number     Number       Type             X           Y           Z
 ---------------------------------------------------------------------
      1          6           0       -1.237186    0.040940    0.000000
      2          6           0       -1.226751   -1.372085    0.000000
      3          6           0        0.000003   -2.049341    0.000000
      4          6           0        1.226755   -1.372082    0.000000
      5          6           0        1.237187    0.040944    0.000000
      6          6           0        0.000000    0.641471    0.000000
      7         17           0       -2.670018    0.924503    0.000000
      8          1           0        2.173205   -1.930838    0.000000
      9         17           0        2.670018    0.924508    0.000000
     10          1           0       -2.173259   -1.930879    0.000000
     11          1           0        0.000005   -3.150553    0.000000
 ---------------------------------------------------------------------
 Rotational constants (GHZ):           2.8500113           0.8699052           0.6664773

 **********************************************************************

            Population analysis using the SCF Density.

 **********************************************************************

 Orbital symmetries:
 Alpha Orbitals:
       Occupied  (A') (A') (A') (A') (A') (A') (A') (A') (A') (A')
                 (A') (A") (A') (A") (A') (A') (A") (A') (A') (A")
                 (A")
       Virtual   (A") (A") (A') (A') (A") (A') (A') (A') (A') (A')
                 (A') (A') (A') (A')
 Beta  Orbitals:
       Occupied  (A') (A') (A') (A') (A') (A') (A') (A') (A') (A')
                 (A') (A") (A') (A") (A') (A") (A') (A') (A") (A")
       Virtual   (A') (A") (A") (A') (A') (A") (A') (A') (A') (A')
                 (A') (A') (A') (A') (A')
 The electronic state is 2-A'.
 Alpha  occ. eigenvalues --   -1.47110  -1.40441  -1.38079  -1.16828  -1.15482
 Alpha  occ. eigenvalues --   -0.88516  -0.86256  -0.68803  -0.62196  -0.61588
 Alpha  occ. eigenvalues --   -0.58100  -0.55541  -0.52275  -0.49568  -0.48753
 Alpha  occ. eigenvalues --   -0.45824  -0.44862  -0.44204  -0.40063  -0.38785
 Alpha  occ. eigenvalues --   -0.36921
 Alpha virt. eigenvalues --   -0.00582   0.00180   0.03945   0.05286   0.07784
 Alpha virt. eigenvalues --    0.12278   0.13006   0.13254   0.14353   0.14452
 Alpha virt. eigenvalues --    0.16816   0.17173   0.17904   0.18686
  Beta  occ. eigenvalues --   -1.46450  -1.40580  -1.37918  -1.16418  -1.13750
  Beta  occ. eigenvalues --   -0.88146  -0.84168  -0.68798  -0.61744  -0.59724
  Beta  occ. eigenvalues --   -0.57968  -0.55636  -0.51505  -0.50711  -0.48339
  Beta  occ. eigenvalues --   -0.45007  -0.44799  -0.43938  -0.37281  -0.36456
  Beta virt. eigenvalues --   -0.01026  -0.00410   0.01892   0.03602   0.04306
  Beta virt. eigenvalues --    0.08651   0.12818   0.13684   0.14187   0.14965
  Beta virt. eigenvalues --    0.14986   0.16996   0.18145   0.18863   0.19118
          Condensed to atoms (all electrons):
               1          2          3          4          5          6
     1  C    4.056287   0.000000   0.000000   0.000000   0.000000   0.000000
     2  C    0.000000   4.118513   0.000000   0.000000   0.000000   0.000000
     3  C    0.000000   0.000000   4.129402   0.000000   0.000000   0.000000
     4  C    0.000000   0.000000   0.000000   4.118506   0.000000   0.000000
     5  C    0.000000   0.000000   0.000000   0.000000   4.056288   0.000000
     6  C    0.000000   0.000000   0.000000   0.000000   0.000000   4.042372
     7  Cl   0.000000   0.000000   0.000000   0.000000   0.000000   0.000000
     8  H    0.000000   0.000000   0.000000   0.000000   0.000000   0.000000
     9  Cl   0.000000   0.000000   0.000000   0.000000   0.000000   0.000000
    10  H    0.000000   0.000000   0.000000   0.000000   0.000000   0.000000
    11  H    0.000000   0.000000   0.000000   0.000000   0.000000   0.000000
               7          8          9         10         11
     1  C    0.000000   0.000000   0.000000   0.000000   0.000000
     2  C    0.000000   0.000000   0.000000   0.000000   0.000000
     3  C    0.000000   0.000000   0.000000   0.000000   0.000000
     4  C    0.000000   0.000000   0.000000   0.000000   0.000000
     5  C    0.000000   0.000000   0.000000   0.000000   0.000000
     6  C    0.000000   0.000000   0.000000   0.000000   0.000000
     7  Cl   6.966808   0.000000   0.000000   0.000000   0.000000
     8  H    0.000000   0.845090   0.000000   0.000000   0.000000
     9  Cl   0.000000   0.000000   6.966807   0.000000   0.000000
    10  H    0.000000   0.000000   0.000000   0.845082   0.000000
    11  H    0.000000   0.000000   0.000000   0.000000   0.854844
          Atomic-Atomic Spin Densities.
               1          2          3          4          5          6
     1  C   -0.473787   0.000000   0.000000   0.000000   0.000000   0.000000
     2  C    0.000000   0.499989   0.000000   0.000000   0.000000   0.000000
     3  C    0.000000   0.000000  -0.449227   0.000000   0.000000   0.000000
     4  C    0.000000   0.000000   0.000000   0.499986   0.000000   0.000000
     5  C    0.000000   0.000000   0.000000   0.000000  -0.473787   0.000000
     6  C    0.000000   0.000000   0.000000   0.000000   0.000000   1.407216
     7  Cl   0.000000   0.000000   0.000000   0.000000   0.000000   0.000000
     8  H    0.000000   0.000000   0.000000   0.000000   0.000000   0.000000
     9  Cl   0.000000   0.000000   0.000000   0.000000   0.000000   0.000000
    10  H    0.000000   0.000000   0.000000   0.000000   0.000000   0.000000
    11  H    0.000000   0.000000   0.000000   0.000000   0.000000   0.000000
               7          8          9         10         11
     1  C    0.000000   0.000000   0.000000   0.000000   0.000000
     2  C    0.000000   0.000000   0.000000   0.000000   0.000000
     3  C    0.000000   0.000000   0.000000   0.000000   0.000000
     4  C    0.000000   0.000000   0.000000   0.000000   0.000000
     5  C    0.000000   0.000000   0.000000   0.000000   0.000000
     6  C    0.000000   0.000000   0.000000   0.000000   0.000000
     7  Cl   0.001762   0.000000   0.000000   0.000000   0.000000
     8  H    0.000000  -0.020214   0.000000   0.000000   0.000000
     9  Cl   0.000000   0.000000   0.001762   0.000000   0.000000
    10  H    0.000000   0.000000   0.000000  -0.020215   0.000000
    11  H    0.000000   0.000000   0.000000   0.000000   0.026514
 Mulliken charges and spin densities:
               1          2
     1  C   -0.056287  -0.473787
     2  C   -0.118513   0.499989
     3  C   -0.129402  -0.449227
     4  C   -0.118506   0.499986
     5  C   -0.056288  -0.473787
     6  C   -0.042372   1.407216
     7  Cl   0.033192   0.001762
     8  H    0.154910  -0.020214
     9  Cl   0.033193   0.001762
    10  H    0.154918  -0.020215
    11  H    0.145156   0.026514
 Sum of Mulliken charges =  -0.00000   1.00000
 Mulliken charges and spin densities with hydrogens summed into heavy atoms:
               1          2
     1  C   -0.056287  -0.473787
     2  C    0.036405   0.479773
     3  C    0.015753  -0.422713
     4  C    0.036403   0.479773
     5  C   -0.056288  -0.473787
     6  C   -0.042372   1.407216
     7  Cl   0.033192   0.001762
     9  Cl   0.033193   0.001762
 Charge=              0.0000 electrons
 Dipole moment (field-independent basis, Debye):
    X=             -0.0001    Y=             -2.1146    Z=              0.0000  Tot=              2.1146
 N-N= 1.954971805434D+02 E-N=-2.700677420833D+02  KE=-9.043507766024D+01
 Symmetry A'   KE=-7.004838848829D+01
 Symmetry A"   KE=-2.038668917195D+01
 Symmetry A'   SP= 1.000000000000D+00
 Symmetry A"   SP= 8.160139230995D-15
 1\1\GINC-SH02-01N44\FOpt\UAM1\ZDO\C6H3Cl2(2)\JLAPIER\09-Dec-2025\0\\# 
 opt am1 SCF=XQC\\Neutral Radical (removed 1) _24\\0,2\C,-3.1250648979,
 0.2742352832,0.\C,-1.9157493025,1.0051980809,0.\C,-0.6964274827,0.3146
 499741,0.\C,-0.6311106663,-1.0851118457,0.\C,-1.8295003438,-1.83385160
 04,0.\C,-2.9889138394,-1.0942409864,0.\Cl,-4.6280548465,1.0323337772,0
 .\H,0.3404878817,-1.5988955174,0.\Cl,-1.832046215,-3.5172069773,0.\H,-
 1.9352607113,2.1041728551,0.\H,0.2417704238,0.8912369569,0.\\Version=E
 S64L-G16RevB.01\State=2-A'\HF=0.0981168\S2=1.251896\S2-1=0.\S2A=0.9677
 7\RMSD=3.427e-09\RMSF=1.525e-04\Dipole=0.7087679,0.4356169,0.\PG=CS [S
 G(C6H3Cl2)]\\@


 ONE THORN OF EXPERIENCE IS WORTH A WHOLE WILDERNESS OF
 WARNING....  LOWELL - AMONG MY BOOKS
 Job cpu time:       0 days  0 hours  0 minutes  9.5 seconds.
 Elapsed time:       0 days  0 hours  0 minutes 28.4 seconds.
 File lengths (MBytes):  RWF=     10 Int=      0 D2E=      0 Chk=      2 Scr=      1
 Normal termination of Gaussian 16 at Tue Dec  9 08:35:16 2025.
