 Entering Gaussian System, Link 0=g16
 Initial command:
 /share/software/user/restricted/gaussian/g16.B01/l1.exe "/home/users/jlapier/Chloroaromatics/Gau-26849.inp" -scrdir="/home/users/jlapier/Chloroaromatics/"
 Entering Link 1 = /share/software/user/restricted/gaussian/g16.B01/l1.exe PID=     26853.
  
 Copyright (c) 1988-2017, Gaussian, Inc.  All Rights Reserved.
  
 This is part of the Gaussian(R) 16 program.  It is based on
 the Gaussian(R) 09 system (copyright 2009, Gaussian, Inc.),
 the Gaussian(R) 03 system (copyright 2003, Gaussian, Inc.),
 the Gaussian(R) 98 system (copyright 1998, Gaussian, Inc.),
 the Gaussian(R) 94 system (copyright 1995, Gaussian, Inc.),
 the Gaussian 92(TM) system (copyright 1992, Gaussian, Inc.),
 the Gaussian 90(TM) system (copyright 1990, Gaussian, Inc.),
 the Gaussian 88(TM) system (copyright 1988, Gaussian, Inc.),
 the Gaussian 86(TM) system (copyright 1986, Carnegie Mellon
 University), and the Gaussian 82(TM) system (copyright 1983,
 Carnegie Mellon University). Gaussian is a federally registered
 trademark of Gaussian, Inc.
  
 This software contains proprietary and confidential information,
 including trade secrets, belonging to Gaussian, Inc.
  
 This software is provided under written license and may be
 used, copied, transmitted, or stored only in accord with that
 written license.
  
 The following legend is applicable only to US Government
 contracts under FAR:
  
                    RESTRICTED RIGHTS LEGEND
  
 Use, reproduction and disclosure by the US Government is
 subject to restrictions as set forth in subparagraphs (a)
 and (c) of the Commercial Computer Software - Restricted
 Rights clause in FAR 52.227-19.
  
 Gaussian, Inc.
 340 Quinnipiac St., Bldg. 40, Wallingford CT 06492
  
  
 ---------------------------------------------------------------
 Warning -- This program may not be used in any manner that
 competes with the business of Gaussian, Inc. or will provide
 assistance to any competitor of Gaussian, Inc.  The licensee
 of this program is prohibited from giving any competitor of
 Gaussian, Inc. access to this program.  By using this program,
 the user acknowledges that Gaussian, Inc. is engaged in the
 business of creating and licensing software in the field of
 computational chemistry and represents and warrants to the
 licensee that it is not a competitor of Gaussian, Inc. and that
 it will not use this program in any manner prohibited above.
 ---------------------------------------------------------------
  

 Cite this work as:
 Gaussian 16, Revision B.01,
 M. J. Frisch, G. W. Trucks, H. B. Schlegel, G. E. Scuseria, 
 M. A. Robb, J. R. Cheeseman, G. Scalmani, V. Barone, 
 G. A. Petersson, H. Nakatsuji, X. Li, M. Caricato, A. V. Marenich, 
 J. Bloino, B. G. Janesko, R. Gomperts, B. Mennucci, H. P. Hratchian, 
 J. V. Ortiz, A. F. Izmaylov, J. L. Sonnenberg, D. Williams-Young, 
 F. Ding, F. Lipparini, F. Egidi, J. Goings, B. Peng, A. Petrone, 
 T. Henderson, D. Ranasinghe, V. G. Zakrzewski, J. Gao, N. Rega, 
 G. Zheng, W. Liang, M. Hada, M. Ehara, K. Toyota, R. Fukuda, 
 J. Hasegawa, M. Ishida, T. Nakajima, Y. Honda, O. Kitao, H. Nakai, 
 T. Vreven, K. Throssell, J. A. Montgomery, Jr., J. E. Peralta, 
 F. Ogliaro, M. J. Bearpark, J. J. Heyd, E. N. Brothers, K. N. Kudin, 
 V. N. Staroverov, T. A. Keith, R. Kobayashi, J. Normand, 
 K. Raghavachari, A. P. Rendell, J. C. Burant, S. S. Iyengar, 
 J. Tomasi, M. Cossi, J. M. Millam, M. Klene, C. Adamo, R. Cammi, 
 J. W. Ochterski, R. L. Martin, K. Morokuma, O. Farkas, 
 J. B. Foresman, and D. J. Fox, Gaussian, Inc., Wallingford CT, 2016.
 
 ******************************************
 Gaussian 16:  ES64L-G16RevB.01 20-Dec-2017
                 9-Dec-2025 
 ******************************************
 %mem=2GB
 %nprocshare=1
 Will use up to    1 processors via shared memory.
 %chk=geometry_chks/_24ClBzNeutralRadical.chk
 -----------------
 # opt am1 SCF=XQC
 -----------------
 1/18=20,19=15,26=1,38=1/1,3;
 2/9=110,12=2,17=6,18=5,40=1/2;
 3/5=2,25=1,41=700000,71=1/1,2,3;
 4/35=1/1;
 5/5=2,8=3,13=1,35=1,38=5/2,8;
 6/7=2,8=2,9=2,10=2,28=1/1;
 7//1,2,3,16;
 1/18=20,19=15,26=1/3(2);
 2/9=110/2;
 99//99;
 2/9=110/2;
 3/5=2,25=1,41=700000,71=1,135=20/1,2,3;
 4/5=5,16=3,35=1/1;
 5/5=2,8=3,13=1,35=1,38=5/2,8;
 7//1,2,3,16;
 1/18=20,19=15,26=1/3(-5);
 2/9=110/2;
 6/7=2,8=2,9=2,10=2,19=2,28=1/1;
 99/9=1/99;
 -------------------------------
 Neutral Radical (removed 1) _24
 -------------------------------
 Symbolic Z-matrix:
 Charge =  0 Multiplicity = 2
 C                    -3.20928   0.19943   0. 
 C                    -2.0115    0.93555   0. 
 C                    -0.77511   0.2663    0. 
 C                    -0.7365   -1.13907   0. 
 C                    -1.93429  -1.87519   0. 
 C                    -3.17067  -1.20594   0. 
 Cl                   -4.76193   1.03987   0. 
 H                    -2.05998   2.7004    0. 
 Cl                    0.72905   1.19071   0. 
 H                     0.81614  -1.97951   0. 
 H                    -1.8858   -3.64003   0. 
 
 Add virtual bond connecting atoms H11        and C5         Dist= 3.34D+00.
 Add virtual bond connecting atoms H10        and C4         Dist= 3.34D+00.
 Add virtual bond connecting atoms H8         and C2         Dist= 3.34D+00.

 GradGradGradGradGradGradGradGradGradGradGradGradGradGradGradGradGradGrad
 Berny optimization.
 Initialization pass.
                           ----------------------------
                           !    Initial Parameters    !
                           ! (Angstroms and Degrees)  !
 --------------------------                            --------------------------
 ! Name  Definition              Value          Derivative Info.                !
 --------------------------------------------------------------------------------
 ! R1    R(1,2)                  1.4059         estimate D2E/DX2                !
 ! R2    R(1,6)                  1.4059         estimate D2E/DX2                !
 ! R3    R(1,7)                  1.7655         estimate D2E/DX2                !
 ! R4    R(2,3)                  1.4059         estimate D2E/DX2                !
 ! R5    R(2,8)                  1.7655         estimate D2E/DX2                !
 ! R6    R(3,4)                  1.4059         estimate D2E/DX2                !
 ! R7    R(3,9)                  1.7655         estimate D2E/DX2                !
 ! R8    R(4,5)                  1.4059         estimate D2E/DX2                !
 ! R9    R(4,10)                 1.7655         estimate D2E/DX2                !
 ! R10   R(5,6)                  1.4059         estimate D2E/DX2                !
 ! R11   R(5,11)                 1.7655         estimate D2E/DX2                !
 ! A1    A(2,1,6)              119.9999         estimate D2E/DX2                !
 ! A2    A(2,1,7)              119.9999         estimate D2E/DX2                !
 ! A3    A(6,1,7)              120.0001         estimate D2E/DX2                !
 ! A4    A(1,2,3)              120.0            estimate D2E/DX2                !
 ! A5    A(1,2,8)              120.0001         estimate D2E/DX2                !
 ! A6    A(3,2,8)              119.9999         estimate D2E/DX2                !
 ! A7    A(2,3,4)              120.0001         estimate D2E/DX2                !
 ! A8    A(2,3,9)              120.0            estimate D2E/DX2                !
 ! A9    A(4,3,9)              119.9999         estimate D2E/DX2                !
 ! A10   A(3,4,5)              119.9997         estimate D2E/DX2                !
 ! A11   A(3,4,10)             120.0003         estimate D2E/DX2                !
 ! A12   A(5,4,10)             120.0            estimate D2E/DX2                !
 ! A13   A(4,5,6)              120.0            estimate D2E/DX2                !
 ! A14   A(4,5,11)             119.9996         estimate D2E/DX2                !
 ! A15   A(6,5,11)             120.0004         estimate D2E/DX2                !
 ! A16   A(1,6,5)              120.0003         estimate D2E/DX2                !
 ! D1    D(6,1,2,3)              0.0            estimate D2E/DX2                !
 ! D2    D(6,1,2,8)            180.0            estimate D2E/DX2                !
 ! D3    D(7,1,2,3)            180.0            estimate D2E/DX2                !
 ! D4    D(7,1,2,8)              0.0            estimate D2E/DX2                !
 ! D5    D(2,1,6,5)              0.0            estimate D2E/DX2                !
 ! D6    D(7,1,6,5)            180.0            estimate D2E/DX2                !
 ! D7    D(1,2,3,4)              0.0            estimate D2E/DX2                !
 ! D8    D(1,2,3,9)            180.0            estimate D2E/DX2                !
 ! D9    D(8,2,3,4)            180.0            estimate D2E/DX2                !
 ! D10   D(8,2,3,9)              0.0            estimate D2E/DX2                !
 ! D11   D(2,3,4,5)              0.0            estimate D2E/DX2                !
 ! D12   D(2,3,4,10)           180.0            estimate D2E/DX2                !
 ! D13   D(9,3,4,5)            180.0            estimate D2E/DX2                !
 ! D14   D(9,3,4,10)             0.0            estimate D2E/DX2                !
 ! D15   D(3,4,5,6)              0.0            estimate D2E/DX2                !
 ! D16   D(3,4,5,11)           180.0            estimate D2E/DX2                !
 ! D17   D(10,4,5,6)           180.0            estimate D2E/DX2                !
 ! D18   D(10,4,5,11)            0.0            estimate D2E/DX2                !
 ! D19   D(4,5,6,1)              0.0            estimate D2E/DX2                !
 ! D20   D(11,5,6,1)           180.0            estimate D2E/DX2                !
 --------------------------------------------------------------------------------
 Trust Radius=3.00D-01 FncErr=1.00D-07 GrdErr=1.00D-07 EigMax=2.50D+02 EigMin=1.00D-04
 Number of steps in this run=     57 maximum allowed number of steps=    100.
 GradGradGradGradGradGradGradGradGradGradGradGradGradGradGradGradGradGrad

                          Input orientation:                          
 ---------------------------------------------------------------------
 Center     Atomic      Atomic             Coordinates (Angstroms)
 Number     Number       Type             X           Y           Z
 ---------------------------------------------------------------------
      1          6           0       -3.209280    0.199430    0.000000
      2          6           0       -2.011500    0.935550    0.000000
      3          6           0       -0.775110    0.266300    0.000000
      4          6           0       -0.736500   -1.139070    0.000000
      5          6           0       -1.934290   -1.875190    0.000000
      6          6           0       -3.170670   -1.205940    0.000000
      7         17           0       -4.761930    1.039870    0.000000
      8          1           0       -2.059980    2.700400    0.000000
      9         17           0        0.729050    1.190710    0.000000
     10          1           0        0.816140   -1.979510    0.000000
     11          1           0       -1.885800   -3.640030    0.000000
 ---------------------------------------------------------------------
                    Distance matrix (angstroms):
                    1          2          3          4          5
     1  C    0.000000
     2  C    1.405898   0.000000
     3  C    2.435088   1.405900   0.000000
     4  C    2.811801   2.435092   1.405900   0.000000
     5  C    2.435087   2.811800   2.435093   1.405907   0.000000
     6  C    1.405900   2.435088   2.811796   2.435088   1.405892
     7  Cl   1.765520   2.752408   4.061175   4.577321   4.061173
     8  H    2.752406   1.765516   2.752405   4.061173   4.577316
     9  Cl   4.061167   2.752403   1.765512   2.752401   4.061173
    10  H    4.577312   4.061173   2.752406   1.765511   2.752408
    11  H    4.061164   4.577306   4.061163   2.752397   1.765506
                    6          7          8          9         10
     6  C    0.000000
     7  Cl   2.752412   0.000000
     8  H    4.061173   3.171418   0.000000
     9  Cl   4.577308   5.493051   3.171412   0.000000
    10  H    4.061165   6.342832   5.493052   3.171416   0.000000
    11  H    2.752396   5.493049   6.342822   5.493040   3.171404
                   11
    11  H    0.000000
 Stoichiometry    C6H3Cl2(2)
 Framework group  CS[SG(C6H3Cl2)]
 Deg. of freedom    19
 Full point group                 CS      NOp   2
 Largest Abelian subgroup         CS      NOp   2
 Largest concise Abelian subgroup C1      NOp   1
                         Standard orientation:                         
 ---------------------------------------------------------------------
 Center     Atomic      Atomic             Coordinates (Angstroms)
 Number     Number       Type             X           Y           Z
 ---------------------------------------------------------------------
      1          6           0       -0.639601    1.080067    0.000000
      2          6           0        0.577943    0.377119    0.000000
      3          6           0        0.577943   -1.028781    0.000000
      4          6           0       -0.639601   -1.731734    0.000000
      5          6           0       -1.857150   -1.028777    0.000000
      6          6           0       -1.857145    0.377115    0.000000
      7         17           0       -0.639600    2.845587    0.000000
      8          1           0        2.106926    1.259874    0.000000
      9         17           0        2.106921   -1.911537    0.000000
     10          1           0       -0.639606   -3.497245    0.000000
     11          1           0       -3.386119   -1.911536    0.000000
 ---------------------------------------------------------------------
 Rotational constants (GHZ):           2.6981795           0.8334445           0.6367560
 Standard basis: VSTO-6G (5D, 7F)
 There are    27 symmetry adapted cartesian basis functions of A'  symmetry.
 There are     8 symmetry adapted cartesian basis functions of A"  symmetry.
 There are    27 symmetry adapted basis functions of A'  symmetry.
 There are     8 symmetry adapted basis functions of A"  symmetry.
    35 basis functions,   210 primitive gaussians,    35 cartesian basis functions
    21 alpha electrons       20 beta electrons
       nuclear repulsion energy       190.6836215174 Hartrees.
 Integral buffers will be    131072 words long.
 Regular integral format.
 Two-electron integral symmetry is turned off.
 Do NDO integrals.
 One-electron integrals computed using PRISM.
 NBasis=    35 RedAO= T EigKep=  1.00D+00  NBF=    27     8
 NBsUse=    35 1.00D-06 EigRej= -1.00D+00 NBFU=    27     8
 Simple Huckel Guess.
 Initial guess orbital symmetries:
 Alpha Orbitals:
       Occupied  (A') (A') (A') (A') (A') (A') (A') (A') (A") (A')
                 (A') (A') (A') (A") (A') (A") (A') (A') (A") (A")
                 (A')
       Virtual   (A') (A") (A') (A") (A') (A") (A') (A') (A') (A')
                 (A') (A') (A') (A')
 Beta  Orbitals:
       Occupied  (A') (A') (A') (A') (A') (A') (A') (A') (A") (A')
                 (A') (A') (A') (A") (A') (A") (A') (A') (A") (A")
       Virtual   (A') (A') (A") (A') (A") (A') (A") (A') (A') (A')
                 (A') (A') (A') (A') (A')
 The electronic state of the initial guess is 2-A'.
 Initial guess <Sx>= 0.0000 <Sy>= 0.0000 <Sz>= 0.5000 <S**2>= 0.7500 S= 0.5000
 Keep J ints in memory in canonical form, NReq=862793.
 Overlap will be assumed to be unity.
 Requested convergence on RMS density matrix=1.00D-08 within  32 cycles.
 Requested convergence on MAX density matrix=1.00D-06.
 Requested convergence on             energy=1.00D-06.
 No special actions if energy rises.
 Fock symm off for IB=2 I1=    1 I=   28 J=    6 Cut=1.00D-07 Err=4.63D-03
 Fock matrix is not symmetric: symmetry in diagonalization turned off.
 Rare condition: small coef for last iteration:  0.000D+00
 Rare condition: small coef for last iteration:  0.000D+00
 >>>>>>>>>> Convergence criterion not met.
 SCF Done:  E(UAM1) =  0.476524232458     A.U. after   33 cycles
            NFock= 32  Conv=0.44D-06     -V/T= 1.0053
 <Sx>= 0.0000 <Sy>= 0.0000 <Sz>= 0.5000 <S**2>= 1.0727 S= 0.6501
 <L.S>=  0.00000000000    
 Annihilation of the first spin contaminant:
 S**2 before annihilation     1.0727,   after     0.8448
 Keep J ints in memory in canonical form, NReq=863193.
 LinEq1:  Iter=  0 NonCon=     1 RMS=6.16D-08 Max=7.14D-07 NDo=     1
 AX will form     1 AO Fock derivatives at one time.
 LinEq1:  Iter=  1 NonCon=     1 RMS=6.89D-09 Max=4.11D-08 NDo=     1
 LinEq1:  Iter=  2 NonCon=     1 RMS=1.57D-09 Max=1.56D-08 NDo=     1
 LinEq1:  Iter=  3 NonCon=     1 RMS=5.71D-10 Max=4.13D-09 NDo=     1
 LinEq1:  Iter=  4 NonCon=     1 RMS=1.86D-10 Max=1.68D-09 NDo=     1
 LinEq1:  Iter=  5 NonCon=     1 RMS=4.11D-11 Max=2.41D-10 NDo=     1
 LinEq1:  Iter=  6 NonCon=     1 RMS=8.52D-12 Max=5.09D-11 NDo=     1
 LinEq1:  Iter=  7 NonCon=     0 RMS=2.73D-12 Max=2.49D-11 NDo=     1
 Linear equations converged to 7.395D-12 7.395D-11 after     7 iterations.
 SCF Done:  E(UAM1) =  0.476524232428     a.u. after    2 cycles
            Convg  =    0.6238D-07                     9 Fock formations.
              S**2 =  1.0727                  -V/T =  1.0053
 <Sx>= 0.0000 <Sy>= 0.0000 <Sz>= 0.5000 <S**2>= 1.0727 S= 0.6501
 <L.S>=  0.00000000000    
 Annihilation of the first spin contaminant:
 S**2 before annihilation     1.0727,   after     0.8448

 **********************************************************************

            Population analysis using the SCF Density.

 **********************************************************************

 Orbital symmetries:
 Alpha Orbitals:
       Occupied  (A') (A') (A') (A') (A') (A') (A') (A') (A') (A')
                 (A") (A') (A") (A') (A") (A') (A') (A') (A') (A")
                 (A")
       Virtual   (A') (A") (A') (A") (A') (A') (A') (A") (A') (A')
                 (A') (A') (A') (A')
 Beta  Orbitals:
       Occupied  (A') (A') (A') (A') (A') (A') (A') (A') (A') (A')
                 (A") (A") (A') (A') (A') (A") (A') (A') (A") (A")
       Virtual   (A') (A") (A') (A") (A') (A') (A') (A') (A") (A')
                 (A') (A') (A') (A') (A')
 The electronic state is 2-A'.
 Alpha  occ. eigenvalues --   -1.42168  -1.37412  -1.35237  -1.11737  -1.10058
 Alpha  occ. eigenvalues --   -0.82580  -0.81115  -0.63250  -0.59880  -0.53810
 Alpha  occ. eigenvalues --   -0.53306  -0.49080  -0.48155  -0.45729  -0.43948
 Alpha  occ. eigenvalues --   -0.43609  -0.43446  -0.39826  -0.38239  -0.36125
 Alpha  occ. eigenvalues --   -0.35140
 Alpha virt. eigenvalues --   -0.01215  -0.00640   0.00526   0.01105   0.01383
 Alpha virt. eigenvalues --    0.03965   0.05008   0.09012   0.14440   0.14868
 Alpha virt. eigenvalues --    0.16737   0.17643   0.17881   0.19467
  Beta  occ. eigenvalues --   -1.41850  -1.37338  -1.35058  -1.11040  -1.09431
  Beta  occ. eigenvalues --   -0.81860  -0.80392  -0.62831  -0.59507  -0.53560
  Beta  occ. eigenvalues --   -0.53176  -0.47940  -0.46981  -0.45365  -0.43697
  Beta  occ. eigenvalues --   -0.43576  -0.43269  -0.38362  -0.36252  -0.34612
  Beta virt. eigenvalues --   -0.02812  -0.00142   0.00283   0.00976   0.01917
  Beta virt. eigenvalues --    0.02385   0.04243   0.05494   0.09508   0.14841
  Beta virt. eigenvalues --    0.15026   0.17409   0.17475   0.18245   0.20555
          Condensed to atoms (all electrons):
               1          2          3          4          5          6
     1  C    4.073582   0.000000   0.000000   0.000000   0.000000   0.000000
     2  C    0.000000   4.122345   0.000000   0.000000   0.000000   0.000000
     3  C    0.000000   0.000000   4.063747   0.000000   0.000000   0.000000
     4  C    0.000000   0.000000   0.000000   4.110009   0.000000   0.000000
     5  C    0.000000   0.000000   0.000000   0.000000   4.167727   0.000000
     6  C    0.000000   0.000000   0.000000   0.000000   0.000000   3.986422
     7  Cl   0.000000   0.000000   0.000000   0.000000   0.000000   0.000000
     8  H    0.000000   0.000000   0.000000   0.000000   0.000000   0.000000
     9  Cl   0.000000   0.000000   0.000000   0.000000   0.000000   0.000000
    10  H    0.000000   0.000000   0.000000   0.000000   0.000000   0.000000
    11  H    0.000000   0.000000   0.000000   0.000000   0.000000   0.000000
               7          8          9         10         11
     1  C    0.000000   0.000000   0.000000   0.000000   0.000000
     2  C    0.000000   0.000000   0.000000   0.000000   0.000000
     3  C    0.000000   0.000000   0.000000   0.000000   0.000000
     4  C    0.000000   0.000000   0.000000   0.000000   0.000000
     5  C    0.000000   0.000000   0.000000   0.000000   0.000000
     6  C    0.000000   0.000000   0.000000   0.000000   0.000000
     7  Cl   7.024924   0.000000   0.000000   0.000000   0.000000
     8  H    0.000000   0.789063   0.000000   0.000000   0.000000
     9  Cl   0.000000   0.000000   7.036312   0.000000   0.000000
    10  H    0.000000   0.000000   0.000000   0.820116   0.000000
    11  H    0.000000   0.000000   0.000000   0.000000   0.805752
          Atomic-Atomic Spin Densities.
               1          2          3          4          5          6
     1  C    0.059809   0.000000   0.000000   0.000000   0.000000   0.000000
     2  C    0.000000  -0.389394   0.000000   0.000000   0.000000   0.000000
     3  C    0.000000   0.000000   0.096633   0.000000   0.000000   0.000000
     4  C    0.000000   0.000000   0.000000  -0.433735   0.000000   0.000000
     5  C    0.000000   0.000000   0.000000   0.000000   0.294000   0.000000
     6  C    0.000000   0.000000   0.000000   0.000000   0.000000   0.913145
     7  Cl   0.000000   0.000000   0.000000   0.000000   0.000000   0.000000
     8  H    0.000000   0.000000   0.000000   0.000000   0.000000   0.000000
     9  Cl   0.000000   0.000000   0.000000   0.000000   0.000000   0.000000
    10  H    0.000000   0.000000   0.000000   0.000000   0.000000   0.000000
    11  H    0.000000   0.000000   0.000000   0.000000   0.000000   0.000000
               7          8          9         10         11
     1  C    0.000000   0.000000   0.000000   0.000000   0.000000
     2  C    0.000000   0.000000   0.000000   0.000000   0.000000
     3  C    0.000000   0.000000   0.000000   0.000000   0.000000
     4  C    0.000000   0.000000   0.000000   0.000000   0.000000
     5  C    0.000000   0.000000   0.000000   0.000000   0.000000
     6  C    0.000000   0.000000   0.000000   0.000000   0.000000
     7  Cl   0.003174   0.000000   0.000000   0.000000   0.000000
     8  H    0.000000   0.318313   0.000000   0.000000   0.000000
     9  Cl   0.000000   0.000000   0.003009   0.000000   0.000000
    10  H    0.000000   0.000000   0.000000   0.364701   0.000000
    11  H    0.000000   0.000000   0.000000   0.000000  -0.229655
 Mulliken charges and spin densities:
               1          2
     1  C   -0.073582   0.059809
     2  C   -0.122345  -0.389394
     3  C   -0.063747   0.096633
     4  C   -0.110009  -0.433735
     5  C   -0.167727   0.294000
     6  C    0.013578   0.913145
     7  Cl  -0.024924   0.003174
     8  H    0.210937   0.318313
     9  Cl  -0.036312   0.003009
    10  H    0.179884   0.364701
    11  H    0.194248  -0.229655
 Sum of Mulliken charges =  -0.00000   1.00000
 Mulliken charges and spin densities with hydrogens summed into heavy atoms:
               1          2
     1  C   -0.073582   0.059809
     2  C    0.088592  -0.071080
     3  C   -0.063747   0.096633
     4  C    0.069875  -0.069035
     5  C    0.026521   0.064344
     6  C    0.013578   0.913145
     7  Cl  -0.024924   0.003174
     9  Cl  -0.036312   0.003009
 Charge=              0.0000 electrons
 Dipole moment (field-independent basis, Debye):
    X=             -0.2866    Y=             -1.8930    Z=              0.0000  Tot=              1.9146
 N-N= 1.906836215174D+02 E-N=-2.617336129840D+02  KE=-9.008113348217D+01
 Symmetry A'   KE=-6.963834520864D+01
 Symmetry A"   KE=-2.044278827353D+01
 Symmetry A'   SP= 1.000000000000D+00
 Symmetry A"   SP= 1.221245327088D-15
 Calling FoFJK, ICntrl=      2127 FMM=F ISym2X=1 I1Cent= 0 IOpClX= 1 NMat=1 NMatS=1 NMatT=0.
 ***** Axes restored to original set *****
 -------------------------------------------------------------------
 Center     Atomic                   Forces (Hartrees/Bohr)
 Number     Number              X              Y              Z
 -------------------------------------------------------------------
      1        6          -0.026713831    0.004138463    0.000000000
      2        6          -0.000139891    0.062005251    0.000000000
      3        6           0.013455696    0.009670719    0.000000000
      4        6           0.038923262   -0.044235541    0.000000000
      5        6          -0.004691412   -0.072072513    0.000000000
      6        6           0.070091130    0.021206353   -0.000000000
      7       17           0.033587937   -0.017389807    0.000000000
      8        1           0.002727626   -0.107100613   -0.000000000
      9       17          -0.031966803   -0.019351243    0.000000000
     10        1          -0.091651292    0.050316849   -0.000000000
     11        1          -0.003622423    0.112812081   -0.000000000
 -------------------------------------------------------------------
 Cartesian Forces:  Max     0.112812081 RMS     0.041515625

 GradGradGradGradGradGradGradGradGradGradGradGradGradGradGradGradGradGrad
 Berny optimization.
 FormGI is forming the generalized inverse of G from B-inverse, IUseBI=4.
 Internal  Forces:  Max     0.112869014 RMS     0.032310348
 Search for a local minimum.
 Step number   1 out of a maximum of   57
 All quantities printed in internal units (Hartrees-Bohrs-Radians)
 Mixed Optimization -- RFO/linear search
 Second derivative matrix not updated -- first step.
 ITU=  0
     Eigenvalues ---    0.02011   0.02011   0.02011   0.02011   0.02011
     Eigenvalues ---    0.02011   0.02011   0.02011   0.06524   0.06524
     Eigenvalues ---    0.06524   0.16000   0.16000   0.16000   0.22308
     Eigenvalues ---    0.23491   0.24543   0.25000   0.25000   0.29033
     Eigenvalues ---    0.29033   0.40826   0.41501   0.44656   0.44657
     Eigenvalues ---    0.44657   0.44657
 RFO step:  Lambda=-1.72522574D-01 EMin= 2.01065650D-02
 Linear search not attempted -- first point.
 Maximum step size (   0.300) exceeded in Quadratic search.
    -- Step size scaled by   0.367
 Iteration  1 RMS(Cart)=  0.04915812 RMS(Int)=  0.00005219
 Iteration  2 RMS(Cart)=  0.00007123 RMS(Int)=  0.00001155
 Iteration  3 RMS(Cart)=  0.00000000 RMS(Int)=  0.00001155
 ClnCor:  largest displacement from symmetrization is 6.91D-09 for atom     9.
 Variable       Old X    -DE/DX   Delta X   Delta X   Delta X     New X
                                 (Linear)    (Quad)   (Total)
    R1        2.65676  -0.03289   0.00000  -0.01926  -0.01927   2.63750
    R2        2.65677  -0.03890   0.00000  -0.02319  -0.02318   2.63359
    R3        3.33635  -0.03782   0.00000  -0.03002  -0.03002   3.30633
    R4        2.65677  -0.03116   0.00000  -0.01814  -0.01815   2.63861
    R5        3.33634  -0.10714   0.00000  -0.16557  -0.16557   3.17077
    R6        2.65677  -0.02885   0.00000  -0.01702  -0.01703   2.63973
    R7        3.33633  -0.03737   0.00000  -0.02966  -0.02966   3.30667
    R8        2.65678  -0.05110   0.00000  -0.03058  -0.03058   2.62620
    R9        3.33633  -0.10455   0.00000  -0.16158  -0.16158   3.17475
   R10        2.65675  -0.05648   0.00000  -0.03388  -0.03386   2.62289
   R11        3.33632  -0.11287   0.00000  -0.17444  -0.17444   3.16189
    A1        2.09439  -0.01580   0.00000  -0.01347  -0.01346   2.08093
    A2        2.09439   0.00674   0.00000   0.00573   0.00572   2.10012
    A3        2.09440   0.00906   0.00000   0.00775   0.00774   2.10214
    A4        2.09439   0.00319   0.00000   0.00402   0.00400   2.09840
    A5        2.09440  -0.00195   0.00000  -0.00241  -0.00240   2.09200
    A6        2.09439  -0.00124   0.00000  -0.00162  -0.00161   2.09279
    A7        2.09440  -0.00571   0.00000  -0.00423  -0.00427   2.09013
    A8        2.09440   0.00244   0.00000   0.00175   0.00177   2.09616
    A9        2.09439   0.00327   0.00000   0.00248   0.00250   2.09689
   A10        2.09439   0.00369   0.00000   0.00324   0.00323   2.09762
   A11        2.09440  -0.00288   0.00000  -0.00277  -0.00276   2.09164
   A12        2.09440  -0.00081   0.00000  -0.00048  -0.00047   2.09393
   A13        2.09439  -0.00506   0.00000  -0.00570  -0.00568   2.08871
   A14        2.09439   0.00340   0.00000   0.00381   0.00380   2.09819
   A15        2.09440   0.00166   0.00000   0.00188   0.00188   2.09628
   A16        2.09440   0.01969   0.00000   0.01613   0.01618   2.11058
    D1        0.00000  -0.00000   0.00000  -0.00000   0.00000   0.00000
    D2        3.14159  -0.00000   0.00000  -0.00000   0.00000   3.14159
    D3        3.14159   0.00000   0.00000   0.00000   0.00000   3.14159
    D4        0.00000  -0.00000   0.00000  -0.00000   0.00000   0.00000
    D5        0.00000   0.00000   0.00000   0.00000   0.00000   0.00000
    D6        3.14159  -0.00000   0.00000  -0.00000   0.00000   3.14159
    D7        0.00000   0.00000   0.00000   0.00000   0.00000   0.00000
    D8        3.14159   0.00000   0.00000  -0.00000   0.00000   3.14159
    D9        3.14159   0.00000   0.00000   0.00000   0.00000   3.14159
   D10        0.00000   0.00000   0.00000   0.00000   0.00000   0.00000
   D11        0.00000  -0.00000   0.00000  -0.00000   0.00000   0.00000
   D12        3.14159  -0.00000   0.00000  -0.00000   0.00000   3.14159
   D13        3.14159   0.00000   0.00000   0.00000   0.00000   3.14159
   D14        0.00000  -0.00000   0.00000  -0.00000   0.00000   0.00000
   D15        0.00000  -0.00000   0.00000   0.00000   0.00000   0.00000
   D16        3.14159  -0.00000   0.00000  -0.00000   0.00000   3.14159
   D17        3.14159   0.00000   0.00000   0.00000   0.00000   3.14159
   D18        0.00000  -0.00000   0.00000  -0.00000   0.00000   0.00000
   D19        0.00000   0.00000   0.00000   0.00000   0.00000   0.00000
   D20        3.14159   0.00000   0.00000   0.00000   0.00000   3.14159
         Item               Value     Threshold  Converged?
 Maximum Force            0.112869     0.000450     NO 
 RMS     Force            0.032310     0.000300     NO 
 Maximum Displacement     0.191885     0.001800     NO 
 RMS     Displacement     0.049178     0.001200     NO 
 Predicted change in Energy=-5.951052D-02
 GradGradGradGradGradGradGradGradGradGradGradGradGradGradGradGradGradGrad

                          Input orientation:                          
 ---------------------------------------------------------------------
 Center     Atomic      Atomic             Coordinates (Angstroms)
 Number     Number       Type             X           Y           Z
 ---------------------------------------------------------------------
      1          6           0       -3.195278    0.193581    0.000000
      2          6           0       -2.004539    0.921681    0.000000
      3          6           0       -0.775436    0.259152    0.000000
      4          6           0       -0.740589   -1.137299    0.000000
      5          6           0       -1.924073   -1.865787    0.000000
      6          6           0       -3.141395   -1.199011    0.000000
      7         17           0       -4.736834    1.021119    0.000000
      8          1           0       -2.050852    2.598939    0.000000
      9         17           0        0.715368    1.175313    0.000000
     10          1           0        0.737048   -1.936677    0.000000
     11          1           0       -1.883290   -3.538489    0.000000
 ---------------------------------------------------------------------
                    Distance matrix (angstroms):
                    1          2          3          4          5
     1  C    0.000000
     2  C    1.395703   0.000000
     3  C    2.420730   1.396294   0.000000
     4  C    2.792264   2.415982   1.396886   0.000000
     5  C    2.420116   2.788629   2.415519   1.389723   0.000000
     6  C    1.393634   2.406195   2.779208   2.401599   1.387971
     7  Cl   1.749633   2.734104   4.034014   4.541888   4.030615
     8  H    2.663729   1.677897   2.664824   3.959326   4.466526
     9  Cl   4.031990   2.731707   1.749814   2.732761   4.026777
    10  H    4.472269   3.960620   2.666323   1.680005   2.662065
    11  H    3.955965   4.461817   3.955934   2.659225   1.673199
                    6          7          8          9         10
     6  C    0.000000
     7  Cl   2.733936   0.000000
     8  H    3.951418   3.115127   0.000000
     9  Cl   4.529021   5.454382   3.111058   0.000000
    10  H    3.947970   6.221893   5.323927   3.112066   0.000000
    11  H    2.656310   5.378916   6.139714   5.382653   3.071152
                   11
    11  H    0.000000
 Stoichiometry    C6H3Cl2(2)
 Framework group  CS[SG(C6H3Cl2)]
 Deg. of freedom    19
 Full point group                 CS      NOp   2
 Largest Abelian subgroup         CS      NOp   2
 Largest concise Abelian subgroup C1      NOp   1
                         Standard orientation:                         
 ---------------------------------------------------------------------
 Center     Atomic      Atomic             Coordinates (Angstroms)
 Number     Number       Type             X           Y           Z
 ---------------------------------------------------------------------
      1          6           0       -1.246248    0.055910    0.000000
      2          6           0        0.000000    0.684283    0.000000
      3          6           0        1.170860   -0.076456    0.000000
      4          6           0        1.091492   -1.471085    0.000000
      5          6           0       -0.147558   -2.100439    0.000000
      6          6           0       -1.306329   -1.336429    0.000000
      7         17           0       -2.715035    1.006636    0.000000
      8          1           0        0.090885    2.359717    0.000000
      9         17           0        2.731536    0.714833    0.000000
     10          1           0        2.498873   -2.388524    0.000000
     11          1           0       -0.243583   -3.770880    0.000000
 ---------------------------------------------------------------------
 Rotational constants (GHZ):           2.7634565           0.8463699           0.6479277
 Standard basis: VSTO-6G (5D, 7F)
 There are    27 symmetry adapted cartesian basis functions of A'  symmetry.
 There are     8 symmetry adapted cartesian basis functions of A"  symmetry.
 There are    27 symmetry adapted basis functions of A'  symmetry.
 There are     8 symmetry adapted basis functions of A"  symmetry.
    35 basis functions,   210 primitive gaussians,    35 cartesian basis functions
    21 alpha electrons       20 beta electrons
       nuclear repulsion energy       191.9657729885 Hartrees.
 Integral buffers will be    131072 words long.
 Regular integral format.
 Two-electron integral symmetry is turned off.
 Do NDO integrals.
 One-electron integrals computed using PRISM.
 NBasis=    35 RedAO= T EigKep=  1.00D+00  NBF=    27     8
 NBsUse=    35 1.00D-06 EigRej= -1.00D+00 NBFU=    27     8
 Initial guess from the checkpoint file:  "geometry_chks/_24ClBzNeutralRadical.chk"
 B after Tr=     0.000000   -0.000000    0.000000
         Rot=    0.879104   -0.000000   -0.000000   -0.476630 Ang= -56.93 deg.
 Initial guess orbital symmetries:
 Alpha Orbitals:
       Occupied  (A') (A') (A') (A') (A') (A') (A') (A') (A') (A')
                 (A") (A') (A") (A') (A") (A') (A') (A') (A') (A")
                 (A")
       Virtual   (A') (A") (A') (A") (A') (A') (A') (A") (A') (A')
                 (A') (A') (A') (A')
 Beta  Orbitals:
       Occupied  (A') (A') (A') (A') (A') (A') (A') (A') (A') (A')
                 (A") (A") (A') (A') (A') (A") (A') (A') (A") (A")
       Virtual   (A') (A") (A') (A") (A') (A') (A') (A') (A") (A')
                 (A') (A') (A') (A') (A')
 Initial guess <Sx>= 0.0000 <Sy>= 0.0000 <Sz>= 0.5000 <S**2>= 1.0727 S= 0.6501
 Keep J ints in memory in canonical form, NReq=862793.
 Overlap will be assumed to be unity.
 Requested convergence on RMS density matrix=1.00D-08 within  32 cycles.
 Requested convergence on MAX density matrix=1.00D-06.
 Requested convergence on             energy=1.00D-06.
 No special actions if energy rises.
 Fock symm off for IB=2 I1=    1 I=   28 J=   18 Cut=1.00D-07 Err=1.95D-03
 Fock matrix is not symmetric: symmetry in diagonalization turned off.
 Rare condition: small coef for last iteration:  0.000D+00
 Rare condition: small coef for last iteration:  0.000D+00
 Rare condition: small coef for last iteration:  0.000D+00
 Rare condition: small coef for last iteration:  0.000D+00
 Rare condition: small coef for last iteration:  0.000D+00
 Rare condition: small coef for last iteration:  0.000D+00
 Rare condition: small coef for last iteration:  0.000D+00
 Rare condition: small coef for last iteration:  0.000D+00
 Rare condition: small coef for last iteration:  0.000D+00
 Rare condition: small coef for last iteration:  0.000D+00
 Rare condition: small coef for last iteration:  0.000D+00
 Rare condition: small coef for last iteration:  0.000D+00
 Rare condition: small coef for last iteration:  0.000D+00
 Rare condition: small coef for last iteration:  0.000D+00
 >>>>>>>>>> Convergence criterion not met.
 SCF Done:  E(UAM1) =  0.411850022780     A.U. after   33 cycles
            NFock= 32  Conv=0.18D-02     -V/T= 1.0046
 <Sx>= 0.0000 <Sy>= 0.0000 <Sz>= 0.5000 <S**2>= 0.8691 S= 0.5579
 <L.S>=  0.00000000000    
 Annihilation of the first spin contaminant:
 S**2 before annihilation     0.8691,   after     0.7627
 Keep J ints in memory in canonical form, NReq=863193.
 LinEq1:  Iter=  0 NonCon=     1 RMS=4.53D-04 Max=5.57D-03 NDo=     1
 AX will form     1 AO Fock derivatives at one time.
 LinEq1:  Iter=  1 NonCon=     1 RMS=7.37D-05 Max=6.09D-04 NDo=     1
 LinEq1:  Iter=  2 NonCon=     1 RMS=2.51D-05 Max=3.40D-04 NDo=     1
 LinEq1:  Iter=  3 NonCon=     1 RMS=4.88D-06 Max=4.82D-05 NDo=     1
 LinEq1:  Iter=  4 NonCon=     1 RMS=1.04D-06 Max=1.06D-05 NDo=     1
 LinEq1:  Iter=  5 NonCon=     1 RMS=3.40D-07 Max=2.89D-06 NDo=     1
 LinEq1:  Iter=  6 NonCon=     1 RMS=8.10D-08 Max=6.84D-07 NDo=     1
 LinEq1:  Iter=  7 NonCon=     1 RMS=1.79D-08 Max=1.54D-07 NDo=     1
 LinEq1:  Iter=  8 NonCon=     0 RMS=2.38D-09 Max=1.12D-08 NDo=     1
 Linear equations converged to 2.437D-09 2.437D-08 after     8 iterations.
 Incorrect curvature in search direction -- initial direction reversed.
 LinEq1:  Iter=  0 NonCon=     1 RMS=7.38D-04 Max=1.04D-02 NDo=     1
 LinEq1:  Iter=  1 NonCon=     1 RMS=1.45D-04 Max=1.71D-03 NDo=     1
 LinEq1:  Iter=  2 NonCon=     1 RMS=4.00D-05 Max=4.59D-04 NDo=     1
 LinEq1:  Iter=  3 NonCon=     1 RMS=9.17D-06 Max=9.80D-05 NDo=     1
 LinEq1:  Iter=  4 NonCon=     1 RMS=2.00D-06 Max=2.54D-05 NDo=     1
 LinEq1:  Iter=  5 NonCon=     1 RMS=5.23D-07 Max=3.50D-06 NDo=     1
 LinEq1:  Iter=  6 NonCon=     1 RMS=1.32D-07 Max=1.75D-06 NDo=     1
 LinEq1:  Iter=  7 NonCon=     1 RMS=3.34D-08 Max=2.63D-07 NDo=     1
 LinEq1:  Iter=  8 NonCon=     1 RMS=6.62D-09 Max=4.31D-08 NDo=     1
 LinEq1:  Iter=  9 NonCon=     0 RMS=1.66D-09 Max=1.15D-08 NDo=     1
 Linear equations converged to 2.437D-09 2.437D-08 after     9 iterations.
 LinEq1:  Iter=  0 NonCon=     1 RMS=3.24D-04 Max=4.12D-03 NDo=     1
 LinEq1:  Iter=  1 NonCon=     1 RMS=6.18D-05 Max=4.91D-04 NDo=     1
 LinEq1:  Iter=  2 NonCon=     1 RMS=1.88D-05 Max=1.84D-04 NDo=     1
 LinEq1:  Iter=  3 NonCon=     1 RMS=4.62D-06 Max=3.95D-05 NDo=     1
 LinEq1:  Iter=  4 NonCon=     1 RMS=9.48D-07 Max=9.46D-06 NDo=     1
 LinEq1:  Iter=  5 NonCon=     1 RMS=2.31D-07 Max=2.51D-06 NDo=     1
 LinEq1:  Iter=  6 NonCon=     1 RMS=5.30D-08 Max=3.89D-07 NDo=     1
 LinEq1:  Iter=  7 NonCon=     1 RMS=1.13D-08 Max=1.06D-07 NDo=     1
 LinEq1:  Iter=  8 NonCon=     1 RMS=2.44D-09 Max=1.90D-08 NDo=     1
 LinEq1:  Iter=  9 NonCon=     0 RMS=6.88D-10 Max=4.35D-09 NDo=     1
 Linear equations converged to 2.437D-09 2.437D-08 after     9 iterations.
     Accept linear search using points  1 and  2.
     Minimum is close to point  2 DX= -3.93D-02 DF= -2.47D-07 DXR=  4.09D-02 DFR=  1.73D-03 which will be used.
 LinEq1:  Iter=  0 NonCon=     1 RMS=1.23D-05 Max=9.62D-05 NDo=     1
 LinEq1:  Iter=  1 NonCon=     1 RMS=3.39D-06 Max=3.34D-05 NDo=     1
 LinEq1:  Iter=  2 NonCon=     1 RMS=5.61D-07 Max=4.20D-06 NDo=     1
 LinEq1:  Iter=  3 NonCon=     1 RMS=1.52D-07 Max=1.39D-06 NDo=     1
 LinEq1:  Iter=  4 NonCon=     1 RMS=3.17D-08 Max=2.17D-07 NDo=     1
 LinEq1:  Iter=  5 NonCon=     1 RMS=6.92D-09 Max=3.77D-08 NDo=     1
 LinEq1:  Iter=  6 NonCon=     1 RMS=1.74D-09 Max=1.01D-08 NDo=     1
 LinEq1:  Iter=  7 NonCon=     0 RMS=3.23D-10 Max=2.20D-09 NDo=     1
 Linear equations converged to 1.412D-09 1.412D-08 after     7 iterations.
     Minimum is close to point  2 DX=  5.90D-03 DF= -1.42D-11 DXR=  5.86D-03 DFR=  3.44D-05 which will be used.
 LinEq1:  Iter=  0 NonCon=     1 RMS=4.06D-07 Max=2.93D-06 NDo=     1
 LinEq1:  Iter=  1 NonCon=     1 RMS=1.37D-07 Max=1.29D-06 NDo=     1
 LinEq1:  Iter=  2 NonCon=     1 RMS=3.49D-08 Max=2.33D-07 NDo=     1
 LinEq1:  Iter=  3 NonCon=     1 RMS=6.66D-09 Max=4.20D-08 NDo=     1
 LinEq1:  Iter=  4 NonCon=     1 RMS=1.48D-09 Max=1.08D-08 NDo=     1
 LinEq1:  Iter=  5 NonCon=     1 RMS=4.34D-10 Max=3.89D-09 NDo=     1
 LinEq1:  Iter=  6 NonCon=     1 RMS=1.11D-10 Max=7.90D-10 NDo=     1
 LinEq1:  Iter=  7 NonCon=     0 RMS=2.34D-11 Max=1.72D-10 NDo=     1
 Linear equations converged to 5.698D-11 5.698D-10 after     7 iterations.
 SCF Done:  E(UAM1) =  0.403586606047     a.u. after    6 cycles
            Convg  =    0.1989D-06                    51 Fock formations.
              S**2 =  1.4398                  -V/T =  1.0045
 <Sx>= 0.0000 <Sy>= 0.0000 <Sz>= 0.5000 <S**2>= 1.4398 S= 0.7999
 <L.S>=  0.00000000000    
 Annihilation of the first spin contaminant:
 S**2 before annihilation     1.4398,   after     1.2996
 Calling FoFJK, ICntrl=      2127 FMM=F ISym2X=1 I1Cent= 0 IOpClX= 1 NMat=1 NMatS=1 NMatT=0.
 ***** Axes restored to original set *****
 -------------------------------------------------------------------
 Center     Atomic                   Forces (Hartrees/Bohr)
 Number     Number              X              Y              Z
 -------------------------------------------------------------------
      1        6          -0.038545623    0.012886580    0.000000000
      2        6          -0.001667000    0.100012594    0.000000000
      3        6           0.024688750    0.015926982    0.000000000
      4        6           0.080941149   -0.059678981    0.000000000
      5        6          -0.007241595   -0.098766211    0.000000000
      6        6           0.044071242    0.006364176   -0.000000000
      7       17           0.027495470   -0.014036206    0.000000000
      8        1           0.002913401   -0.118871582   -0.000000000
      9       17          -0.025724413   -0.015570371    0.000000000
     10        1          -0.103448442    0.056539610   -0.000000000
     11        1          -0.003482938    0.115193408   -0.000000000
 -------------------------------------------------------------------
 Cartesian Forces:  Max     0.118871582 RMS     0.048492255

 GradGradGradGradGradGradGradGradGradGradGradGradGradGradGradGradGradGrad
 Berny optimization.
 Using GEDIIS/GDIIS optimizer.
 FormGI is forming the generalized inverse of G from B-inverse, IUseBI=4.
 Internal  Forces:  Max     0.118906707 RMS     0.031106127
 Search for a local minimum.
 Step number   2 out of a maximum of   57
 All quantities printed in internal units (Hartrees-Bohrs-Radians)
 Mixed Optimization -- RFO/linear search
 Update second derivatives using D2CorX and points    1    2
 DE= -7.29D-02 DEPred=-5.95D-02 R= 1.23D+00
 TightC=F SS=  1.41D+00  RLast= 3.00D-01 DXNew= 5.0454D-01 9.0000D-01
 Trust test= 1.23D+00 RLast= 3.00D-01 DXMaxT set to 5.05D-01
 ITU=  1  0
 Use linear search instead of GDIIS.
     Eigenvalues ---  -16.74141   0.00005   0.02011   0.02011   0.02011
     Eigenvalues ---    0.02011   0.02011   0.02011   0.02011   0.02011
     Eigenvalues ---    0.06524   0.07016   0.15999   0.16000   0.16002
     Eigenvalues ---    0.22379   0.23558   0.24464   0.25000   0.25000
     Eigenvalues ---    0.28986   0.29044   0.40699   0.41320   0.44608
     Eigenvalues ---    0.44656   0.44657
 RFO step:  Lambda=-1.67414152D+01 EMin=-1.67414129D+01
 I=     1 Eig=   -1.67D+01 Dot1=  3.72D-03
 I=     1 Stepn=  6.00D-01 RXN=   6.00D-01 EDone=F
 Mixed    1 eigenvectors in step.  Raw Step.Grad=  3.72D-03.
 RFO eigenvector is Hessian eigenvector with negative curvature.
 Taking step of  6.00D-01 in eigenvector direction(s).  Step.Grad=  4.77D-02.
 Skip linear search -- no minimum in search direction.
 Maximum step size (   0.505) exceeded in Quadratic search.
    -- Step size not scaled.
 Iteration  1 RMS(Cart)=  0.09384011 RMS(Int)=  0.01301150
 Iteration  2 RMS(Cart)=  0.01661667 RMS(Int)=  0.00018240
 Iteration  3 RMS(Cart)=  0.00003883 RMS(Int)=  0.00018022
 Iteration  4 RMS(Cart)=  0.00000000 RMS(Int)=  0.00018022
 ClnCor:  largest displacement from symmetrization is 6.40D-09 for atom     8.
 Variable       Old X    -DE/DX   Delta X   Delta X   Delta X     New X
                                 (Linear)    (Quad)   (Total)
    R1        2.63750  -0.00921   0.00000   0.21366   0.21342   2.85092
    R2        2.63359  -0.01328   0.00000   0.23081   0.23081   2.86439
    R3        3.30633  -0.03086   0.00000   0.06391   0.06391   3.37024
    R4        2.63861  -0.00670   0.00000   0.22103   0.22079   2.85940
    R5        3.17077  -0.11891   0.00000  -0.10699  -0.10699   3.06377
    R6        2.63973  -0.00590   0.00000   0.20733   0.20732   2.84706
    R7        3.30667  -0.03007   0.00000   0.06704   0.06704   3.37371
    R8        2.62620  -0.02110   0.00000   0.27076   0.27100   2.89720
    R9        3.17475  -0.11789   0.00000  -0.12140  -0.12140   3.05335
   R10        2.62289  -0.02989   0.00000   0.23991   0.24015   2.86303
   R11        3.16189  -0.11524   0.00000  -0.02062  -0.02062   3.14126
    A1        2.08093  -0.01371   0.00000   0.01906   0.01878   2.09971
    A2        2.10012   0.00580   0.00000  -0.00854  -0.00840   2.09172
    A3        2.10214   0.00791   0.00000  -0.01052  -0.01038   2.09175
    A4        2.09840   0.00285   0.00000  -0.00260  -0.00315   2.09525
    A5        2.09200  -0.00201   0.00000  -0.00077  -0.00049   2.09151
    A6        2.09279  -0.00084   0.00000   0.00337   0.00364   2.09643
    A7        2.09013  -0.00375   0.00000   0.01885   0.01857   2.10870
    A8        2.09616   0.00154   0.00000  -0.00866  -0.00852   2.08764
    A9        2.09689   0.00221   0.00000  -0.01019  -0.01005   2.08685
   A10        2.09762   0.00095   0.00000  -0.02461  -0.02437   2.07324
   A11        2.09164  -0.00128   0.00000   0.01445   0.01433   2.10597
   A12        2.09393   0.00033   0.00000   0.01016   0.01005   2.10397
   A13        2.08871  -0.00321   0.00000   0.01660   0.01711   2.10582
   A14        2.09819   0.00267   0.00000  -0.00654  -0.00680   2.09139
   A15        2.09628   0.00054   0.00000  -0.01006  -0.01031   2.08597
   A16        2.11058   0.01686   0.00000  -0.02730  -0.02693   2.08365
    D1        0.00000  -0.00000   0.00000  -0.00000   0.00000   0.00000
    D2        3.14159  -0.00000   0.00000  -0.00000   0.00000   3.14159
    D3        3.14159   0.00000   0.00000  -0.00000   0.00000   3.14159
    D4        0.00000  -0.00000   0.00000  -0.00000   0.00000   0.00000
    D5        0.00000  -0.00000   0.00000  -0.00000   0.00000   0.00000
    D6        3.14159  -0.00000   0.00000  -0.00000   0.00000   3.14159
    D7        0.00000   0.00000   0.00000   0.00000   0.00000   0.00000
    D8        3.14159   0.00000   0.00000  -0.00000   0.00000   3.14159
    D9        3.14159   0.00000   0.00000   0.00000   0.00000   3.14159
   D10        0.00000   0.00000   0.00000   0.00000   0.00000   0.00000
   D11        0.00000  -0.00000   0.00000  -0.00000   0.00000   0.00000
   D12        3.14159  -0.00000   0.00000  -0.00000   0.00000   3.14159
   D13        3.14159   0.00000   0.00000   0.00000   0.00000   3.14159
   D14        0.00000  -0.00000   0.00000  -0.00000   0.00000   0.00000
   D15        0.00000  -0.00000   0.00000  -0.00000   0.00000   0.00000
   D16        3.14159  -0.00000   0.00000  -0.00000   0.00000   3.14159
   D17        3.14159   0.00000   0.00000   0.00000   0.00000   3.14159
   D18        0.00000  -0.00000   0.00000  -0.00000   0.00000   0.00000
   D19        0.00000   0.00000   0.00000   0.00000   0.00000   0.00000
   D20        3.14159   0.00000   0.00000   0.00000   0.00000   3.14159
         Item               Value     Threshold  Converged?
 Maximum Force            0.118907     0.000450     NO 
 RMS     Force            0.031106     0.000300     NO 
 Maximum Displacement     0.241260     0.001800     NO 
 RMS     Displacement     0.107873     0.001200     NO 
 Predicted change in Energy=-3.017153D+00
 GradGradGradGradGradGradGradGradGradGradGradGradGradGradGradGradGradGrad

                          Input orientation:                          
 ---------------------------------------------------------------------
 Center     Atomic      Atomic             Coordinates (Angstroms)
 Number     Number       Type             X           Y           Z
 ---------------------------------------------------------------------
      1          6           0       -3.299434    0.240164    0.000000
      2          6           0       -2.013130    1.028464    0.000000
      3          6           0       -0.682728    0.307635    0.000000
      4          6           0       -0.620427   -1.197673    0.000000
      5          6           0       -1.932392   -1.990918    0.000000
      6          6           0       -3.267772   -1.275277    0.000000
      7         17           0       -4.864504    1.095305    0.000000
      8          1           0       -2.060299    2.649055    0.000000
      9         17           0        0.832315    1.252040    0.000000
     10          1           0        0.802306   -1.963519    0.000000
     11          1           0       -1.893806   -3.652755    0.000000
 ---------------------------------------------------------------------
                    Distance matrix (angstroms):
                    1          2          3          4          5
     1  C    0.000000
     2  C    1.508639   0.000000
     3  C    2.617575   1.513130   0.000000
     4  C    3.040469   2.625892   1.506597   0.000000
     5  C    2.616587   3.020461   2.616296   1.533130   0.000000
     6  C    1.515772   2.623232   3.031181   2.648482   1.515052
     7  Cl   1.783455   2.852157   4.255311   4.823892   4.257000
     8  H    2.708914   1.621278   2.716606   4.107378   4.641736
     9  Cl   4.253850   2.854216   1.785289   2.848079   4.261500
    10  H    4.656231   4.108362   2.713571   1.615763   2.734835
    11  H    4.138914   4.682739   4.141425   2.765669   1.662285
                    6          7          8          9         10
     6  C    0.000000
     7  Cl   2.858184   0.000000
     8  H    4.105896   3.205886   0.000000
     9  Cl   4.816435   5.698975   3.212300   0.000000
    10  H    4.127858   6.439654   5.428660   3.215698   0.000000
    11  H    2.745939   5.600814   6.304010   5.611484   3.181595
                   11
    11  H    0.000000
 Stoichiometry    C6H3Cl2(2)
 Framework group  CS[SG(C6H3Cl2)]
 Deg. of freedom    19
 Full point group                 CS      NOp   2
 Largest Abelian subgroup         CS      NOp   2
 Largest concise Abelian subgroup C1      NOp   1
                         Standard orientation:                         
 ---------------------------------------------------------------------
 Center     Atomic      Atomic             Coordinates (Angstroms)
 Number     Number       Type             X           Y           Z
 ---------------------------------------------------------------------
      1          6           0       -1.344175    0.077182    0.000000
      2          6           0        0.000000    0.762154    0.000000
      3          6           0        1.269760   -0.060811    0.000000
      4          6           0        1.213793   -1.566368    0.000000
      5          6           0       -0.156352   -2.254257    0.000000
      6          6           0       -1.431482   -1.436073    0.000000
      7         17           0       -2.837345    1.052453    0.000000
      8          1           0        0.080097    2.381453    0.000000
      9         17           0        2.854216    0.761843    0.000000
     10          1           0        2.572069   -2.441453    0.000000
     11          1           0       -0.248241   -3.914001    0.000000
 ---------------------------------------------------------------------
 Rotational constants (GHZ):           2.4498831           0.7673314           0.5843167
 Standard basis: VSTO-6G (5D, 7F)
 There are    27 symmetry adapted cartesian basis functions of A'  symmetry.
 There are     8 symmetry adapted cartesian basis functions of A"  symmetry.
 There are    27 symmetry adapted basis functions of A'  symmetry.
 There are     8 symmetry adapted basis functions of A"  symmetry.
    35 basis functions,   210 primitive gaussians,    35 cartesian basis functions
    21 alpha electrons       20 beta electrons
       nuclear repulsion energy       185.6901222395 Hartrees.
 Integral buffers will be    131072 words long.
 Regular integral format.
 Two-electron integral symmetry is turned off.
 Do NDO integrals.
 One-electron integrals computed using PRISM.
 NBasis=    35 RedAO= T EigKep=  1.00D+00  NBF=    27     8
 NBsUse=    35 1.00D-06 EigRej= -1.00D+00 NBFU=    27     8
 Initial guess from the checkpoint file:  "geometry_chks/_24ClBzNeutralRadical.chk"
 B after Tr=     0.000000   -0.000000    0.000000
         Rot=    0.999999   -0.000000   -0.000000   -0.001248 Ang=  -0.14 deg.
 Initial guess orbital symmetries:
 Alpha Orbitals:
       Occupied  (A') (A') (A') (A') (A') (A') (A') (A') (A') (A')
                 (A") (A') (A") (A') (A') (A") (A') (A') (A') (A")
                 (A")
       Virtual   (A") (A') (A') (A") (A') (A') (A') (A") (A') (A')
                 (A') (A') (A') (A')
 Beta  Orbitals:
       Occupied  (A') (A') (A') (A') (A') (A') (A') (A') (A') (A")
                 (A') (A") (A') (A') (A') (A") (A') (A') (A") (A")
       Virtual   (A') (A") (A') (A') (A') (A") (A') (A') (A") (A')
                 (A') (A') (A') (A') (A')
 Initial guess <Sx>= 0.0000 <Sy>= 0.0000 <Sz>= 0.5000 <S**2>= 1.4398 S= 0.7999
 Keep J ints in memory in canonical form, NReq=862793.
 Overlap will be assumed to be unity.
 Requested convergence on RMS density matrix=1.00D-08 within  32 cycles.
 Requested convergence on MAX density matrix=1.00D-06.
 Requested convergence on             energy=1.00D-06.
 No special actions if energy rises.
 Fock symm off for IB=2 I1=    1 I=   28 J=    6 Cut=1.00D-07 Err=4.40D-03
 Fock matrix is not symmetric: symmetry in diagonalization turned off.
 SCF Done:  E(UAM1) =  0.488872233350     A.U. after   24 cycles
            NFock= 23  Conv=0.70D-08     -V/T= 1.0054
 <Sx>= 0.0000 <Sy>= 0.0000 <Sz>= 0.5000 <S**2>= 2.1455 S= 1.0477
 <L.S>=  0.00000000000    
 Annihilation of the first spin contaminant:
 S**2 before annihilation     2.1455,   after     3.1889
 QCSCF skips out because SCF is already converged.
 Calling FoFJK, ICntrl=      2127 FMM=F ISym2X=1 I1Cent= 0 IOpClX= 1 NMat=1 NMatS=1 NMatT=0.
 ***** Axes restored to original set *****
 -------------------------------------------------------------------
 Center     Atomic                   Forces (Hartrees/Bohr)
 Number     Number              X              Y              Z
 -------------------------------------------------------------------
      1        6           0.039382841   -0.031089317    0.000000000
      2        6           0.000947380    0.002912884    0.000000000
      3        6          -0.049447515   -0.030880503   -0.000000000
      4        6          -0.015921020   -0.010800290    0.000000000
      5        6          -0.003978653    0.004610077   -0.000000000
      6        6           0.134861411    0.066762189    0.000000000
      7       17           0.051015802   -0.026886570   -0.000000000
      8        1           0.003285525   -0.122185386   -0.000000000
      9       17          -0.048607997   -0.029550722    0.000000000
     10        1          -0.108642909    0.058563347   -0.000000000
     11        1          -0.002894866    0.118544292   -0.000000000
 -------------------------------------------------------------------
 Cartesian Forces:  Max     0.134861411 RMS     0.049166760

 GradGradGradGradGradGradGradGradGradGradGradGradGradGradGradGradGradGrad
 Berny optimization.
 Using GEDIIS/GDIIS optimizer.
 FormGI is forming the generalized inverse of G from B-inverse, IUseBI=4.
 Internal  Forces:  Max     0.137388495 RMS     0.055521063
 Search for a local minimum.
 Step number   3 out of a maximum of   57
 All quantities printed in internal units (Hartrees-Bohrs-Radians)
 Mixed Optimization -- RFO/linear search
 Update second derivatives using D2CorX and points    1    3    2
 ITU=  0  1  0
 Use linear search instead of GDIIS.
     Eigenvalues ---    0.00005   0.02011   0.02011   0.02011   0.02011
     Eigenvalues ---    0.02011   0.02011   0.02011   0.02011   0.06524
     Eigenvalues ---    0.06866   0.15998   0.16000   0.16000   0.22305
     Eigenvalues ---    0.23078   0.24348   0.25000   0.25000   0.28787
     Eigenvalues ---    0.29032   0.39728   0.41701   0.44258   0.44612
     Eigenvalues ---    0.44657   0.51029
 RFO could not converge Lambda in  999 iterations.
 Quartic linear search produced a step of -0.98368.
 Iteration  1 RMS(Cart)=  0.09351221 RMS(Int)=  0.01198313
 Iteration  2 RMS(Cart)=  0.01539184 RMS(Int)=  0.00003778
 Iteration  3 RMS(Cart)=  0.00004926 RMS(Int)=  0.00000289
 Iteration  4 RMS(Cart)=  0.00000000 RMS(Int)=  0.00000289
 ClnCor:  largest displacement from symmetrization is 4.44D-15 for atom    11.
 Variable       Old X    -DE/DX   Delta X   Delta X   Delta X     New X
                                 (Linear)    (Quad)   (Total)
    R1        2.85092  -0.11924  -0.20993   0.00000  -0.20993   2.64098
    R2        2.86439  -0.12319  -0.22704   0.00000  -0.22704   2.63735
    R3        3.37024  -0.05766  -0.06287   0.00000  -0.06287   3.30737
    R4        2.85940  -0.11707  -0.21718   0.00000  -0.21718   2.64222
    R5        3.06377  -0.12223   0.10525   0.00000   0.10525   3.16902
    R6        2.84706  -0.11442  -0.20394   0.00000  -0.20394   2.64312
    R7        3.37371  -0.05688  -0.06595   0.00000  -0.06595   3.30776
    R8        2.89720  -0.13594  -0.26658   0.00000  -0.26658   2.63062
    R9        3.05335  -0.12342   0.11942   0.00000   0.11942   3.17277
   R10        2.86303  -0.13739  -0.23623   0.00000  -0.23623   2.62680
   R11        3.14126  -0.11858   0.02029   0.00000   0.02029   3.16155
    A1        2.09971  -0.01037  -0.01848   0.00000  -0.01847   2.08124
    A2        2.09172   0.00372   0.00826   0.00000   0.00826   2.09998
    A3        2.09175   0.00664   0.01021   0.00000   0.01021   2.10197
    A4        2.09525  -0.00269   0.00310   0.00000   0.00311   2.09835
    A5        2.09151   0.00093   0.00049   0.00000   0.00048   2.09199
    A6        2.09643   0.00176  -0.00358   0.00000  -0.00359   2.09284
    A7        2.10870   0.00051  -0.01826   0.00000  -0.01826   2.09044
    A8        2.08764  -0.00133   0.00838   0.00000   0.00838   2.09602
    A9        2.08685   0.00082   0.00988   0.00000   0.00988   2.09672
   A10        2.07324   0.00198   0.02398   0.00000   0.02397   2.09722
   A11        2.10597  -0.00110  -0.01410   0.00000  -0.01409   2.09188
   A12        2.10397  -0.00088  -0.00988   0.00000  -0.00988   2.09409
   A13        2.10582  -0.00658  -0.01683   0.00000  -0.01684   2.08899
   A14        2.09139   0.00351   0.00669   0.00000   0.00669   2.09808
   A15        2.08597   0.00307   0.01014   0.00000   0.01014   2.09612
   A16        2.08365   0.01714   0.02649   0.00000   0.02649   2.11013
    D1        0.00000  -0.00000   0.00000   0.00000   0.00000   0.00000
    D2        3.14159  -0.00000   0.00000   0.00000   0.00000   3.14159
    D3        3.14159   0.00000   0.00000   0.00000   0.00000   3.14159
    D4        0.00000   0.00000   0.00000   0.00000   0.00000   0.00000
    D5        0.00000  -0.00000   0.00000   0.00000   0.00000   0.00000
    D6        3.14159  -0.00000   0.00000   0.00000   0.00000   3.14159
    D7        0.00000   0.00000   0.00000   0.00000   0.00000   0.00000
    D8        3.14159  -0.00000   0.00000   0.00000   0.00000   3.14159
    D9        3.14159   0.00000   0.00000   0.00000   0.00000   3.14159
   D10        0.00000   0.00000   0.00000   0.00000   0.00000   0.00000
   D11        0.00000  -0.00000   0.00000   0.00000   0.00000   0.00000
   D12        3.14159  -0.00000   0.00000   0.00000   0.00000   3.14159
   D13        3.14159   0.00000   0.00000   0.00000   0.00000   3.14159
   D14        0.00000  -0.00000   0.00000   0.00000   0.00000   0.00000
   D15        0.00000   0.00000   0.00000   0.00000   0.00000   0.00000
   D16        3.14159  -0.00000   0.00000   0.00000   0.00000   3.14159
   D17        3.14159   0.00000   0.00000   0.00000   0.00000   3.14159
   D18        0.00000  -0.00000   0.00000   0.00000   0.00000   0.00000
   D19        0.00000   0.00000   0.00000   0.00000   0.00000   0.00000
   D20        3.14159   0.00000   0.00000   0.00000   0.00000   3.14159
         Item               Value     Threshold  Converged?
 Maximum Force            0.137388     0.000450     NO 
 RMS     Force            0.055521     0.000300     NO 
 Maximum Displacement     0.237238     0.001800     NO 
 RMS     Displacement     0.106109     0.001200     NO 
 Predicted change in Energy=-1.148430D-02
 GradGradGradGradGradGradGradGradGradGradGradGradGradGradGradGradGradGrad

                          Input orientation:                          
 ---------------------------------------------------------------------
 Center     Atomic      Atomic             Coordinates (Angstroms)
 Number     Number       Type             X           Y           Z
 ---------------------------------------------------------------------
      1          6           0       -3.197000    0.194300    0.000000
      2          6           0       -2.004718    0.923413    0.000000
      3          6           0       -0.773935    0.259977    0.000000
      4          6           0       -0.738614   -1.138254    0.000000
      5          6           0       -1.924159   -1.867855    0.000000
      6          6           0       -3.143416   -1.200298    0.000000
      7         17           0       -4.738963    1.022250    0.000000
      8          1           0       -2.051096    2.599744    0.000000
      9         17           0        0.717234    1.176651    0.000000
     10          1           0        0.738157   -1.937029    0.000000
     11          1           0       -1.883361   -3.540378    0.000000
 ---------------------------------------------------------------------
                    Distance matrix (angstroms):
                    1          2          3          4          5
     1  C    0.000000
     2  C    1.397549   0.000000
     3  C    2.423955   1.398204   0.000000
     4  C    2.796313   2.419398   1.398677   0.000000
     5  C    2.423347   2.792430   2.418819   1.392062   0.000000
     6  C    1.395628   2.409726   2.783315   2.405602   1.390043
     7  Cl   1.750185   2.736031   4.037636   4.546490   4.034331
     8  H    2.664443   1.676973   2.665643   3.961722   4.469403
     9  Cl   4.035622   2.733706   1.750393   2.734643   4.030629
    10  H    4.475269   3.963015   2.667069   1.678956   2.663214
    11  H    3.958974   4.465440   3.958980   2.660949   1.673020
                    6          7          8          9         10
     6  C    0.000000
     7  Cl   2.735962   0.000000
     8  H    3.953920   3.116587   0.000000
     9  Cl   4.533707   5.458381   3.112691   0.000000
    10  H    3.950871   6.225445   5.325621   3.113749   0.000000
    11  H    2.657765   5.382568   6.142413   5.386414   3.072960
                   11
    11  H    0.000000
 Stoichiometry    C6H3Cl2(2)
 Framework group  CS[SG(C6H3Cl2)]
 Deg. of freedom    19
 Full point group                 CS      NOp   2
 Largest Abelian subgroup         CS      NOp   2
 Largest concise Abelian subgroup C1      NOp   1
                         Standard orientation:                         
 ---------------------------------------------------------------------
 Center     Atomic      Atomic             Coordinates (Angstroms)
 Number     Number       Type             X           Y           Z
 ---------------------------------------------------------------------
      1          6           0       -1.247852    0.056257    0.000000
      2          6           0        0.000000    0.685548    0.000000
      3          6           0        1.172481   -0.076201    0.000000
      4          6           0        1.093477   -1.472645    0.000000
      5          6           0       -0.147700   -2.102973    0.000000
      6          6           0       -1.308357   -1.338058    0.000000
      7         17           0       -2.717036    1.007387    0.000000
      8          1           0        0.090699    2.360067    0.000000
      9         17           0        2.733541    0.715612    0.000000
     10          1           0        2.500070   -2.389372    0.000000
     11          1           0       -0.243649   -3.773240    0.000000
 ---------------------------------------------------------------------
 Rotational constants (GHZ):           2.7578465           0.8449856           0.6468080
 Standard basis: VSTO-6G (5D, 7F)
 There are    27 symmetry adapted cartesian basis functions of A'  symmetry.
 There are     8 symmetry adapted cartesian basis functions of A"  symmetry.
 There are    27 symmetry adapted basis functions of A'  symmetry.
 There are     8 symmetry adapted basis functions of A"  symmetry.
    35 basis functions,   210 primitive gaussians,    35 cartesian basis functions
    21 alpha electrons       20 beta electrons
       nuclear repulsion energy       191.8571204328 Hartrees.
 Integral buffers will be    131072 words long.
 Regular integral format.
 Two-electron integral symmetry is turned off.
 Do NDO integrals.
 One-electron integrals computed using PRISM.
 NBasis=    35 RedAO= T EigKep=  1.00D+00  NBF=    27     8
 NBsUse=    35 1.00D-06 EigRej= -1.00D+00 NBFU=    27     8
 Lowest energy guess from the checkpoint file:  "geometry_chks/_24ClBzNeutralRadical.chk"
 B after Tr=     0.000000   -0.000000    0.000000
         Rot=    1.000000   -0.000000   -0.000000   -0.000022 Ang=  -0.00 deg.
 B after Tr=    -0.000000   -0.000000    0.000000
         Rot=    0.999999    0.000000    0.000000    0.001226 Ang=   0.14 deg.
 Initial guess orbital symmetries:
 Alpha Orbitals:
       Occupied  (A") (A") (A") (A') (A') (A') (A') (A') (A') (A')
                 (A') (A') (A') (A') (A") (A") (A") (A") (A") (A")
                 (A")
       Virtual   (A") (A") (A") (A') (A') (A') (A') (A') (A') (A')
                 (A') (A') (A') (A')
 Beta  Orbitals:
       Occupied  (A") (A") (A") (A') (A') (A') (A') (A') (A') (A')
                 (A') (A') (A') (A') (A') (A") (A") (A") (A") (A")
       Virtual   (A") (A") (A") (A') (A') (A') (A') (A') (A') (A')
                 (A') (A') (A') (A') (A')
 Initial guess <Sx>= 0.0000 <Sy>= 0.0000 <Sz>= 0.5000 <S**2>= 1.4498 S= 0.8037
 Keep J ints in memory in canonical form, NReq=862793.
 Overlap will be assumed to be unity.
 Requested convergence on RMS density matrix=1.00D-08 within  32 cycles.
 Requested convergence on MAX density matrix=1.00D-06.
 Requested convergence on             energy=1.00D-06.
 No special actions if energy rises.
 An orbital has undefined symmetry, so N**3 symmetry is turned off.
 SCF Done:  E(UAM1) =  0.403556390411     A.U. after   17 cycles
            NFock= 16  Conv=0.64D-08     -V/T= 1.0045
 <Sx>= 0.0000 <Sy>= 0.0000 <Sz>= 0.5000 <S**2>= 1.4507 S= 0.8041
 <L.S>=  0.00000000000    
 Annihilation of the first spin contaminant:
 S**2 before annihilation     1.4507,   after     1.3180
 QCSCF skips out because SCF is already converged.
 Calling FoFJK, ICntrl=      2127 FMM=F ISym2X=1 I1Cent= 0 IOpClX= 1 NMat=1 NMatS=1 NMatT=0.
 ***** Axes restored to original set *****
 -------------------------------------------------------------------
 Center     Atomic                   Forces (Hartrees/Bohr)
 Number     Number              X              Y              Z
 -------------------------------------------------------------------
      1        6          -0.036586047    0.011792499    0.000000000
      2        6          -0.001616282    0.097674444    0.000000000
      3        6           0.022821977    0.014801835    0.000000000
      4        6           0.078502442   -0.058691219   -0.000000000
      5        6          -0.007065574   -0.096154565    0.000000000
      6        6           0.046287603    0.007754444   -0.000000000
      7       17           0.027951637   -0.014281224   -0.000000000
      8        1           0.002923506   -0.118935146   -0.000000000
      9       17          -0.026166806   -0.015837921   -0.000000000
     10        1          -0.103576922    0.056589485   -0.000000000
     11        1          -0.003475534    0.115287367   -0.000000000
 -------------------------------------------------------------------
 Cartesian Forces:  Max     0.118935146 RMS     0.048045038

 GradGradGradGradGradGradGradGradGradGradGradGradGradGradGradGradGradGrad
 Berny optimization.
 Using GEDIIS/GDIIS optimizer.
 FormGI is forming the generalized inverse of G from B-inverse, IUseBI=4.
 Internal  Forces:  Max     0.118970506 RMS     0.031323335
 Search for a local minimum.
 Step number   4 out of a maximum of   57
 All quantities printed in internal units (Hartrees-Bohrs-Radians)
 Mixed Optimization -- RFO/linear search
 Update second derivatives using D2CorX and points    1    3    2    4
 DE= -3.02D-05 DEPred=-1.15D-02 R= 2.63D-03
 Trust test= 2.63D-03 RLast= 9.79D-03 DXMaxT set to 2.52D-01
 ITU= -1  0  1  0
 Use linear search instead of GDIIS.
     Eigenvalues ---    0.00001   0.02011   0.02011   0.02011   0.02011
     Eigenvalues ---    0.02011   0.02011   0.02011   0.02011   0.06523
     Eigenvalues ---    0.06820   0.15998   0.16000   0.16000   0.22320
     Eigenvalues ---    0.23220   0.24357   0.24999   0.25000   0.28655
     Eigenvalues ---    0.29032   0.40426   0.41274   0.44585   0.44615
     Eigenvalues ---    0.44657   0.71911
 RFO could not converge Lambda in  999 iterations.
 Quartic linear search produced a step of -0.00305.
 Iteration  1 RMS(Cart)=  0.00000538 RMS(Int)=  0.00000000
 Iteration  2 RMS(Cart)=  0.00000000 RMS(Int)=  0.00000000
 ClnCor:  largest displacement from symmetrization is 8.88D-16 for atom     1.
 Variable       Old X    -DE/DX   Delta X   Delta X   Delta X     New X
                                 (Linear)    (Quad)   (Total)
    R1        2.64098  -0.01183  -0.00001   0.00000  -0.00001   2.64097
    R2        2.63735  -0.01590  -0.00001   0.00000  -0.00001   2.63734
    R3        3.30737  -0.03138  -0.00000   0.00000  -0.00000   3.30737
    R4        2.64222  -0.00931  -0.00001   0.00000  -0.00001   2.64221
    R5        3.16902  -0.11897   0.00001   0.00000   0.00001   3.16903
    R6        2.64312  -0.00842  -0.00001   0.00000  -0.00001   2.64311
    R7        3.30776  -0.03059  -0.00000   0.00000  -0.00000   3.30776
    R8        2.63062  -0.02402  -0.00001   0.00000  -0.00001   2.63060
    R9        3.17277  -0.11803   0.00001   0.00000   0.00001   3.17277
   R10        2.62680  -0.03252  -0.00001   0.00000  -0.00001   2.62679
   R11        3.16155  -0.11534   0.00000   0.00000   0.00000   3.16155
    A1        2.08124  -0.01367  -0.00000   0.00000  -0.00000   2.08124
    A2        2.09998   0.00578   0.00000   0.00000   0.00000   2.09998
    A3        2.10197   0.00790   0.00000   0.00000   0.00000   2.10197
    A4        2.09835   0.00271   0.00000   0.00000   0.00000   2.09835
    A5        2.09199  -0.00194   0.00000   0.00000   0.00000   2.09199
    A6        2.09284  -0.00077  -0.00000   0.00000  -0.00000   2.09284
    A7        2.09044  -0.00368  -0.00000   0.00000  -0.00000   2.09044
    A8        2.09602   0.00149   0.00000   0.00000   0.00000   2.09602
    A9        2.09672   0.00219   0.00000   0.00000   0.00000   2.09672
   A10        2.09722   0.00099   0.00000   0.00000   0.00000   2.09722
   A11        2.09188  -0.00129  -0.00000   0.00000  -0.00000   2.09188
   A12        2.09409   0.00029  -0.00000   0.00000  -0.00000   2.09409
   A13        2.08899  -0.00326  -0.00000   0.00000  -0.00000   2.08898
   A14        2.09808   0.00268   0.00000   0.00000   0.00000   2.09809
   A15        2.09612   0.00058   0.00000   0.00000   0.00000   2.09612
   A16        2.11013   0.01691   0.00000   0.00000   0.00000   2.11013
    D1        0.00000   0.00000   0.00000   0.00000   0.00000   0.00000
    D2        3.14159  -0.00000   0.00000   0.00000   0.00000   3.14159
    D3        3.14159   0.00000   0.00000   0.00000   0.00000   3.14159
    D4        0.00000   0.00000   0.00000   0.00000   0.00000   0.00000
    D5        0.00000   0.00000   0.00000   0.00000   0.00000   0.00000
    D6        3.14159  -0.00000   0.00000   0.00000   0.00000   3.14159
    D7        0.00000   0.00000   0.00000   0.00000   0.00000   0.00000
    D8        3.14159  -0.00000   0.00000   0.00000   0.00000   3.14159
    D9        3.14159   0.00000   0.00000   0.00000   0.00000   3.14159
   D10        0.00000  -0.00000   0.00000   0.00000   0.00000   0.00000
   D11        0.00000  -0.00000   0.00000   0.00000   0.00000   0.00000
   D12        3.14159  -0.00000   0.00000   0.00000   0.00000   3.14159
   D13        3.14159   0.00000   0.00000   0.00000   0.00000   3.14159
   D14        0.00000  -0.00000   0.00000   0.00000   0.00000   0.00000
   D15        0.00000   0.00000   0.00000   0.00000   0.00000   0.00000
   D16        3.14159  -0.00000   0.00000   0.00000   0.00000   3.14159
   D17        3.14159   0.00000   0.00000   0.00000   0.00000   3.14159
   D18        0.00000  -0.00000   0.00000   0.00000   0.00000   0.00000
   D19        0.00000  -0.00000   0.00000   0.00000   0.00000   0.00000
   D20        3.14159   0.00000   0.00000   0.00000   0.00000   3.14159
         Item               Value     Threshold  Converged?
 Maximum Force            0.118971     0.000450     NO 
 RMS     Force            0.031323     0.000300     NO 
 Maximum Displacement     0.000012     0.001800     YES
 RMS     Displacement     0.000005     0.001200     YES
 Predicted change in Energy=-2.794265D-10
 GradGradGradGradGradGradGradGradGradGradGradGradGradGradGradGradGradGrad

                          Input orientation:                          
 ---------------------------------------------------------------------
 Center     Atomic      Atomic             Coordinates (Angstroms)
 Number     Number       Type             X           Y           Z
 ---------------------------------------------------------------------
      1          6           0       -3.196995    0.194298    0.000000
      2          6           0       -2.004717    0.923407    0.000000
      3          6           0       -0.773940    0.259975    0.000000
      4          6           0       -0.738620   -1.138251    0.000000
      5          6           0       -1.924158   -1.867849    0.000000
      6          6           0       -3.143409   -1.200295    0.000000
      7         17           0       -4.738957    1.022246    0.000000
      8          1           0       -2.051096    2.599742    0.000000
      9         17           0        0.717228    1.176647    0.000000
     10          1           0        0.738154   -1.937027    0.000000
     11          1           0       -1.883360   -3.540373    0.000000
 ---------------------------------------------------------------------
                    Distance matrix (angstroms):
                    1          2          3          4          5
     1  C    0.000000
     2  C    1.397543   0.000000
     3  C    2.423946   1.398198   0.000000
     4  C    2.796301   2.419388   1.398671   0.000000
     5  C    2.423338   2.792419   2.418809   1.392054   0.000000
     6  C    1.395622   2.409716   2.783303   2.405590   1.390037
     7  Cl   1.750183   2.736025   4.037625   4.546476   4.034320
     8  H    2.664441   1.676976   2.665640   3.961714   4.469394
     9  Cl   4.035610   2.733700   1.750391   2.734638   4.030617
    10  H    4.475259   3.963008   2.667066   1.678959   2.663211
    11  H    3.958965   4.465429   3.958971   2.660943   1.673021
                    6          7          8          9         10
     6  C    0.000000
     7  Cl   2.735956   0.000000
     8  H    3.953913   3.116583   0.000000
     9  Cl   4.533693   5.458369   3.112686   0.000000
    10  H    3.950862   6.225435   5.325616   3.113744   0.000000
    11  H    2.657760   5.382557   6.142405   5.386402   3.072955
                   11
    11  H    0.000000
 Stoichiometry    C6H3Cl2(2)
 Framework group  CS[SG(C6H3Cl2)]
 Deg. of freedom    19
 Full point group                 CS      NOp   2
 Largest Abelian subgroup         CS      NOp   2
 Largest concise Abelian subgroup C1      NOp   1
                         Standard orientation:                         
 ---------------------------------------------------------------------
 Center     Atomic      Atomic             Coordinates (Angstroms)
 Number     Number       Type             X           Y           Z
 ---------------------------------------------------------------------
      1          6           0       -1.247847    0.056256    0.000000
      2          6           0        0.000000    0.685544    0.000000
      3          6           0        1.172476   -0.076202    0.000000
      4          6           0        1.093471   -1.472640    0.000000
      5          6           0       -0.147699   -2.102966    0.000000
      6          6           0       -1.308351   -1.338053    0.000000
      7         17           0       -2.717030    1.007385    0.000000
      8          1           0        0.090699    2.360065    0.000000
      9         17           0        2.733535    0.715609    0.000000
     10          1           0        2.500067   -2.389370    0.000000
     11          1           0       -0.243649   -3.773233    0.000000
 ---------------------------------------------------------------------
 Rotational constants (GHZ):           2.7578636           0.8449898           0.6468114
 Standard basis: VSTO-6G (5D, 7F)
 There are    27 symmetry adapted cartesian basis functions of A'  symmetry.
 There are     8 symmetry adapted cartesian basis functions of A"  symmetry.
 There are    27 symmetry adapted basis functions of A'  symmetry.
 There are     8 symmetry adapted basis functions of A"  symmetry.
    35 basis functions,   210 primitive gaussians,    35 cartesian basis functions
    21 alpha electrons       20 beta electrons
       nuclear repulsion energy       191.8574512149 Hartrees.
 Integral buffers will be    131072 words long.
 Regular integral format.
 Two-electron integral symmetry is turned off.
 Do NDO integrals.
 One-electron integrals computed using PRISM.
 NBasis=    35 RedAO= T EigKep=  1.00D+00  NBF=    27     8
 NBsUse=    35 1.00D-06 EigRej= -1.00D+00 NBFU=    27     8
[...]
                                 (Linear)    (Quad)   (Total)
    R1        2.66837  -0.00013  -0.00001  -0.00023  -0.00023   2.66814
    R2        2.60101   0.00002  -0.00000   0.00005   0.00005   2.60106
    R3        3.18053  -0.00006   0.00001  -0.00015  -0.00014   3.18039
    R4        2.65791   0.00004  -0.00001   0.00017   0.00015   2.65807
    R5        2.07838  -0.00006   0.00002  -0.00023  -0.00021   2.07817
    R6        2.66091   0.00000   0.00000   0.00003   0.00003   2.66094
    R7        3.20853  -0.00010  -0.00000  -0.00036  -0.00036   3.20817
    R8        2.65936  -0.00015  -0.00001  -0.00024  -0.00025   2.65912
    R9        2.07719  -0.00006   0.00008  -0.00017  -0.00008   2.07710
   R10        2.58874  -0.00017  -0.00001  -0.00016  -0.00017   2.58858
   R11        2.07353  -0.00012  -0.00001  -0.00036  -0.00037   2.07316
    A1        2.01652  -0.00001   0.00000  -0.00004  -0.00004   2.01648
    A2        2.12449   0.00002  -0.00001   0.00010   0.00010   2.12459
    A3        2.14218  -0.00001   0.00000  -0.00006  -0.00006   2.14212
    A4        2.07368  -0.00002   0.00000   0.00003   0.00003   2.07372
    A5        2.10120  -0.00002  -0.00000  -0.00022  -0.00022   2.10098
    A6        2.10830   0.00004  -0.00000   0.00019   0.00019   2.10849
    A7        2.13514  -0.00007  -0.00001  -0.00033  -0.00034   2.13480
    A8        2.07173   0.00006   0.00000   0.00026   0.00026   2.07199
    A9        2.07631   0.00001   0.00001   0.00007   0.00008   2.07640
   A10        2.08105   0.00010   0.00002   0.00047   0.00049   2.08154
   A11        2.10413  -0.00004  -0.00000  -0.00020  -0.00021   2.10392
   A12        2.09801  -0.00006  -0.00001  -0.00027  -0.00028   2.09773
   A13        2.01468  -0.00008  -0.00001  -0.00041  -0.00042   2.01426
   A14        2.12964   0.00001   0.00001   0.00001   0.00002   2.12966
   A15        2.13886   0.00007   0.00000   0.00040   0.00041   2.13926
   A16        2.24529   0.00008   0.00000   0.00028   0.00028   2.24557
    D1        0.00000  -0.00000   0.00000  -0.00000  -0.00000   0.00000
    D2        3.14159  -0.00000   0.00000  -0.00000   0.00000   3.14159
    D3        3.14159   0.00000   0.00000   0.00000   0.00000   3.14159
    D4       -0.00000   0.00000   0.00000   0.00000   0.00000   0.00000
    D5       -0.00000   0.00000   0.00000   0.00000   0.00000   0.00000
    D6        3.14159  -0.00000   0.00000  -0.00000   0.00000   3.14159
    D7       -0.00000   0.00000   0.00000   0.00000   0.00000   0.00000
    D8        3.14159  -0.00000   0.00000  -0.00000   0.00000   3.14159
    D9        3.14159   0.00000   0.00000   0.00000   0.00000   3.14159
   D10        0.00000   0.00000   0.00000   0.00000   0.00000   0.00000
   D11        0.00000  -0.00000   0.00000  -0.00000   0.00000   0.00000
   D12        3.14159  -0.00000   0.00000  -0.00000   0.00000   3.14159
   D13        3.14159   0.00000   0.00000   0.00000   0.00000   3.14159
   D14        0.00000  -0.00000   0.00000  -0.00000  -0.00000   0.00000
   D15       -0.00000   0.00000   0.00000   0.00000   0.00000   0.00000
   D16        3.14159  -0.00000   0.00000  -0.00000   0.00000   3.14159
   D17        3.14159   0.00000   0.00000   0.00000   0.00000   3.14159
   D18       -0.00000  -0.00000   0.00000  -0.00000   0.00000   0.00000
   D19        0.00000  -0.00000   0.00000  -0.00000  -0.00000   0.00000
   D20        3.14159   0.00000   0.00000   0.00000   0.00000   3.14159
         Item               Value     Threshold  Converged?
 Maximum Force            0.000166     0.000450     YES
 RMS     Force            0.000056     0.000300     YES
 Maximum Displacement     0.000654     0.001800     YES
 RMS     Displacement     0.000208     0.001200     YES
 Predicted change in Energy=-2.091235D-07
 Optimization completed.
    -- Stationary point found.
                           ----------------------------
                           !   Optimized Parameters   !
                           ! (Angstroms and Degrees)  !
 --------------------------                            --------------------------
 ! Name  Definition              Value          Derivative Info.                !
 --------------------------------------------------------------------------------
 ! R1    R(1,2)                  1.412          -DE/DX =   -0.0001              !
 ! R2    R(1,6)                  1.3764         -DE/DX =    0.0                 !
 ! R3    R(1,7)                  1.6831         -DE/DX =   -0.0001              !
 ! R4    R(2,3)                  1.4065         -DE/DX =    0.0                 !
 ! R5    R(2,8)                  1.0998         -DE/DX =   -0.0001              !
 ! R6    R(3,4)                  1.4081         -DE/DX =    0.0                 !
 ! R7    R(3,9)                  1.6979         -DE/DX =   -0.0001              !
 ! R8    R(4,5)                  1.4073         -DE/DX =   -0.0001              !
 ! R9    R(4,10)                 1.0992         -DE/DX =   -0.0001              !
 ! R10   R(5,6)                  1.3699         -DE/DX =   -0.0002              !
 ! R11   R(5,11)                 1.0973         -DE/DX =   -0.0001              !
 ! A1    A(2,1,6)              115.5379         -DE/DX =    0.0                 !
 ! A2    A(2,1,7)              121.7244         -DE/DX =    0.0                 !
 ! A3    A(6,1,7)              122.7377         -DE/DX =    0.0                 !
 ! A4    A(1,2,3)              118.8134         -DE/DX =    0.0                 !
 ! A5    A(1,2,8)              120.39           -DE/DX =    0.0                 !
 ! A6    A(3,2,8)              120.7966         -DE/DX =    0.0                 !
 ! A7    A(2,3,4)              122.3347         -DE/DX =   -0.0001              !
 ! A8    A(2,3,9)              118.7014         -DE/DX =    0.0001              !
 ! A9    A(4,3,9)              118.9639         -DE/DX =    0.0                 !
 ! A10   A(3,4,5)              119.2355         -DE/DX =    0.0001              !
 ! A11   A(3,4,10)             120.5575         -DE/DX =    0.0                 !
 ! A12   A(5,4,10)             120.207          -DE/DX =   -0.0001              !
 ! A13   A(4,5,6)              115.4329         -DE/DX =   -0.0001              !
 ! A14   A(4,5,11)             122.0195         -DE/DX =    0.0                 !
 ! A15   A(6,5,11)             122.5476         -DE/DX =    0.0001              !
 ! A16   A(1,6,5)              128.6455         -DE/DX =    0.0001              !
 ! D1    D(6,1,2,3)              0.0            -DE/DX =    0.0                 !
 ! D2    D(6,1,2,8)            180.0            -DE/DX =    0.0                 !
 ! D3    D(7,1,2,3)            180.0            -DE/DX =    0.0                 !
 ! D4    D(7,1,2,8)              0.0            -DE/DX =    0.0                 !
 ! D5    D(2,1,6,5)              0.0            -DE/DX =    0.0                 !
 ! D6    D(7,1,6,5)            180.0            -DE/DX =    0.0                 !
 ! D7    D(1,2,3,4)              0.0            -DE/DX =    0.0                 !
 ! D8    D(1,2,3,9)            180.0            -DE/DX =    0.0                 !
 ! D9    D(8,2,3,4)            180.0            -DE/DX =    0.0                 !
 ! D10   D(8,2,3,9)              0.0            -DE/DX =    0.0                 !
 ! D11   D(2,3,4,5)              0.0            -DE/DX =    0.0                 !
 ! D12   D(2,3,4,10)           180.0            -DE/DX =    0.0                 !
 ! D13   D(9,3,4,5)            180.0            -DE/DX =    0.0                 !
 ! D14   D(9,3,4,10)             0.0            -DE/DX =    0.0                 !
 ! D15   D(3,4,5,6)              0.0            -DE/DX =    0.0                 !
 ! D16   D(3,4,5,11)           180.0            -DE/DX =    0.0                 !
 ! D17   D(10,4,5,6)           180.0            -DE/DX =    0.0                 !
 ! D18   D(10,4,5,11)            0.0            -DE/DX =    0.0                 !
 ! D19   D(4,5,6,1)              0.0            -DE/DX =    0.0                 !
 ! D20   D(11,5,6,1)           180.0            -DE/DX =    0.0                 !
 --------------------------------------------------------------------------------
 GradGradGradGradGradGradGradGradGradGradGradGradGradGradGradGradGradGrad

                          Input orientation:                          
 ---------------------------------------------------------------------
 Center     Atomic      Atomic             Coordinates (Angstroms)
 Number     Number       Type             X           Y           Z
 ---------------------------------------------------------------------
      1          6           0       -3.170446    0.190306   -0.000000
      2          6           0       -1.967517    0.929780   -0.000000
      3          6           0       -0.744644    0.234912    0.000000
      4          6           0       -0.677619   -1.171585    0.000000
      5          6           0       -1.871525   -1.916573   -0.000000
      6          6           0       -3.025563   -1.178444   -0.000000
      7         17           0       -4.674108    0.946418   -0.000000
      8          1           0       -1.990361    2.029372    0.000000
      9         17           0        0.700052    1.126903    0.000000
     10          1           0        0.294451   -1.684732    0.000000
     11          1           0       -1.872591   -3.013837   -0.000000
 ---------------------------------------------------------------------
                    Distance matrix (angstroms):
                    1          2          3          4          5
     1  C    0.000000
     2  C    1.412041   0.000000
     3  C    2.426212   1.406506   0.000000
     4  C    2.840587   2.465679   1.408092   0.000000
     5  C    2.475103   2.847972   2.428734   1.407274   0.000000
     6  C    1.376397   2.358829   2.683312   2.347954   1.369904
     7  Cl   1.683064   2.706643   3.993361   4.523037   4.006394
     8  H    2.185123   1.099829   2.184468   3.459685   3.947735
     9  Cl   3.982206   2.674842   1.697880   2.679743   3.984440
    10  H    3.939705   3.457191   2.182831   1.099199   2.178349
    11  H    3.457016   3.944760   3.438988   2.195872   1.097265
                    6          7          8          9         10
     6  C    0.000000
     7  Cl   2.689375   0.000000
     8  H    3.370716   2.894009   0.000000
     9  Cl   4.381191   5.377190   2.837741   0.000000
    10  H    3.358395   5.622235   4.360612   2.840740   0.000000
    11  H    2.167490   4.850992   5.044585   4.874857   2.542163
                   11
    11  H    0.000000
 Stoichiometry    C6H3Cl2(2)
 Framework group  CS[SG(C6H3Cl2)]
 Deg. of freedom    19
 Full point group                 CS      NOp   2
 Largest Abelian subgroup         CS      NOp   2
 Largest concise Abelian subgroup C1      NOp   1
                         Standard orientation:                         
 ---------------------------------------------------------------------
 Center     Atomic      Atomic             Coordinates (Angstroms)
 Number     Number       Type             X           Y           Z
 ---------------------------------------------------------------------
      1          6           0       -1.252414    0.072492    0.000000
      2          6           0        0.000000    0.724657    0.000000
      3          6           0        1.170429   -0.055315   -0.000000
      4          6           0        1.137384   -1.463020   -0.000000
      5          6           0       -0.106422   -2.121326    0.000000
      6          6           0       -1.205117   -1.303092    0.000000
      7         17           0       -2.698574    0.933496    0.000000
      8          1           0        0.055315    1.823094   -0.000000
      9         17           0        2.674833    0.731810   -0.000000
     10          1           0        2.070551   -2.043915   -0.000000
     11          1           0       -0.185421   -3.215743    0.000000
 ---------------------------------------------------------------------
 Rotational constants (GHZ):           2.9362282           0.8730292           0.6729430

 **********************************************************************

            Population analysis using the SCF Density.

 **********************************************************************

 Orbital symmetries:
 Alpha Orbitals:
       Occupied  (A') (A') (A') (A') (A') (A') (A') (A') (A') (A')
                 (A') (A") (A') (A") (A') (A') (A") (A') (A') (A")
                 (A")
       Virtual   (A") (A") (A') (A') (A") (A') (A') (A') (A') (A')
                 (A') (A') (A') (A')
 Beta  Orbitals:
       Occupied  (A') (A') (A') (A') (A') (A') (A') (A') (A') (A')
                 (A') (A") (A') (A") (A') (A") (A') (A') (A") (A")
       Virtual   (A') (A") (A") (A') (A') (A") (A') (A') (A') (A')
                 (A') (A') (A') (A') (A')
 The electronic state is 2-A'.
 Alpha  occ. eigenvalues --   -1.47216  -1.40247  -1.37921  -1.18100  -1.14269
 Alpha  occ. eigenvalues --   -0.88907  -0.85991  -0.68884  -0.62178  -0.61314
 Alpha  occ. eigenvalues --   -0.56846  -0.55431  -0.54294  -0.49653  -0.49175
 Alpha  occ. eigenvalues --   -0.45189  -0.45180  -0.44345  -0.40000  -0.38322
 Alpha  occ. eigenvalues --   -0.37392
 Alpha virt. eigenvalues --   -0.00517  -0.00114   0.03758   0.05304   0.07720
 Alpha virt. eigenvalues --    0.11935   0.12583   0.13540   0.13966   0.15711
 Alpha virt. eigenvalues --    0.15752   0.17170   0.17849   0.18593
  Beta  occ. eigenvalues --   -1.46629  -1.40376  -1.37636  -1.17736  -1.12596
  Beta  occ. eigenvalues --   -0.88592  -0.83828  -0.68946  -0.61679  -0.59757
  Beta  occ. eigenvalues --   -0.56423  -0.55618  -0.53032  -0.50658  -0.48799
  Beta  occ. eigenvalues --   -0.45068  -0.44721  -0.44141  -0.37768  -0.36268
  Beta virt. eigenvalues --   -0.00502  -0.00289   0.01425   0.02695   0.04775
  Beta virt. eigenvalues --    0.08721   0.12296   0.13095   0.14384   0.14837
  Beta virt. eigenvalues --    0.15790   0.16652   0.17350   0.18797   0.19802
          Condensed to atoms (all electrons):
               1          2          3          4          5          6
     1  C    4.055743   0.000000   0.000000   0.000000   0.000000   0.000000
     2  C    0.000000   4.114161   0.000000   0.000000   0.000000   0.000000
     3  C    0.000000   0.000000   4.072527   0.000000   0.000000   0.000000
     4  C    0.000000   0.000000   0.000000   4.116937   0.000000   0.000000
     5  C    0.000000   0.000000   0.000000   0.000000   4.106571   0.000000
     6  C    0.000000   0.000000   0.000000   0.000000   0.000000   4.056232
     7  Cl   0.000000   0.000000   0.000000   0.000000   0.000000   0.000000
     8  H    0.000000   0.000000   0.000000   0.000000   0.000000   0.000000
     9  Cl   0.000000   0.000000   0.000000   0.000000   0.000000   0.000000
    10  H    0.000000   0.000000   0.000000   0.000000   0.000000   0.000000
    11  H    0.000000   0.000000   0.000000   0.000000   0.000000   0.000000
               7          8          9         10         11
     1  C    0.000000   0.000000   0.000000   0.000000   0.000000
     2  C    0.000000   0.000000   0.000000   0.000000   0.000000
     3  C    0.000000   0.000000   0.000000   0.000000   0.000000
     4  C    0.000000   0.000000   0.000000   0.000000   0.000000
     5  C    0.000000   0.000000   0.000000   0.000000   0.000000
     6  C    0.000000   0.000000   0.000000   0.000000   0.000000
     7  Cl   6.966297   0.000000   0.000000   0.000000   0.000000
     8  H    0.000000   0.834073   0.000000   0.000000   0.000000
     9  Cl   0.000000   0.000000   7.000499   0.000000   0.000000
    10  H    0.000000   0.000000   0.000000   0.843124   0.000000
    11  H    0.000000   0.000000   0.000000   0.000000   0.833836
          Atomic-Atomic Spin Densities.
               1          2          3          4          5          6
     1  C   -0.469756   0.000000   0.000000   0.000000   0.000000   0.000000
     2  C    0.000000   0.502288   0.000000   0.000000   0.000000   0.000000
     3  C    0.000000   0.000000  -0.451413   0.000000   0.000000   0.000000
     4  C    0.000000   0.000000   0.000000   0.509469   0.000000   0.000000
     5  C    0.000000   0.000000   0.000000   0.000000  -0.478189   0.000000
     6  C    0.000000   0.000000   0.000000   0.000000   0.000000   1.396064
     7  Cl   0.000000   0.000000   0.000000   0.000000   0.000000   0.000000
     8  H    0.000000   0.000000   0.000000   0.000000   0.000000   0.000000
     9  Cl   0.000000   0.000000   0.000000   0.000000   0.000000   0.000000
    10  H    0.000000   0.000000   0.000000   0.000000   0.000000   0.000000
    11  H    0.000000   0.000000   0.000000   0.000000   0.000000   0.000000
               7          8          9         10         11
     1  C    0.000000   0.000000   0.000000   0.000000   0.000000
     2  C    0.000000   0.000000   0.000000   0.000000   0.000000
     3  C    0.000000   0.000000   0.000000   0.000000   0.000000
     4  C    0.000000   0.000000   0.000000   0.000000   0.000000
     5  C    0.000000   0.000000   0.000000   0.000000   0.000000
     6  C    0.000000   0.000000   0.000000   0.000000   0.000000
     7  Cl   0.000653   0.000000   0.000000   0.000000   0.000000
     8  H    0.000000  -0.020299   0.000000   0.000000   0.000000
     9  Cl   0.000000   0.000000  -0.000066   0.000000   0.000000
    10  H    0.000000   0.000000   0.000000  -0.021119   0.000000
    11  H    0.000000   0.000000   0.000000   0.000000   0.032368
 Mulliken charges and spin densities:
               1          2
     1  C   -0.055743  -0.469756
     2  C   -0.114161   0.502288
     3  C   -0.072527  -0.451413
     4  C   -0.116937   0.509469
     5  C   -0.106571  -0.478189
     6  C   -0.056232   1.396064
     7  Cl   0.033703   0.000653
     8  H    0.165927  -0.020299
     9  Cl  -0.000499  -0.000066
    10  H    0.156876  -0.021119
    11  H    0.166164   0.032368
 Sum of Mulliken charges =  -0.00000   1.00000
 Mulliken charges and spin densities with hydrogens summed into heavy atoms:
               1          2
     1  C   -0.055743  -0.469756
     2  C    0.051766   0.481989
     3  C   -0.072527  -0.451413
     4  C    0.039938   0.488350
     5  C    0.059594  -0.445821
     6  C   -0.056232   1.396064
     7  Cl   0.033703   0.000653
     9  Cl  -0.000499  -0.000066
 Charge=             -0.0000 electrons
 Dipole moment (field-independent basis, Debye):
    X=              0.7513    Y=             -0.5785    Z=              0.0000  Tot=              0.9482
 N-N= 1.960781745429D+02 E-N=-2.711407016660D+02  KE=-9.051149171876D+01
 Symmetry A'   KE=-7.012144140133D+01
 Symmetry A"   KE=-2.039005031744D+01
 Symmetry A'   SP= 1.000000000000D+00
 Symmetry A"   SP=-3.441691376338D-15
 1\1\GINC-SH04-01N22\FOpt\UAM1\ZDO\C6H3Cl2(2)\JLAPIER\09-Dec-2025\0\\# 
 opt am1 SCF=XQC\\Neutral Radical (removed 1) _24\\0,2\C,-3.1704456777,
 0.1903060131,0.\C,-1.9675165267,0.9297804963,0.\C,-0.7446439052,0.2349
 116571,0.\C,-0.6776185217,-1.1715846992,0.\C,-1.8715252025,-1.91657333
 51,0.\C,-3.0255628924,-1.1784441166,0.\Cl,-4.6741082067,0.9464177697,0
 .\H,-1.9903612367,2.0293723513,0.\Cl,0.7000522416,1.1269032126,0.\H,0.
 2944509088,-1.6847318607,0.\H,-1.8725909807,-3.0138374886,0.\\Version=
 ES64L-G16RevB.01\State=2-A'\HF=0.0964422\S2=1.248517\S2-1=0.\S2A=0.964
 65\RMSD=9.356e-09\RMSF=8.183e-05\Dipole=0.311013,-0.2060097,0.\PG=CS [
 SG(C6H3Cl2)]\\@


 SOME PHYSICISTS WOULD PREFER TO COME BACK TO THE IDEA OF AN OBJECTIVE
 REAL WORLD WHOSE SMALLEST PARTS EXIST OBJECTIVELY IN THE SAME SENSE AS
 STONES OR TREES EXIST INDEPENDENTLY OF WHETHER WE OBSERVE THEM.
 THIS, HOWEVER, IS IMPOSSIBLE.  -- WERNER HEISENBERG
 Job cpu time:       0 days  0 hours  0 minutes  6.1 seconds.
 Elapsed time:       0 days  0 hours  0 minutes 30.6 seconds.
 File lengths (MBytes):  RWF=     10 Int=      0 D2E=      0 Chk=      2 Scr=      1
 Normal termination of Gaussian 16 at Tue Dec  9 09:59:17 2025.
