 Entering Gaussian System, Link 0=g16
 Initial command:
 /share/software/user/restricted/gaussian/g16.B01/l1.exe "/home/users/jlapier/Chloroaromatics/Gau-11816.inp" -scrdir="/home/users/jlapier/Chloroaromatics/"
 Entering Link 1 = /share/software/user/restricted/gaussian/g16.B01/l1.exe PID=     11818.
  
 Copyright (c) 1988-2017, Gaussian, Inc.  All Rights Reserved.
  
 This is part of the Gaussian(R) 16 program.  It is based on
 the Gaussian(R) 09 system (copyright 2009, Gaussian, Inc.),
 the Gaussian(R) 03 system (copyright 2003, Gaussian, Inc.),
 the Gaussian(R) 98 system (copyright 1998, Gaussian, Inc.),
 the Gaussian(R) 94 system (copyright 1995, Gaussian, Inc.),
 the Gaussian 92(TM) system (copyright 1992, Gaussian, Inc.),
 the Gaussian 90(TM) system (copyright 1990, Gaussian, Inc.),
 the Gaussian 88(TM) system (copyright 1988, Gaussian, Inc.),
 the Gaussian 86(TM) system (copyright 1986, Carnegie Mellon
 University), and the Gaussian 82(TM) system (copyright 1983,
 Carnegie Mellon University). Gaussian is a federally registered
 trademark of Gaussian, Inc.
  
 This software contains proprietary and confidential information,
 including trade secrets, belonging to Gaussian, Inc.
  
 This software is provided under written license and may be
 used, copied, transmitted, or stored only in accord with that
 written license.
  
 The following legend is applicable only to US Government
 contracts under FAR:
  
                    RESTRICTED RIGHTS LEGEND
  
 Use, reproduction and disclosure by the US Government is
 subject to restrictions as set forth in subparagraphs (a)
 and (c) of the Commercial Computer Software - Restricted
 Rights clause in FAR 52.227-19.
  
 Gaussian, Inc.
 340 Quinnipiac St., Bldg. 40, Wallingford CT 06492
  
  
 ---------------------------------------------------------------
 Warning -- This program may not be used in any manner that
 competes with the business of Gaussian, Inc. or will provide
 assistance to any competitor of Gaussian, Inc.  The licensee
 of this program is prohibited from giving any competitor of
 Gaussian, Inc. access to this program.  By using this program,
 the user acknowledges that Gaussian, Inc. is engaged in the
 business of creating and licensing software in the field of
 computational chemistry and represents and warrants to the
 licensee that it is not a competitor of Gaussian, Inc. and that
 it will not use this program in any manner prohibited above.
 ---------------------------------------------------------------
  

 Cite this work as:
 Gaussian 16, Revision B.01,
 M. J. Frisch, G. W. Trucks, H. B. Schlegel, G. E. Scuseria, 
 M. A. Robb, J. R. Cheeseman, G. Scalmani, V. Barone, 
 G. A. Petersson, H. Nakatsuji, X. Li, M. Caricato, A. V. Marenich, 
 J. Bloino, B. G. Janesko, R. Gomperts, B. Mennucci, H. P. Hratchian, 
 J. V. Ortiz, A. F. Izmaylov, J. L. Sonnenberg, D. Williams-Young, 
 F. Ding, F. Lipparini, F. Egidi, J. Goings, B. Peng, A. Petrone, 
 T. Henderson, D. Ranasinghe, V. G. Zakrzewski, J. Gao, N. Rega, 
 G. Zheng, W. Liang, M. Hada, M. Ehara, K. Toyota, R. Fukuda, 
 J. Hasegawa, M. Ishida, T. Nakajima, Y. Honda, O. Kitao, H. Nakai, 
 T. Vreven, K. Throssell, J. A. Montgomery, Jr., J. E. Peralta, 
 F. Ogliaro, M. J. Bearpark, J. J. Heyd, E. N. Brothers, K. N. Kudin, 
 V. N. Staroverov, T. A. Keith, R. Kobayashi, J. Normand, 
 K. Raghavachari, A. P. Rendell, J. C. Burant, S. S. Iyengar, 
 J. Tomasi, M. Cossi, J. M. Millam, M. Klene, C. Adamo, R. Cammi, 
 J. W. Ochterski, R. L. Martin, K. Morokuma, O. Farkas, 
 J. B. Foresman, and D. J. Fox, Gaussian, Inc., Wallingford CT, 2016.
 
 ******************************************
 Gaussian 16:  ES64L-G16RevB.01 20-Dec-2017
                 9-Dec-2025 
 ******************************************
 %mem=2GB
 %nprocshare=1
 Will use up to    1 processors via shared memory.
 %chk=geometry_chks/_2ClBzNeutralRadical.chk
 -----------------
 # opt am1 SCF=XQC
 -----------------
 1/18=20,19=15,26=1,38=1/1,3;
 2/9=110,12=2,17=6,18=5,40=1/2;
 3/5=2,25=1,41=700000,71=1/1,2,3;
 4/35=1/1;
 5/5=2,8=3,13=1,35=1,38=5/2,8;
 6/7=2,8=2,9=2,10=2,28=1/1;
 7//1,2,3,16;
 1/18=20,19=15,26=1/3(2);
 2/9=110/2;
 99//99;
 2/9=110/2;
 3/5=2,25=1,41=700000,71=1,135=20/1,2,3;
 4/5=5,16=3,35=1/1;
 5/5=2,8=3,13=1,35=1,38=5/2,8;
 7//1,2,3,16;
 1/18=20,19=15,26=1/3(-5);
 2/9=110/2;
 6/7=2,8=2,9=2,10=2,19=2,28=1/1;
 99/9=1/99;
 ------------------------------
 Neutral Radical (removed 1) _2
 ------------------------------
 Symbolic Z-matrix:
 Charge =  0 Multiplicity = 2
 C                    -3.20928   0.19943   0. 
 C                    -2.0115    0.93555   0. 
 C                    -0.77511   0.2663    0. 
 C                    -0.7365   -1.13907   0. 
 C                    -1.93429  -1.87519   0. 
 C                    -3.17067  -1.20594   0. 
 Cl                   -4.76193   1.03987   0. 
 H                     0.81614  -1.97951   0. 
 H                    -1.8858   -3.64003   0. 
 H                    -2.05998   2.7004    0. 
 H                     0.72905   1.19071   0. 
 
 Add virtual bond connecting atoms H9         and C5         Dist= 3.34D+00.
 Add virtual bond connecting atoms H8         and C4         Dist= 3.34D+00.
 Add virtual bond connecting atoms H11        and C3         Dist= 3.34D+00.
 Add virtual bond connecting atoms H10        and C2         Dist= 3.34D+00.

 GradGradGradGradGradGradGradGradGradGradGradGradGradGradGradGradGradGrad
 Berny optimization.
 Initialization pass.
                           ----------------------------
                           !    Initial Parameters    !
                           ! (Angstroms and Degrees)  !
 --------------------------                            --------------------------
 ! Name  Definition              Value          Derivative Info.                !
 --------------------------------------------------------------------------------
 ! R1    R(1,2)                  1.4059         estimate D2E/DX2                !
 ! R2    R(1,6)                  1.4059         estimate D2E/DX2                !
 ! R3    R(1,7)                  1.7655         estimate D2E/DX2                !
 ! R4    R(2,3)                  1.4059         estimate D2E/DX2                !
 ! R5    R(2,10)                 1.7655         estimate D2E/DX2                !
 ! R6    R(3,4)                  1.4059         estimate D2E/DX2                !
 ! R7    R(3,11)                 1.7655         estimate D2E/DX2                !
 ! R8    R(4,5)                  1.4059         estimate D2E/DX2                !
 ! R9    R(4,8)                  1.7655         estimate D2E/DX2                !
 ! R10   R(5,6)                  1.4059         estimate D2E/DX2                !
 ! R11   R(5,9)                  1.7655         estimate D2E/DX2                !
 ! A1    A(2,1,6)              119.9999         estimate D2E/DX2                !
 ! A2    A(2,1,7)              119.9999         estimate D2E/DX2                !
 ! A3    A(6,1,7)              120.0001         estimate D2E/DX2                !
 ! A4    A(1,2,3)              120.0            estimate D2E/DX2                !
 ! A5    A(1,2,10)             120.0001         estimate D2E/DX2                !
 ! A6    A(3,2,10)             119.9999         estimate D2E/DX2                !
 ! A7    A(2,3,4)              120.0001         estimate D2E/DX2                !
 ! A8    A(2,3,11)             120.0            estimate D2E/DX2                !
 ! A9    A(4,3,11)             119.9999         estimate D2E/DX2                !
 ! A10   A(3,4,5)              119.9997         estimate D2E/DX2                !
 ! A11   A(3,4,8)              120.0003         estimate D2E/DX2                !
 ! A12   A(5,4,8)              120.0            estimate D2E/DX2                !
 ! A13   A(4,5,6)              120.0            estimate D2E/DX2                !
 ! A14   A(4,5,9)              119.9996         estimate D2E/DX2                !
 ! A15   A(6,5,9)              120.0004         estimate D2E/DX2                !
 ! A16   A(1,6,5)              120.0003         estimate D2E/DX2                !
 ! D1    D(6,1,2,3)              0.0            estimate D2E/DX2                !
 ! D2    D(6,1,2,10)           180.0            estimate D2E/DX2                !
 ! D3    D(7,1,2,3)            180.0            estimate D2E/DX2                !
 ! D4    D(7,1,2,10)             0.0            estimate D2E/DX2                !
 ! D5    D(2,1,6,5)              0.0            estimate D2E/DX2                !
 ! D6    D(7,1,6,5)            180.0            estimate D2E/DX2                !
 ! D7    D(1,2,3,4)              0.0            estimate D2E/DX2                !
 ! D8    D(1,2,3,11)           180.0            estimate D2E/DX2                !
 ! D9    D(10,2,3,4)           180.0            estimate D2E/DX2                !
 ! D10   D(10,2,3,11)            0.0            estimate D2E/DX2                !
 ! D11   D(2,3,4,5)              0.0            estimate D2E/DX2                !
 ! D12   D(2,3,4,8)            180.0            estimate D2E/DX2                !
 ! D13   D(11,3,4,5)           180.0            estimate D2E/DX2                !
 ! D14   D(11,3,4,8)             0.0            estimate D2E/DX2                !
 ! D15   D(3,4,5,6)              0.0            estimate D2E/DX2                !
 ! D16   D(3,4,5,9)            180.0            estimate D2E/DX2                !
 ! D17   D(8,4,5,6)            180.0            estimate D2E/DX2                !
 ! D18   D(8,4,5,9)              0.0            estimate D2E/DX2                !
 ! D19   D(4,5,6,1)              0.0            estimate D2E/DX2                !
 ! D20   D(9,5,6,1)            180.0            estimate D2E/DX2                !
 --------------------------------------------------------------------------------
 Trust Radius=3.00D-01 FncErr=1.00D-07 GrdErr=1.00D-07 EigMax=2.50D+02 EigMin=1.00D-04
 Number of steps in this run=     57 maximum allowed number of steps=    100.
 GradGradGradGradGradGradGradGradGradGradGradGradGradGradGradGradGradGrad

                          Input orientation:                          
 ---------------------------------------------------------------------
 Center     Atomic      Atomic             Coordinates (Angstroms)
 Number     Number       Type             X           Y           Z
 ---------------------------------------------------------------------
      1          6           0       -3.209280    0.199430    0.000000
      2          6           0       -2.011500    0.935550    0.000000
      3          6           0       -0.775110    0.266300    0.000000
      4          6           0       -0.736500   -1.139070    0.000000
      5          6           0       -1.934290   -1.875190    0.000000
      6          6           0       -3.170670   -1.205940    0.000000
      7         17           0       -4.761930    1.039870    0.000000
      8          1           0        0.816140   -1.979510    0.000000
      9          1           0       -1.885800   -3.640030    0.000000
     10          1           0       -2.059980    2.700400    0.000000
     11          1           0        0.729050    1.190710    0.000000
 ---------------------------------------------------------------------
                    Distance matrix (angstroms):
                    1          2          3          4          5
     1  C    0.000000
     2  C    1.405898   0.000000
     3  C    2.435088   1.405900   0.000000
     4  C    2.811801   2.435092   1.405900   0.000000
     5  C    2.435087   2.811800   2.435093   1.405907   0.000000
     6  C    1.405900   2.435088   2.811796   2.435088   1.405892
     7  Cl   1.765520   2.752408   4.061175   4.577321   4.061173
     8  H    4.577312   4.061173   2.752406   1.765511   2.752408
     9  H    4.061164   4.577306   4.061163   2.752397   1.765506
    10  H    2.752406   1.765516   2.752405   4.061173   4.577316
    11  H    4.061167   2.752403   1.765512   2.752401   4.061173
                    6          7          8          9         10
     6  C    0.000000
     7  Cl   2.752412   0.000000
     8  H    4.061165   6.342832   0.000000
     9  H    2.752396   5.493049   3.171404   0.000000
    10  H    4.061173   3.171418   5.493052   6.342822   0.000000
    11  H    4.577308   5.493051   3.171416   5.493040   3.171412
                   11
    11  H    0.000000
 Stoichiometry    C6H4Cl(2)
 Framework group  CS[SG(C6H4Cl)]
 Deg. of freedom    19
 Full point group                 CS      NOp   2
 Largest Abelian subgroup         CS      NOp   2
 Largest concise Abelian subgroup C1      NOp   1
                         Standard orientation:                         
 ---------------------------------------------------------------------
 Center     Atomic      Atomic             Coordinates (Angstroms)
 Number     Number       Type             X           Y           Z
 ---------------------------------------------------------------------
      1          6           0        0.048184   -0.543495    0.000000
      2          6           0       -1.169360    0.159453    0.000000
      3          6           0       -1.169360    1.565353    0.000000
      4          6           0        0.048184    2.268305    0.000000
      5          6           0        1.265733    1.565349    0.000000
      6          6           0        1.265728    0.159457    0.000000
      7         17           0        0.048184   -2.309015    0.000000
      8          1           0        0.048189    4.033817    0.000000
      9          1           0        2.794703    2.448108    0.000000
     10          1           0       -2.698343   -0.723303    0.000000
     11          1           0       -2.698338    2.448109    0.000000
 ---------------------------------------------------------------------
 Rotational constants (GHZ):           5.3831406           1.4899509           1.1669589
 Standard basis: VSTO-6G (5D, 7F)
 There are    25 symmetry adapted cartesian basis functions of A'  symmetry.
 There are     7 symmetry adapted cartesian basis functions of A"  symmetry.
 There are    25 symmetry adapted basis functions of A'  symmetry.
 There are     7 symmetry adapted basis functions of A"  symmetry.
    32 basis functions,   192 primitive gaussians,    32 cartesian basis functions
    18 alpha electrons       17 beta electrons
       nuclear repulsion energy       147.2898006858 Hartrees.
 Integral buffers will be    131072 words long.
 Regular integral format.
 Two-electron integral symmetry is turned off.
 Do NDO integrals.
 One-electron integrals computed using PRISM.
 NBasis=    32 RedAO= T EigKep=  1.00D+00  NBF=    25     7
 NBsUse=    32 1.00D-06 EigRej= -1.00D+00 NBFU=    25     7
 Simple Huckel Guess.
 Initial guess orbital symmetries:
 Alpha Orbitals:
       Occupied  (A') (A') (A') (A') (A') (A') (A') (A') (A") (A')
                 (A') (A') (A") (A') (A") (A') (A") (A')
       Virtual   (A') (A") (A') (A") (A') (A') (A") (A') (A') (A')
                 (A') (A') (A') (A')
 Beta  Orbitals:
       Occupied  (A') (A') (A') (A') (A') (A') (A') (A') (A") (A')
                 (A') (A') (A") (A') (A") (A') (A")
       Virtual   (A') (A') (A") (A') (A") (A') (A') (A") (A') (A')
                 (A') (A') (A') (A') (A')
 The electronic state of the initial guess is 2-A'.
 Initial guess <Sx>= 0.0000 <Sy>= 0.0000 <Sz>= 0.5000 <S**2>= 0.7500 S= 0.5000
 Keep J ints in memory in canonical form, NReq=862079.
 Overlap will be assumed to be unity.
 Requested convergence on RMS density matrix=1.00D-08 within  32 cycles.
 Requested convergence on MAX density matrix=1.00D-06.
 Requested convergence on             energy=1.00D-06.
 No special actions if energy rises.
 Fock symm off for IB=2 I1=    1 I=   26 J=   23 Cut=1.00D-07 Err=4.67D-03
 Fock matrix is not symmetric: symmetry in diagonalization turned off.
 Rare condition: small coef for last iteration:  0.000D+00
 Rare condition: small coef for last iteration:  0.000D+00
 Rare condition: small coef for last iteration:  0.000D+00
 Rare condition: small coef for last iteration:  0.000D+00
 Rare condition: small coef for last iteration:  0.000D+00
 Rare condition: small coef for last iteration:  0.000D+00
 Rare condition: small coef for last iteration:  0.000D+00
 Rare condition: small coef for last iteration:  0.000D+00
 Rare condition: small coef for last iteration:  0.000D+00
 Rare condition: small coef for last iteration:  0.000D+00
 Rare condition: small coef for last iteration:  0.000D+00
 Rare condition: small coef for last iteration:  0.000D+00
 Rare condition: small coef for last iteration:  0.000D+00
 Rare condition: small coef for last iteration:  0.000D+00
 Rare condition: small coef for last iteration:  0.000D+00
 Rare condition: small coef for last iteration:  0.000D+00
 Rare condition: small coef for last iteration:  0.000D+00
 Rare condition: small coef for last iteration:  0.000D+00
 >>>>>>>>>> Convergence criterion not met.
 SCF Done:  E(UAM1) =  0.607545852198     A.U. after   33 cycles
            NFock= 32  Conv=0.41D-04     -V/T= 1.0089
 <Sx>= 0.0000 <Sy>= 0.0000 <Sz>= 0.5000 <S**2>= 1.0653 S= 0.6469
 <L.S>=  0.00000000000    
 Annihilation of the first spin contaminant:
 S**2 before annihilation     1.0653,   after     0.8381
 Keep J ints in memory in canonical form, NReq=862479.
 LinEq1:  Iter=  0 NonCon=     1 RMS=9.45D-05 Max=6.03D-04 NDo=     1
 AX will form     1 AO Fock derivatives at one time.
 LinEq1:  Iter=  1 NonCon=     1 RMS=8.70D-06 Max=5.67D-05 NDo=     1
 LinEq1:  Iter=  2 NonCon=     1 RMS=2.65D-06 Max=2.40D-05 NDo=     1
 LinEq1:  Iter=  3 NonCon=     1 RMS=7.56D-07 Max=4.29D-06 NDo=     1
 LinEq1:  Iter=  4 NonCon=     1 RMS=2.22D-07 Max=1.91D-06 NDo=     1
 LinEq1:  Iter=  5 NonCon=     1 RMS=8.03D-08 Max=7.58D-07 NDo=     1
 LinEq1:  Iter=  6 NonCon=     1 RMS=2.05D-08 Max=1.47D-07 NDo=     1
 LinEq1:  Iter=  7 NonCon=     1 RMS=4.23D-09 Max=3.32D-08 NDo=     1
 LinEq1:  Iter=  8 NonCon=     0 RMS=1.08D-09 Max=6.99D-09 NDo=     1
 Linear equations converged to 2.252D-09 2.252D-08 after     8 iterations.
 LinEq1:  Iter=  0 NonCon=     1 RMS=8.63D-05 Max=6.58D-04 NDo=     1
 LinEq1:  Iter=  1 NonCon=     1 RMS=2.76D-05 Max=1.50D-04 NDo=     1
 LinEq1:  Iter=  2 NonCon=     1 RMS=5.71D-06 Max=3.33D-05 NDo=     1
 LinEq1:  Iter=  3 NonCon=     1 RMS=1.93D-06 Max=1.80D-05 NDo=     1
 LinEq1:  Iter=  4 NonCon=     1 RMS=6.27D-07 Max=3.42D-06 NDo=     1
 LinEq1:  Iter=  5 NonCon=     1 RMS=2.01D-07 Max=1.64D-06 NDo=     1
 LinEq1:  Iter=  6 NonCon=     1 RMS=5.83D-08 Max=4.53D-07 NDo=     1
 LinEq1:  Iter=  7 NonCon=     1 RMS=1.55D-08 Max=1.06D-07 NDo=     1
 LinEq1:  Iter=  8 NonCon=     1 RMS=3.97D-09 Max=2.83D-08 NDo=     1
 LinEq1:  Iter=  9 NonCon=     0 RMS=9.93D-10 Max=4.48D-09 NDo=     1
 Linear equations converged to 2.252D-09 2.252D-08 after     9 iterations.
 LinEq1:  Iter=  0 NonCon=     1 RMS=1.49D-04 Max=7.88D-04 NDo=     1
 LinEq1:  Iter=  1 NonCon=     1 RMS=5.43D-05 Max=4.52D-04 NDo=     1
 LinEq1:  Iter=  2 NonCon=     1 RMS=1.62D-05 Max=1.14D-04 NDo=     1
 LinEq1:  Iter=  3 NonCon=     1 RMS=5.26D-06 Max=4.19D-05 NDo=     1
 LinEq1:  Iter=  4 NonCon=     1 RMS=1.45D-06 Max=7.81D-06 NDo=     1
 LinEq1:  Iter=  5 NonCon=     1 RMS=4.72D-07 Max=2.71D-06 NDo=     1
 LinEq1:  Iter=  6 NonCon=     1 RMS=1.19D-07 Max=9.77D-07 NDo=     1
 LinEq1:  Iter=  7 NonCon=     1 RMS=3.40D-08 Max=2.08D-07 NDo=     1
 LinEq1:  Iter=  8 NonCon=     1 RMS=9.08D-09 Max=6.05D-08 NDo=     1
 LinEq1:  Iter=  9 NonCon=     1 RMS=2.72D-09 Max=2.51D-08 NDo=     1
 LinEq1:  Iter= 10 NonCon=     0 RMS=5.46D-10 Max=5.20D-09 NDo=     1
 Linear equations converged to 2.252D-09 2.252D-08 after    10 iterations.
 Incorrect curvature in search direction -- initial direction reversed.
 LinEq1:  Iter=  0 NonCon=     1 RMS=3.26D-04 Max=2.58D-03 NDo=     1
 LinEq1:  Iter=  1 NonCon=     1 RMS=1.19D-04 Max=9.44D-04 NDo=     1
 LinEq1:  Iter=  2 NonCon=     1 RMS=4.27D-05 Max=2.93D-04 NDo=     1
 LinEq1:  Iter=  3 NonCon=     1 RMS=1.29D-05 Max=1.06D-04 NDo=     1
 LinEq1:  Iter=  4 NonCon=     1 RMS=2.92D-06 Max=2.99D-05 NDo=     1
 LinEq1:  Iter=  5 NonCon=     1 RMS=5.58D-07 Max=3.01D-06 NDo=     1
 LinEq1:  Iter=  6 NonCon=     1 RMS=1.78D-07 Max=1.40D-06 NDo=     1
 LinEq1:  Iter=  7 NonCon=     1 RMS=5.70D-08 Max=3.99D-07 NDo=     1
 LinEq1:  Iter=  8 NonCon=     1 RMS=1.23D-08 Max=6.96D-08 NDo=     1
 LinEq1:  Iter=  9 NonCon=     1 RMS=3.23D-09 Max=2.30D-08 NDo=     1
 LinEq1:  Iter= 10 NonCon=     0 RMS=1.08D-09 Max=7.74D-09 NDo=     1
 Linear equations converged to 2.252D-09 2.252D-08 after    10 iterations.
 Incorrect curvature in search direction -- initial direction reversed.
 LinEq1:  Iter=  0 NonCon=     1 RMS=6.27D-04 Max=5.99D-03 NDo=     1
 LinEq1:  Iter=  1 NonCon=     1 RMS=2.23D-04 Max=2.20D-03 NDo=     1
 LinEq1:  Iter=  2 NonCon=     1 RMS=7.63D-05 Max=4.67D-04 NDo=     1
 LinEq1:  Iter=  3 NonCon=     1 RMS=2.28D-05 Max=2.01D-04 NDo=     1
 LinEq1:  Iter=  4 NonCon=     1 RMS=5.89D-06 Max=6.44D-05 NDo=     1
 LinEq1:  Iter=  5 NonCon=     1 RMS=1.05D-06 Max=6.36D-06 NDo=     1
 LinEq1:  Iter=  6 NonCon=     1 RMS=3.73D-07 Max=3.44D-06 NDo=     1
 LinEq1:  Iter=  7 NonCon=     1 RMS=1.25D-07 Max=1.08D-06 NDo=     1
 LinEq1:  Iter=  8 NonCon=     1 RMS=3.27D-08 Max=2.10D-07 NDo=     1
 LinEq1:  Iter=  9 NonCon=     1 RMS=9.77D-09 Max=7.03D-08 NDo=     1
 LinEq1:  Iter= 10 NonCon=     1 RMS=2.47D-09 Max=1.85D-08 NDo=     1
 LinEq1:  Iter= 11 NonCon=     0 RMS=5.93D-10 Max=3.13D-09 NDo=     1
 Linear equations converged to 2.252D-09 2.252D-08 after    11 iterations.
     Accept linear search using points  1 and  2.
 LinEq1:  Iter=  0 NonCon=     1 RMS=3.27D-04 Max=3.00D-03 NDo=     1
 LinEq1:  Iter=  1 NonCon=     1 RMS=1.01D-04 Max=1.10D-03 NDo=     1
 LinEq1:  Iter=  2 NonCon=     1 RMS=2.87D-05 Max=2.46D-04 NDo=     1
 LinEq1:  Iter=  3 NonCon=     1 RMS=9.48D-06 Max=7.31D-05 NDo=     1
 LinEq1:  Iter=  4 NonCon=     1 RMS=3.00D-06 Max=3.10D-05 NDo=     1
 LinEq1:  Iter=  5 NonCon=     1 RMS=8.69D-07 Max=6.91D-06 NDo=     1
 LinEq1:  Iter=  6 NonCon=     1 RMS=1.93D-07 Max=1.72D-06 NDo=     1
 LinEq1:  Iter=  7 NonCon=     1 RMS=4.71D-08 Max=4.53D-07 NDo=     1
 LinEq1:  Iter=  8 NonCon=     1 RMS=1.83D-08 Max=1.91D-07 NDo=     1
 LinEq1:  Iter=  9 NonCon=     1 RMS=3.82D-09 Max=1.84D-08 NDo=     1
 LinEq1:  Iter= 10 NonCon=     0 RMS=7.80D-10 Max=6.81D-09 NDo=     1
 Linear equations converged to 2.252D-09 2.252D-08 after    10 iterations.
     Accept linear search using points  1 and  2.
     Minimum is close to point  2 DX= -1.52D-02 DF= -1.15D-08 DXR=  1.55D-02 DFR=  2.42D-04 which will be used.
 LinEq1:  Iter=  0 NonCon=     1 RMS=2.21D-05 Max=1.86D-04 NDo=     1
 LinEq1:  Iter=  1 NonCon=     1 RMS=7.00D-06 Max=3.63D-05 NDo=     1
 LinEq1:  Iter=  2 NonCon=     1 RMS=1.70D-06 Max=9.15D-06 NDo=     1
 LinEq1:  Iter=  3 NonCon=     1 RMS=5.33D-07 Max=4.09D-06 NDo=     1
 LinEq1:  Iter=  4 NonCon=     1 RMS=1.43D-07 Max=1.03D-06 NDo=     1
 LinEq1:  Iter=  5 NonCon=     1 RMS=3.38D-08 Max=1.90D-07 NDo=     1
 LinEq1:  Iter=  6 NonCon=     1 RMS=1.04D-08 Max=5.12D-08 NDo=     1
 LinEq1:  Iter=  7 NonCon=     1 RMS=2.63D-09 Max=2.11D-08 NDo=     1
 LinEq1:  Iter=  8 NonCon=     0 RMS=7.86D-10 Max=6.87D-09 NDo=     1
 Linear equations converged to 2.252D-09 2.252D-08 after     8 iterations.
     Accept linear search using points  1 and  2.
     Minimum is close to point  2 DX= -2.86D-02 DF= -7.79D-10 DXR=  2.94D-02 DFR=  8.83D-04 which will be used.
 LinEq1:  Iter=  0 NonCon=     1 RMS=5.67D-06 Max=4.94D-05 NDo=     1
 LinEq1:  Iter=  1 NonCon=     1 RMS=2.48D-06 Max=3.03D-05 NDo=     1
 LinEq1:  Iter=  2 NonCon=     1 RMS=7.68D-07 Max=5.43D-06 NDo=     1
 LinEq1:  Iter=  3 NonCon=     1 RMS=2.27D-07 Max=2.00D-06 NDo=     1
 LinEq1:  Iter=  4 NonCon=     1 RMS=5.46D-08 Max=5.23D-07 NDo=     1
 LinEq1:  Iter=  5 NonCon=     1 RMS=1.41D-08 Max=9.95D-08 NDo=     1
 LinEq1:  Iter=  6 NonCon=     1 RMS=4.03D-09 Max=2.67D-08 NDo=     1
 LinEq1:  Iter=  7 NonCon=     1 RMS=1.10D-09 Max=9.05D-09 NDo=     1
 LinEq1:  Iter=  8 NonCon=     0 RMS=3.68D-10 Max=2.52D-09 NDo=     1
 Linear equations converged to 7.318D-10 7.318D-09 after     8 iterations.
 Incorrect curvature in search direction -- initial direction reversed.
 Gradient too large for Newton-Raphson -- use scaled steepest descent instead.
     Minimum is close to point  6 DX=  4.25D-02 DF= -6.89D-06 DXR=  1.67D-02 DFR=  2.52D-04 which will be used.
 Gradient too large for Newton-Raphson -- use scaled steepest descent instead.
     Accept linear search using points  2 and  3.
 Gradient too large for Newton-Raphson -- use scaled steepest descent instead.
 Gradient too large for Newton-Raphson -- use scaled steepest descent instead.
     Accept linear search using points  1 and  2.
     Minimum is close to point  2 DX= -1.56D-01 DF= -1.80D-05 DXR=  8.93D-02 DFR=  1.71D-02 which will be used.
 Gradient too large for Newton-Raphson -- use scaled steepest descent instead.
     Accept linear search using points  1 and  2.
 Gradient too large for Newton-Raphson -- use scaled steepest descent instead.
     Accept linear search using points  1 and  2.
     Minimum is close to point  2 DX= -7.80D-02 DF= -3.64D-06 DXR=  4.53D-02 DFR=  4.83D-03 which will be used.
 Gradient too large for Newton-Raphson -- use scaled steepest descent instead.
     Minimum is close to point  2 DX= -1.22D-01 DF= -3.62D-06 DXR=  7.27D-02 DFR=  5.31D-03 which will be used.
 Gradient too large for Newton-Raphson -- use scaled steepest descent instead.
     Minimum is close to point  2 DX=  1.49D-01 DF= -4.06D-06 DXR=  8.07D-02 DFR=  6.56D-03 which will be used.
 Gradient too large for Newton-Raphson -- use scaled steepest descent instead.
 Gradient too large for Newton-Raphson -- use scaled steepest descent instead.
     Accept linear search using points  1 and  2.
     Minimum is close to point  2 DX= -1.75D-01 DF= -9.25D-06 DXR=  9.09D-02 DFR=  1.94D-02 which will be used.
 Gradient too large for Newton-Raphson -- use scaled steepest descent instead.
     Accept linear search using points  1 and  2.
 Gradient too large for Newton-Raphson -- use scaled steepest descent instead.
 LinEq1:  Iter=  0 NonCon=     1 RMS=7.90D-04 Max=4.17D-03 NDo=     1
 LinEq1:  Iter=  1 NonCon=     1 RMS=3.68D-04 Max=2.55D-03 NDo=     1
 LinEq1:  Iter=  2 NonCon=     1 RMS=1.22D-05 Max=8.82D-05 NDo=     1
 LinEq1:  Iter=  3 NonCon=     1 RMS=4.17D-06 Max=2.57D-05 NDo=     1
 LinEq1:  Iter=  4 NonCon=     1 RMS=8.24D-07 Max=4.89D-06 NDo=     1
 LinEq1:  Iter=  5 NonCon=     1 RMS=1.83D-07 Max=1.45D-06 NDo=     1
 LinEq1:  Iter=  6 NonCon=     1 RMS=4.42D-08 Max=2.35D-07 NDo=     1
 LinEq1:  Iter=  7 NonCon=     1 RMS=8.48D-09 Max=4.63D-08 NDo=     1
 LinEq1:  Iter=  8 NonCon=     0 RMS=2.07D-09 Max=1.38D-08 NDo=     1
 Linear equations converged to 2.252D-09 2.252D-08 after     8 iterations.
     Accept linear search using points  1 and  2.
 LinEq1:  Iter=  0 NonCon=     1 RMS=2.04D-04 Max=1.43D-03 NDo=     1
 LinEq1:  Iter=  1 NonCon=     1 RMS=4.92D-05 Max=4.52D-04 NDo=     1
 LinEq1:  Iter=  2 NonCon=     1 RMS=1.18D-05 Max=8.98D-05 NDo=     1
 LinEq1:  Iter=  3 NonCon=     1 RMS=1.38D-06 Max=7.76D-06 NDo=     1
 LinEq1:  Iter=  4 NonCon=     1 RMS=3.43D-07 Max=2.71D-06 NDo=     1
 LinEq1:  Iter=  5 NonCon=     1 RMS=8.49D-08 Max=4.69D-07 NDo=     1
 LinEq1:  Iter=  6 NonCon=     1 RMS=1.49D-08 Max=7.78D-08 NDo=     1
 LinEq1:  Iter=  7 NonCon=     1 RMS=3.40D-09 Max=2.01D-08 NDo=     1
 LinEq1:  Iter=  8 NonCon=     0 RMS=8.79D-10 Max=5.87D-09 NDo=     1
 Linear equations converged to 2.252D-09 2.252D-08 after     8 iterations.
     Minimum is close to point  2 DX=  3.51D-03 DF= -1.97D-10 DXR=  3.50D-03 DFR=  1.22D-05 which will be used.
 LinEq1:  Iter=  0 NonCon=     1 RMS=1.30D-06 Max=1.07D-05 NDo=     1
 LinEq1:  Iter=  1 NonCon=     1 RMS=3.90D-07 Max=2.23D-06 NDo=     1
 LinEq1:  Iter=  2 NonCon=     1 RMS=8.20D-08 Max=4.51D-07 NDo=     1
 LinEq1:  Iter=  3 NonCon=     1 RMS=1.73D-08 Max=9.84D-08 NDo=     1
 LinEq1:  Iter=  4 NonCon=     1 RMS=4.12D-09 Max=2.27D-08 NDo=     1
 LinEq1:  Iter=  5 NonCon=     1 RMS=7.44D-10 Max=3.68D-09 NDo=     1
 LinEq1:  Iter=  6 NonCon=     0 RMS=1.52D-10 Max=9.25D-10 NDo=     1
 Linear equations converged to 1.529D-10 1.529D-09 after     6 iterations.
 LinEq1:  Iter=  0 NonCon=     1 RMS=3.41D-08 Max=2.06D-07 NDo=     1
 LinEq1:  Iter=  1 NonCon=     1 RMS=1.10D-08 Max=5.68D-08 NDo=     1
 LinEq1:  Iter=  2 NonCon=     1 RMS=2.43D-09 Max=1.33D-08 NDo=     1
 LinEq1:  Iter=  3 NonCon=     1 RMS=5.19D-10 Max=3.08D-09 NDo=     1
 LinEq1:  Iter=  4 NonCon=     1 RMS=1.14D-10 Max=8.18D-10 NDo=     1
 LinEq1:  Iter=  5 NonCon=     1 RMS=2.97D-11 Max=1.56D-10 NDo=     1
 LinEq1:  Iter=  6 NonCon=     1 RMS=7.76D-12 Max=3.77D-11 NDo=     1
 LinEq1:  Iter=  7 NonCon=     0 RMS=1.19D-12 Max=7.35D-12 NDo=     1
 Linear equations converged to 5.261D-12 5.261D-11 after     7 iterations.
 SCF Done:  E(UAM1) =  0.592617487560     a.u. after   25 cycles
            Convg  =    0.1219D-07                   166 Fock formations.
              S**2 =  2.4865                  -V/T =  1.0087
 <Sx>= 0.0000 <Sy>= 0.0000 <Sz>= 0.5000 <S**2>= 2.4865 S= 1.1542
 <L.S>=  0.00000000000    
 Annihilation of the first spin contaminant:
 S**2 before annihilation     2.4865,   after     5.6751

 **********************************************************************

            Population analysis using the SCF Density.

 **********************************************************************

 Orbital symmetries:
 Alpha Orbitals:
       Occupied  (A') (A') (A') (A') (A') (A') (A') (A') (A") (A')
                 (A") (A') (A') (A') (A') (A") (A') (A")
       Virtual   (A') (A") (A') (A') (A") (A') (A') (A") (A') (A')
                 (A') (A') (A') (A')
 Beta  Orbitals:
       Occupied  (A') (A') (A') (A') (A') (A') (A') (A') (A") (A')
                 (A") (A') (A') (A') (A') (A") (A")
       Virtual   (A') (A') (A') (A') (A") (A") (A') (A') (A") (A')
                 (A') (A') (A') (A') (A')
 The electronic state is 2-A'.
 Alpha  occ. eigenvalues --   -1.40374  -1.35395  -1.10181  -1.08915  -0.81007
 Alpha  occ. eigenvalues --   -0.78550  -0.58447  -0.57854  -0.51528  -0.51205
 Alpha  occ. eigenvalues --   -0.44692  -0.44475  -0.44040  -0.43150  -0.38629
 Alpha  occ. eigenvalues --   -0.37761  -0.37548  -0.36787
 Alpha virt. eigenvalues --   -0.00226   0.02018   0.02211   0.03196   0.03624
 Alpha virt. eigenvalues --    0.04026   0.05898   0.10343   0.15451   0.15829
 Alpha virt. eigenvalues --    0.17721   0.18826   0.19028   0.20861
  Beta  occ. eigenvalues --   -1.39866  -1.35183  -1.09437  -1.07937  -0.79073
  Beta  occ. eigenvalues --   -0.77480  -0.59436  -0.57377  -0.51639  -0.47741
  Beta  occ. eigenvalues --   -0.45148  -0.44435  -0.43377  -0.40485  -0.38468
  Beta  occ. eigenvalues --   -0.37283  -0.35994
  Beta virt. eigenvalues --   -0.02580   0.02151   0.02446   0.02869   0.03382
  Beta virt. eigenvalues --    0.04139   0.04841   0.05409   0.10932   0.16085
  Beta virt. eigenvalues --    0.16317   0.18957   0.19230   0.19618   0.21317
          Condensed to atoms (all electrons):
               1          2          3          4          5          6
     1  C    4.039915   0.000000   0.000000   0.000000   0.000000   0.000000
     2  C    0.000000   4.131377   0.000000   0.000000   0.000000   0.000000
     3  C    0.000000   0.000000   4.119331   0.000000   0.000000   0.000000
     4  C    0.000000   0.000000   0.000000   4.117698   0.000000   0.000000
     5  C    0.000000   0.000000   0.000000   0.000000   4.132518   0.000000
     6  C    0.000000   0.000000   0.000000   0.000000   0.000000   4.027514
     7  Cl   0.000000   0.000000   0.000000   0.000000   0.000000   0.000000
     8  H    0.000000   0.000000   0.000000   0.000000   0.000000   0.000000
     9  H    0.000000   0.000000   0.000000   0.000000   0.000000   0.000000
    10  H    0.000000   0.000000   0.000000   0.000000   0.000000   0.000000
    11  H    0.000000   0.000000   0.000000   0.000000   0.000000   0.000000
               7          8          9         10         11
     1  C    0.000000   0.000000   0.000000   0.000000   0.000000
     2  C    0.000000   0.000000   0.000000   0.000000   0.000000
     3  C    0.000000   0.000000   0.000000   0.000000   0.000000
     4  C    0.000000   0.000000   0.000000   0.000000   0.000000
     5  C    0.000000   0.000000   0.000000   0.000000   0.000000
     6  C    0.000000   0.000000   0.000000   0.000000   0.000000
     7  Cl   7.029316   0.000000   0.000000   0.000000   0.000000
     8  H    0.000000   0.856550   0.000000   0.000000   0.000000
     9  H    0.000000   0.000000   0.851409   0.000000   0.000000
    10  H    0.000000   0.000000   0.000000   0.826044   0.000000
    11  H    0.000000   0.000000   0.000000   0.000000   0.868328
          Atomic-Atomic Spin Densities.
               1          2          3          4          5          6
     1  C   -0.611812   0.000000   0.000000   0.000000   0.000000   0.000000
     2  C    0.000000   1.008849   0.000000   0.000000   0.000000   0.000000
     3  C    0.000000   0.000000  -1.061071   0.000000   0.000000   0.000000
     4  C    0.000000   0.000000   0.000000   1.062291   0.000000   0.000000
     5  C    0.000000   0.000000   0.000000   0.000000  -1.057059   0.000000
     6  C    0.000000   0.000000   0.000000   0.000000   0.000000   1.533823
     7  Cl   0.000000   0.000000   0.000000   0.000000   0.000000   0.000000
     8  H    0.000000   0.000000   0.000000   0.000000   0.000000   0.000000
     9  H    0.000000   0.000000   0.000000   0.000000   0.000000   0.000000
    10  H    0.000000   0.000000   0.000000   0.000000   0.000000   0.000000
    11  H    0.000000   0.000000   0.000000   0.000000   0.000000   0.000000
               7          8          9         10         11
     1  C    0.000000   0.000000   0.000000   0.000000   0.000000
     2  C    0.000000   0.000000   0.000000   0.000000   0.000000
     3  C    0.000000   0.000000   0.000000   0.000000   0.000000
     4  C    0.000000   0.000000   0.000000   0.000000   0.000000
     5  C    0.000000   0.000000   0.000000   0.000000   0.000000
     6  C    0.000000   0.000000   0.000000   0.000000   0.000000
     7  Cl   0.008009   0.000000   0.000000   0.000000   0.000000
     8  H    0.000000  -0.461944   0.000000   0.000000   0.000000
     9  H    0.000000   0.000000   0.491659   0.000000   0.000000
    10  H    0.000000   0.000000   0.000000  -0.416608   0.000000
    11  H    0.000000   0.000000   0.000000   0.000000   0.503863
 Mulliken charges and spin densities:
               1          2
     1  C   -0.039915  -0.611812
     2  C   -0.131377   1.008849
     3  C   -0.119331  -1.061071
     4  C   -0.117698   1.062291
     5  C   -0.132518  -1.057059
     6  C   -0.027514   1.533823
     7  Cl  -0.029316   0.008009
     8  H    0.143450  -0.461944
     9  H    0.148591   0.491659
    10  H    0.173956  -0.416608
    11  H    0.131672   0.503863
 Sum of Mulliken charges =  -0.00000   1.00000
 Mulliken charges and spin densities with hydrogens summed into heavy atoms:
               1          2
     1  C   -0.039915  -0.611812
     2  C    0.042578   0.592241
     3  C    0.012342  -0.557208
     4  C    0.025753   0.600347
     5  C    0.016073  -0.565400
     6  C   -0.027514   1.533823
     7  Cl  -0.029316   0.008009
 Charge=             -0.0000 electrons
 Dipole moment (field-independent basis, Debye):
    X=             -1.3389    Y=              2.3871    Z=              0.0000  Tot=              2.7370
 N-N= 1.472898006858D+02 E-N=-2.020195779243D+02  KE=-6.786580180394D+01
 Symmetry A'   KE=-5.309070711781D+01
 Symmetry A"   KE=-1.477509468612D+01
 Symmetry A'   SP= 1.000000000000D+00
 Symmetry A"   SP= 0.000000000000D+00
 Calling FoFJK, ICntrl=      2127 FMM=F ISym2X=1 I1Cent= 0 IOpClX= 1 NMat=1 NMatS=1 NMatT=0.
 ***** Axes restored to original set *****
 -------------------------------------------------------------------
 Center     Atomic                   Forces (Hartrees/Bohr)
 Number     Number              X              Y              Z
 -------------------------------------------------------------------
      1        6          -0.036956600    0.010366384    0.000000000
      2        6           0.020652192    0.063558823    0.000000000
      3        6           0.044267986    0.027172829    0.000000000
      4        6           0.049896326   -0.027050397    0.000000000
      5        6          -0.009202400   -0.056784993    0.000000000
      6        6           0.064723905    0.010013958   -0.000000000
      7       17           0.033857376   -0.017788372    0.000000000
      8        1          -0.086041653    0.046266853   -0.000000000
      9        1          -0.003141724    0.094620325   -0.000000000
     10        1           0.001795461   -0.101328334   -0.000000000
     11        1          -0.079850869   -0.049047074   -0.000000000
 -------------------------------------------------------------------
 Cartesian Forces:  Max     0.101328334 RMS     0.042096354

 GradGradGradGradGradGradGradGradGradGradGradGradGradGradGradGradGradGrad
 Berny optimization.
 FormGI is forming the generalized inverse of G from B-inverse, IUseBI=4.
 Internal  Forces:  Max     0.101339427 RMS     0.032111601
 Search for a local minimum.
 Step number   1 out of a maximum of   57
 All quantities printed in internal units (Hartrees-Bohrs-Radians)
 Mixed Optimization -- RFO/linear search
 Second derivative matrix not updated -- first step.
 ITU=  0
     Eigenvalues ---    0.02011   0.02011   0.02011   0.02011   0.02011
     Eigenvalues ---    0.02011   0.02011   0.02011   0.06524   0.06524
     Eigenvalues ---    0.06524   0.06524   0.16000   0.16000   0.16000
     Eigenvalues ---    0.16000   0.22000   0.22408   0.24406   0.25000
     Eigenvalues ---    0.29033   0.40825   0.41341   0.44656   0.44657
     Eigenvalues ---    0.44657   0.44657
 RFO step:  Lambda=-1.75145849D-01 EMin= 2.01065650D-02
 Linear search not attempted -- first point.
 Maximum step size (   0.300) exceeded in Quadratic search.
    -- Step size scaled by   0.363
 Iteration  1 RMS(Cart)=  0.04866090 RMS(Int)=  0.00003607
 Iteration  2 RMS(Cart)=  0.00005349 RMS(Int)=  0.00000528
 Iteration  3 RMS(Cart)=  0.00000000 RMS(Int)=  0.00000528
 ClnCor:  largest displacement from symmetrization is 1.10D-08 for atom     8.
 Variable       Old X    -DE/DX   Delta X   Delta X   Delta X     New X
                                 (Linear)    (Quad)   (Total)
    R1        2.65676  -0.02154   0.00000  -0.01225  -0.01225   2.64452
    R2        2.65677  -0.02785   0.00000  -0.01607  -0.01607   2.64070
    R3        3.33635  -0.03824   0.00000  -0.02982  -0.02982   3.30653
    R4        2.65677  -0.03874   0.00000  -0.02247  -0.02248   2.63429
    R5        3.33634  -0.10134   0.00000  -0.15299  -0.15299   3.18335
    R6        2.65677  -0.03875   0.00000  -0.02280  -0.02280   2.63396
    R7        3.33633  -0.09371   0.00000  -0.14147  -0.14147   3.19486
    R8        2.65678  -0.04161   0.00000  -0.02462  -0.02462   2.63216
    R9        3.33633  -0.09769   0.00000  -0.14748  -0.14748   3.18885
   R10        2.65675  -0.05194   0.00000  -0.03046  -0.03045   2.62630
   R11        3.33632  -0.09467   0.00000  -0.14292  -0.14292   3.19340
    A1        2.09439  -0.01794   0.00000  -0.01457  -0.01456   2.07983
    A2        2.09439   0.00818   0.00000   0.00661   0.00661   2.10100
    A3        2.09440   0.00976   0.00000   0.00796   0.00796   2.10235
    A4        2.09439   0.00142   0.00000   0.00204   0.00203   2.09643
    A5        2.09440  -0.00236   0.00000  -0.00281  -0.00280   2.09160
    A6        2.09439   0.00094   0.00000   0.00076   0.00077   2.09516
    A7        2.09440   0.00339   0.00000   0.00304   0.00303   2.09742
    A8        2.09440  -0.00173   0.00000  -0.00156  -0.00155   2.09284
    A9        2.09439  -0.00166   0.00000  -0.00148  -0.00147   2.09292
   A10        2.09439   0.00058   0.00000  -0.00030  -0.00030   2.09409
   A11        2.09440   0.00016   0.00000   0.00064   0.00064   2.09504
   A12        2.09440  -0.00074   0.00000  -0.00034  -0.00034   2.09406
   A13        2.09439  -0.00314   0.00000  -0.00366  -0.00365   2.09074
   A14        2.09439   0.00247   0.00000   0.00281   0.00280   2.09719
   A15        2.09440   0.00067   0.00000   0.00085   0.00085   2.09525
   A16        2.09440   0.01568   0.00000   0.01344   0.01346   2.10786
    D1        0.00000  -0.00000   0.00000  -0.00000   0.00000   0.00000
    D2        3.14159  -0.00000   0.00000  -0.00000   0.00000   3.14159
    D3        3.14159   0.00000   0.00000   0.00000   0.00000   3.14159
    D4        0.00000  -0.00000   0.00000   0.00000   0.00000   0.00000
    D5        0.00000   0.00000   0.00000   0.00000   0.00000   0.00000
    D6        3.14159  -0.00000   0.00000  -0.00000   0.00000   3.14159
    D7        0.00000   0.00000   0.00000   0.00000   0.00000   0.00000
    D8        3.14159  -0.00000   0.00000  -0.00000   0.00000   3.14159
    D9        3.14159   0.00000   0.00000   0.00000   0.00000   3.14159
   D10        0.00000   0.00000   0.00000   0.00000   0.00000   0.00000
   D11        0.00000   0.00000   0.00000  -0.00000   0.00000   0.00000
   D12        3.14159  -0.00000   0.00000  -0.00000   0.00000   3.14159
   D13        3.14159   0.00000   0.00000   0.00000   0.00000   3.14159
   D14        0.00000   0.00000   0.00000   0.00000   0.00000   0.00000
   D15        0.00000  -0.00000   0.00000  -0.00000   0.00000   0.00000
   D16        3.14159  -0.00000   0.00000  -0.00000   0.00000   3.14159
   D17        3.14159   0.00000   0.00000   0.00000   0.00000   3.14159
   D18        0.00000  -0.00000   0.00000  -0.00000   0.00000   0.00000
   D19        0.00000  -0.00000   0.00000  -0.00000   0.00000   0.00000
   D20        3.14159   0.00000   0.00000   0.00000   0.00000   3.14159
         Item               Value     Threshold  Converged?
 Maximum Force            0.101339     0.000450     NO 
 RMS     Force            0.032112     0.000300     NO 
 Maximum Displacement     0.169108     0.001800     NO 
 RMS     Displacement     0.048672     0.001200     NO 
 Predicted change in Energy=-5.990845D-02
 GradGradGradGradGradGradGradGradGradGradGradGradGradGradGradGradGradGrad

                          Input orientation:                          
 ---------------------------------------------------------------------
 Center     Atomic      Atomic             Coordinates (Angstroms)
 Number     Number       Type             X           Y           Z
 ---------------------------------------------------------------------
      1          6           0       -3.193858    0.198848    0.000000
      2          6           0       -1.998763    0.926939    0.000000
      3          6           0       -0.774063    0.261086    0.000000
      4          6           0       -0.734145   -1.132175    0.000000
      5          6           0       -1.920200   -1.862509    0.000000
      6          6           0       -3.140564   -1.197533    0.000000
      7         17           0       -4.734897    1.027582    0.000000
      8          1           0        0.750292   -1.934669    0.000000
      9          1           0       -1.877053   -3.551834    0.000000
     10          1           0       -2.043197    2.610912    0.000000
     11          1           0        0.666578    1.145873    0.000000
 ---------------------------------------------------------------------
                    Distance matrix (angstroms):
                    1          2          3          4          5
     1  C    0.000000
     2  C    1.399418   0.000000
     3  C    2.420596   1.394006   0.000000
     4  C    2.796751   2.416446   1.393833   0.000000
     5  C    2.423096   2.790554   2.413148   1.392880   0.000000
     6  C    1.397398   2.411865   2.779910   2.407307   1.389777
     7  Cl   1.749743   2.737984   4.034318   4.546490   4.034246
     8  H    4.484219   3.968136   2.673012   1.687468   2.671467
     9  H    3.975122   4.480427   3.969250   2.676003   1.689877
    10  H    2.672465   1.684559   2.670652   3.965390   4.475111
    11  H    3.974899   2.674317   1.690649   2.674234   3.967591
                    6          7          8          9         10
     6  C    0.000000
     7  Cl   2.737341   0.000000
     8  H    3.960067   6.233958   0.000000
     9  H    2.671927   5.397992   3.085153   0.000000
    10  H    3.963391   3.122848   5.335343   6.164985   0.000000
    11  H    4.470557   5.402770   3.081679   5.342145   3.080457
                   11
    11  H    0.000000
 Stoichiometry    C6H4Cl(2)
 Framework group  CS[SG(C6H4Cl)]
 Deg. of freedom    19
 Full point group                 CS      NOp   2
 Largest Abelian subgroup         CS      NOp   2
 Largest concise Abelian subgroup C1      NOp   1
                         Standard orientation:                         
 ---------------------------------------------------------------------
 Center     Atomic      Atomic             Coordinates (Angstroms)
 Number     Number       Type             X           Y           Z
 ---------------------------------------------------------------------
      1          6           0       -0.000000   -0.545205   -0.000000
      2          6           0       -1.145248    0.259020    0.000000
      3          6           0       -1.024695    1.647803    0.000000
      4          6           0        0.236354    2.241541    0.000000
      5          6           0        1.380042    1.446498    0.000000
      6          6           0        1.258560    0.062041    0.000000
      7         17           0       -0.143342   -2.289066   -0.000000
      8          1           0        0.378280    3.923030    0.000000
      9          1           0        2.911162    2.161588    0.000000
     10          1           0       -2.670946   -0.455109   -0.000000
     11          1           0       -2.411756    2.614425    0.000000
 ---------------------------------------------------------------------
 Rotational constants (GHZ):           5.5332677           1.5133569           1.1883432
 Standard basis: VSTO-6G (5D, 7F)
 There are    25 symmetry adapted cartesian basis functions of A'  symmetry.
 There are     7 symmetry adapted cartesian basis functions of A"  symmetry.
 There are    25 symmetry adapted basis functions of A'  symmetry.
 There are     7 symmetry adapted basis functions of A"  symmetry.
    32 basis functions,   192 primitive gaussians,    32 cartesian basis functions
    18 alpha electrons       17 beta electrons
       nuclear repulsion energy       148.3027995533 Hartrees.
 Integral buffers will be    131072 words long.
 Regular integral format.
 Two-electron integral symmetry is turned off.
 Do NDO integrals.
 One-electron integrals computed using PRISM.
 NBasis=    32 RedAO= T EigKep=  1.00D+00  NBF=    25     7
 NBsUse=    32 1.00D-06 EigRej= -1.00D+00 NBFU=    25     7
 Initial guess from the checkpoint file:  "geometry_chks/_2ClBzNeutralRadical.chk"
 B after Tr=     0.000000    0.000000   -0.000000
         Rot=    0.999121    0.000000    0.000000    0.041915 Ang=   4.80 deg.
 Initial guess orbital symmetries:
 Alpha Orbitals:
       Occupied  (A') (A') (A') (A') (A') (A') (A') (A') (A") (A')
                 (A") (A') (A') (A') (A') (A") (A') (A")
       Virtual   (A') (A") (A') (A') (A") (A') (A') (A") (A') (A')
                 (A') (A') (A') (A')
 Beta  Orbitals:
       Occupied  (A') (A') (A') (A') (A') (A') (A') (A') (A") (A')
                 (A") (A') (A') (A') (A') (A") (A")
       Virtual   (A') (A') (A') (A') (A") (A") (A') (A') (A") (A')
                 (A') (A') (A') (A') (A')
 Initial guess <Sx>= 0.0000 <Sy>= 0.0000 <Sz>= 0.5000 <S**2>= 2.4865 S= 1.1542
 Keep J ints in memory in canonical form, NReq=862079.
 Overlap will be assumed to be unity.
 Requested convergence on RMS density matrix=1.00D-08 within  32 cycles.
 Requested convergence on MAX density matrix=1.00D-06.
 Requested convergence on             energy=1.00D-06.
 No special actions if energy rises.
 Fock symm off for IB=2 I1=    1 I=   26 J=    9 Cut=1.00D-07 Err=1.39D-03
 Fock matrix is not symmetric: symmetry in diagonalization turned off.
 SCF Done:  E(UAM1) =  0.524626322194     A.U. after   26 cycles
            NFock= 25  Conv=0.23D-08     -V/T= 1.0077
 <Sx>= 0.0000 <Sy>= 0.0000 <Sz>= 0.5000 <S**2>= 1.6589 S= 0.8816
 <L.S>=  0.00000000000    
 Annihilation of the first spin contaminant:
 S**2 before annihilation     1.6589,   after     1.8977
 QCSCF skips out because SCF is already converged.
 Calling FoFJK, ICntrl=      2127 FMM=F ISym2X=1 I1Cent= 0 IOpClX= 1 NMat=1 NMatS=1 NMatT=0.
 ***** Axes restored to original set *****
 -------------------------------------------------------------------
 Center     Atomic                   Forces (Hartrees/Bohr)
 Number     Number              X              Y              Z
 -------------------------------------------------------------------
      1        6          -0.036986856    0.010670866    0.000000000
      2        6           0.013799817    0.095202091    0.000000000
      3        6           0.074263566    0.046960274    0.000000000
      4        6           0.082949475   -0.043727399    0.000000000
      5        6          -0.008201378   -0.094190886    0.000000000
      6        6           0.046855064    0.008793862   -0.000000000
      7       17           0.027035921   -0.014035080   -0.000000000
      8        1          -0.102238736    0.054941690   -0.000000000
      9        1          -0.003626684    0.112168956   -0.000000000
     10        1           0.001976031   -0.118080458   -0.000000000
     11        1          -0.095826221   -0.058703916   -0.000000000
 -------------------------------------------------------------------
 Cartesian Forces:  Max     0.118080458 RMS     0.052809188

 GradGradGradGradGradGradGradGradGradGradGradGradGradGradGradGradGradGrad
 Berny optimization.
 Using GEDIIS/GDIIS optimizer.
 FormGI is forming the generalized inverse of G from B-inverse, IUseBI=4.
 Internal  Forces:  Max     0.118091495 RMS     0.034857838
 Search for a local minimum.
 Step number   2 out of a maximum of   57
 All quantities printed in internal units (Hartrees-Bohrs-Radians)
 Mixed Optimization -- RFO/linear search
 Update second derivatives using D2CorX and points    1    2
 DE= -6.80D-02 DEPred=-5.99D-02 R= 1.13D+00
 TightC=F SS=  1.41D+00  RLast= 3.00D-01 DXNew= 5.0454D-01 9.0000D-01
 Trust test= 1.13D+00 RLast= 3.00D-01 DXMaxT set to 5.05D-01
 ITU=  1  0
 Use linear search instead of GDIIS.
     Eigenvalues ---   -0.18483   0.02011   0.02011   0.02011   0.02011
     Eigenvalues ---    0.02011   0.02011   0.02011   0.02011   0.06471
     Eigenvalues ---    0.06524   0.06524   0.15845   0.15998   0.16000
     Eigenvalues ---    0.16000   0.16109   0.22000   0.22402   0.24833
     Eigenvalues ---    0.25003   0.30957   0.40975   0.41278   0.44639
     Eigenvalues ---    0.44656   0.44657
 RFO step:  Lambda=-3.21308841D-01 EMin=-1.84830658D-01
 Skip linear search -- no minimum in search direction.
 Maximum step size (   0.505) exceeded in Quadratic search.
    -- Step size scaled by   0.486
 Iteration  1 RMS(Cart)=  0.05067528 RMS(Int)=  0.01486654
 Iteration  2 RMS(Cart)=  0.01434822 RMS(Int)=  0.00000770
 Iteration  3 RMS(Cart)=  0.00000385 RMS(Int)=  0.00000741
 Iteration  4 RMS(Cart)=  0.00000000 RMS(Int)=  0.00000741
 ClnCor:  largest displacement from symmetrization is 1.73D-10 for atom     9.
 Variable       Old X    -DE/DX   Delta X   Delta X   Delta X     New X
                                 (Linear)    (Quad)   (Total)
    R1        2.64452  -0.01084   0.00000   0.01463   0.01462   2.65913
    R2        2.64070  -0.01677   0.00000   0.00941   0.00941   2.65011
    R3        3.30653  -0.03046   0.00000  -0.01380  -0.01380   3.29274
    R4        2.63429  -0.02180   0.00000   0.01889   0.01888   2.65317
    R5        3.18335  -0.11809   0.00000  -0.25140  -0.25140   2.93195
    R6        2.63396  -0.02061   0.00000   0.02325   0.02324   2.65721
    R7        3.19486  -0.11238   0.00000  -0.25082  -0.25082   2.94405
    R8        2.63216  -0.02274   0.00000   0.02278   0.02279   2.65495
    R9        3.18885  -0.11607   0.00000  -0.25520  -0.25520   2.93365
   R10        2.62630  -0.03281   0.00000   0.01278   0.01279   2.63909
   R11        3.19340  -0.11222   0.00000  -0.24585  -0.24585   2.94755
    A1        2.07983  -0.01503   0.00000  -0.01061  -0.01061   2.06921
    A2        2.10100   0.00678   0.00000   0.00455   0.00455   2.10555
    A3        2.10235   0.00825   0.00000   0.00606   0.00606   2.10842
    A4        2.09643   0.00142   0.00000   0.00169   0.00167   2.09810
    A5        2.09160  -0.00252   0.00000  -0.00400  -0.00399   2.08761
    A6        2.09516   0.00110   0.00000   0.00230   0.00231   2.09747
    A7        2.09742   0.00306   0.00000   0.00354   0.00353   2.10095
    A8        2.09284  -0.00173   0.00000  -0.00265  -0.00265   2.09020
    A9        2.09292  -0.00133   0.00000  -0.00089  -0.00088   2.09204
   A10        2.09409  -0.00062   0.00000  -0.00385  -0.00385   2.09024
   A11        2.09504   0.00077   0.00000   0.00261   0.00261   2.09765
   A12        2.09406  -0.00015   0.00000   0.00124   0.00124   2.09530
   A13        2.09074  -0.00460   0.00000  -0.01046  -0.01044   2.08031
   A14        2.09719   0.00352   0.00000   0.00807   0.00806   2.10525
   A15        2.09525   0.00108   0.00000   0.00239   0.00238   2.09763
   A16        2.10786   0.01577   0.00000   0.01968   0.01970   2.12757
    D1        0.00000  -0.00000   0.00000  -0.00000   0.00000   0.00000
    D2        3.14159  -0.00000   0.00000  -0.00000   0.00000   3.14159
    D3        3.14159   0.00000   0.00000  -0.00000   0.00000   3.14159
    D4       -0.00000  -0.00000   0.00000   0.00000   0.00000   0.00000
    D5       -0.00000   0.00000   0.00000   0.00000   0.00000   0.00000
    D6        3.14159   0.00000   0.00000   0.00000   0.00000   3.14159
    D7       -0.00000   0.00000   0.00000  -0.00000   0.00000   0.00000
    D8        3.14159  -0.00000   0.00000   0.00000   0.00000   3.14159
    D9        3.14159   0.00000   0.00000  -0.00000   0.00000   3.14159
   D10        0.00000  -0.00000   0.00000  -0.00000  -0.00000   0.00000
   D11        0.00000   0.00000   0.00000   0.00000  -0.00000   0.00000
   D12        3.14159  -0.00000   0.00000  -0.00000   0.00000   3.14159
   D13        3.14159   0.00000   0.00000   0.00000   0.00000   3.14159
   D14       -0.00000  -0.00000   0.00000  -0.00000   0.00000   0.00000
   D15       -0.00000  -0.00000   0.00000  -0.00000   0.00000   0.00000
   D16        3.14159  -0.00000   0.00000  -0.00000   0.00000   3.14159
   D17        3.14159   0.00000   0.00000   0.00000   0.00000   3.14159
   D18        0.00000  -0.00000   0.00000  -0.00000  -0.00000   0.00000
   D19        0.00000  -0.00000   0.00000  -0.00000  -0.00000   0.00000
   D20        3.14159   0.00000   0.00000   0.00000   0.00000   3.14159
         Item               Value     Threshold  Converged?
 Maximum Force            0.118091     0.000450     NO 
 RMS     Force            0.034858     0.000300     NO 
 Maximum Displacement     0.232645     0.001800     NO 
 RMS     Displacement     0.064812     0.001200     NO 
 Predicted change in Energy=-1.343180D-01
 GradGradGradGradGradGradGradGradGradGradGradGradGradGradGradGradGradGrad

                          Input orientation:                          
 ---------------------------------------------------------------------
 Center     Atomic      Atomic             Coordinates (Angstroms)
 Number     Number       Type             X           Y           Z
 ---------------------------------------------------------------------
      1          6           0       -3.183409    0.206283   -0.000000
      2          6           0       -1.980817    0.936936    0.000000
      3          6           0       -0.747036    0.266873    0.000000
      4          6           0       -0.701170   -1.138511    0.000000
      5          6           0       -1.897399   -1.875327    0.000000
      6          6           0       -3.116756   -1.194511    0.000000
      7         17           0       -4.720760    1.026437   -0.000000
      8          1           0        0.665480   -1.874912    0.000000
      9          1           0       -1.869936   -3.434861    0.000000
     10          1           0       -2.026037    2.487801   -0.000000
     11          1           0        0.577971    1.086311    0.000000
 ---------------------------------------------------------------------
                    Distance matrix (angstroms):
                    1          2          3          4          5
     1  C    0.000000
     2  C    1.407153   0.000000
     3  C    2.437126   1.403994   0.000000
     4  C    2.823116   2.438233   1.406132   0.000000
     5  C    2.446818   2.813500   2.431533   1.404942   0.000000
     6  C    1.402379   2.415249   2.784101   2.416236   1.396547
     7  Cl   1.742441   2.741404   4.045667   4.565535   4.048654
     8  H    4.375536   3.861266   2.565627   1.552423   2.562879
     9  H    3.870806   4.373203   3.868299   2.576671   1.559776
    10  H    2.558287   1.551524   2.562882   3.860753   4.365024
    11  H    3.862956   2.563144   1.557923   2.566327   3.859891
                    6          7          8          9         10
     6  C    0.000000
     7  Cl   2.739605   0.000000
     8  H    3.842949   6.117958   0.000000
     9  H    2.563929   5.294373   2.976873   0.000000
    10  H    3.840455   3.065472   5.126161   5.924719   0.000000
    11  H    4.342023   5.299069   2.962516   5.141327   2.957199
                   11
    11  H    0.000000
 Stoichiometry    C6H4Cl(2)
 Framework group  CS[SG(C6H4Cl)]
 Deg. of freedom    19
 Full point group                 CS      NOp   2
 Largest Abelian subgroup         CS      NOp   2
 Largest concise Abelian subgroup C1      NOp   1
                         Standard orientation:                         
 ---------------------------------------------------------------------
 Center     Atomic      Atomic             Coordinates (Angstroms)
 Number     Number       Type             X           Y           Z
 ---------------------------------------------------------------------
      1          6           0       -0.000000   -0.552989   -0.000000
      2          6           0       -1.156996    0.247911   -0.000000
      3          6           0       -1.047339    1.647616    0.000000
      4          6           0        0.217602    2.261728    0.000000
      5          6           0        1.377636    1.469148    0.000000
      6          6           0        1.252285    0.078238    0.000000
      7         17           0       -0.123141   -2.291074   -0.000000
      8          1           0        0.333750    3.809800    0.000000
      9          1           0        2.790864    2.129215    0.000000
     10          1           0       -2.555076   -0.424844   -0.000000
     11          1           0       -2.335270    2.524175    0.000000
 ---------------------------------------------------------------------
 Rotational constants (GHZ):           5.5943172           1.5115165           1.1899945
 Standard basis: VSTO-6G (5D, 7F)
 There are    25 symmetry adapted cartesian basis functions of A'  symmetry.
 There are     7 symmetry adapted cartesian basis functions of A"  symmetry.
 There are    25 symmetry adapted basis functions of A'  symmetry.
 There are     7 symmetry adapted basis functions of A"  symmetry.
    32 basis functions,   192 primitive gaussians,    32 cartesian basis functions
    18 alpha electrons       17 beta electrons
       nuclear repulsion energy       148.7253437135 Hartrees.
 Integral buffers will be    131072 words long.
 Regular integral format.
 Two-electron integral symmetry is turned off.
 Do NDO integrals.
 One-electron integrals computed using PRISM.
 NBasis=    32 RedAO= T EigKep=  1.00D+00  NBF=    25     7
 NBsUse=    32 1.00D-06 EigRej= -1.00D+00 NBFU=    25     7
 Initial guess from the checkpoint file:  "geometry_chks/_2ClBzNeutralRadical.chk"
 B after Tr=     0.000000   -0.000000    0.000000
         Rot=    0.999991   -0.000000   -0.000000   -0.004303 Ang=  -0.49 deg.
 Initial guess orbital symmetries:
 Alpha Orbitals:
       Occupied  (A') (A') (A') (A') (A') (A') (A') (A') (A") (A')
                 (A') (A") (A') (A') (A') (A") (A') (A")
       Virtual   (A') (A") (A') (A") (A') (A') (A') (A") (A') (A')
                 (A') (A') (A') (A')
 Beta  Orbitals:
       Occupied  (A') (A') (A') (A') (A') (A') (A') (A') (A") (A')
                 (A") (A') (A') (A') (A') (A") (A")
       Virtual   (A') (A') (A") (A') (A') (A") (A') (A') (A") (A')
                 (A') (A') (A') (A') (A')
 Initial guess <Sx>= 0.0000 <Sy>= 0.0000 <Sz>= 0.5000 <S**2>= 1.6589 S= 0.8816
 Keep J ints in memory in canonical form, NReq=862079.
 Overlap will be assumed to be unity.
 Requested convergence on RMS density matrix=1.00D-08 within  32 cycles.
 Requested convergence on MAX density matrix=1.00D-06.
 Requested convergence on             energy=1.00D-06.
 No special actions if energy rises.
 Fock symm off for IB=2 I1=    1 I=   26 J=   13 Cut=1.00D-07 Err=4.39D-04
 Fock matrix is not symmetric: symmetry in diagonalization turned off.
 SCF Done:  E(UAM1) =  0.405722890229     A.U. after   21 cycles
            NFock= 20  Conv=0.83D-08     -V/T= 1.0059
 <Sx>= 0.0000 <Sy>= 0.0000 <Sz>= 0.5000 <S**2>= 1.3344 S= 0.7587
 <L.S>=  0.00000000000    
 Annihilation of the first spin contaminant:
 S**2 before annihilation     1.3344,   after     1.0805
 QCSCF skips out because SCF is already converged.
 Calling FoFJK, ICntrl=      2127 FMM=F ISym2X=1 I1Cent= 0 IOpClX= 1 NMat=1 NMatS=1 NMatT=0.
 ***** Axes restored to original set *****
 -------------------------------------------------------------------
 Center     Atomic                   Forces (Hartrees/Bohr)
 Number     Number              X              Y              Z
 -------------------------------------------------------------------
      1        6          -0.022774315    0.003183622    0.000000000
      2        6           0.012738712    0.091597007    0.000000000
      3        6           0.074420260    0.045545864   -0.000000000
      4        6           0.077732648   -0.040185557    0.000000000
      5        6          -0.005626536   -0.094470675    0.000000000
      6        6           0.049513664    0.013818712   -0.000000000
      7       17           0.025393305   -0.013166149   -0.000000000
      8        1          -0.107775320    0.057772890   -0.000000000
      9        1          -0.002755935    0.121495843   -0.000000000
     10        1           0.002741412   -0.121724119   -0.000000000
     11        1          -0.103607895   -0.063867438   -0.000000000
 -------------------------------------------------------------------
 Cartesian Forces:  Max     0.121724119 RMS     0.053971994

 GradGradGradGradGradGradGradGradGradGradGradGradGradGradGradGradGradGrad
 Berny optimization.
 Using GEDIIS/GDIIS optimizer.
 FormGI is forming the generalized inverse of G from B-inverse, IUseBI=4.
 Internal  Forces:  Max     0.122283100 RMS     0.037601043
 Search for a local minimum.
 Step number   3 out of a maximum of   57
 All quantities printed in internal units (Hartrees-Bohrs-Radians)
 Mixed Optimization -- RFO/linear search
 Update second derivatives using D2CorX and points    2    3
 DE= -1.19D-01 DEPred=-1.34D-01 R= 8.85D-01
 TightC=F SS=  1.41D+00  RLast= 5.05D-01 DXNew= 8.4853D-01 1.5136D+00
 Trust test= 8.85D-01 RLast= 5.05D-01 DXMaxT set to 8.49D-01
 ITU=  1  1  0
 Use linear search instead of GDIIS.
     Eigenvalues ---   -0.04009   0.02011   0.02011   0.02011   0.02011
     Eigenvalues ---    0.02011   0.02011   0.02011   0.02011   0.06127
     Eigenvalues ---    0.06510   0.06524   0.13112   0.15994   0.16000
     Eigenvalues ---    0.16000   0.16013   0.21985   0.22355   0.23684
     Eigenvalues ---    0.24999   0.29002   0.40643   0.41285   0.44429
     Eigenvalues ---    0.44654   0.44656
 RFO step:  Lambda=-2.76891822D-01 EMin=-4.00875389D-02
 Skip linear search -- no minimum in search direction.
 Maximum step size (   0.849) exceeded in Quadratic search.
    -- Step size scaled by   0.842
 Iteration  1 RMS(Cart)=  0.09135528 RMS(Int)=  0.06048595
 Iteration  2 RMS(Cart)=  0.05538809 RMS(Int)=  0.00403210
 Iteration  3 RMS(Cart)=  0.00392041 RMS(Int)=  0.00004009
 Iteration  4 RMS(Cart)=  0.00000003 RMS(Int)=  0.00004009
 ClnCor:  largest displacement from symmetrization is 9.64D-10 for atom     9.
 Variable       Old X    -DE/DX   Delta X   Delta X   Delta X     New X
                                 (Linear)    (Quad)   (Total)
    R1        2.65913  -0.02033   0.00000  -0.06679  -0.06685   2.59228
    R2        2.65011  -0.02620   0.00000  -0.08100  -0.08101   2.56910
    R3        3.29274  -0.02860   0.00000  -0.07161  -0.07161   3.22112
    R4        2.65317  -0.03192   0.00000  -0.09400  -0.09406   2.55911
    R5        2.93195  -0.12175   0.00000  -0.38636  -0.38636   2.54559
    R6        2.65721  -0.03165   0.00000  -0.09561  -0.09560   2.56160
    R7        2.94405  -0.12171   0.00000  -0.41927  -0.41927   2.52477
    R8        2.65495  -0.03307   0.00000  -0.09713  -0.09707   2.55789
    R9        2.93365  -0.12228   0.00000  -0.40211  -0.40211   2.53155
   R10        2.63909  -0.03996   0.00000  -0.10569  -0.10563   2.53346
   R11        2.94755  -0.12153   0.00000  -0.41968  -0.41968   2.52787
    A1        2.06921  -0.01238   0.00000  -0.02404  -0.02412   2.04510
    A2        2.10555   0.00564   0.00000   0.01110   0.01114   2.11670
    A3        2.10842   0.00674   0.00000   0.01294   0.01297   2.12139
    A4        2.09810   0.00010   0.00000  -0.00392  -0.00403   2.09407
    A5        2.08761  -0.00124   0.00000   0.00135   0.00141   2.08902
    A6        2.09747   0.00113   0.00000   0.00257   0.00263   2.10010
    A7        2.10095   0.00293   0.00000   0.00755   0.00750   2.10845
    A8        2.09020  -0.00172   0.00000  -0.00479  -0.00477   2.08543
    A9        2.09204  -0.00120   0.00000  -0.00276  -0.00274   2.08930
   A10        2.09024   0.00098   0.00000   0.00761   0.00768   2.09792
   A11        2.09765  -0.00010   0.00000  -0.00297  -0.00300   2.09465
   A12        2.09530  -0.00088   0.00000  -0.00464  -0.00468   2.09062
   A13        2.08031  -0.00492   0.00000  -0.01689  -0.01678   2.06353
   A14        2.10525   0.00337   0.00000   0.00968   0.00962   2.11488
   A15        2.09763   0.00155   0.00000   0.00721   0.00716   2.10478
   A16        2.12757   0.01330   0.00000   0.02969   0.02974   2.15731
    D1       -0.00000  -0.00000   0.00000   0.00000   0.00000   0.00000
    D2        3.14159  -0.00000   0.00000  -0.00000   0.00000   3.14159
    D3        3.14159   0.00000   0.00000   0.00000   0.00000   3.14159
    D4       -0.00000   0.00000   0.00000   0.00000   0.00000   0.00000
    D5        0.00000   0.00000   0.00000  -0.00000   0.00000   0.00000
    D6        3.14159  -0.00000   0.00000  -0.00000   0.00000   3.14159
    D7        0.00000  -0.00000   0.00000  -0.00000   0.00000   0.00000
    D8        3.14159  -0.00000   0.00000  -0.00000   0.00000   3.14159
    D9        3.14159   0.00000   0.00000   0.00000   0.00000   3.14159
   D10        0.00000   0.00000   0.00000   0.00000   0.00000   0.00000
   D11       -0.00000   0.00000   0.00000   0.00000   0.00000   0.00000
   D12        3.14159  -0.00000   0.00000  -0.00000   0.00000   3.14159
   D13        3.14159   0.00000   0.00000   0.00000   0.00000   3.14159
   D14       -0.00000  -0.00000   0.00000   0.00000   0.00000   0.00000
   D15        0.00000  -0.00000   0.00000   0.00000   0.00000   0.00000
   D16        3.14159  -0.00000   0.00000   0.00000   0.00000   3.14159
   D17        3.14159   0.00000   0.00000   0.00000   0.00000   3.14159
   D18        0.00000  -0.00000   0.00000   0.00000  -0.00000   0.00000
   D19       -0.00000  -0.00000   0.00000   0.00000   0.00000   0.00000
   D20        3.14159   0.00000   0.00000   0.00000   0.00000   3.14159
         Item               Value     Threshold  Converged?
 Maximum Force            0.122283     0.000450     NO 
 RMS     Force            0.037601     0.000300     NO 
 Maximum Displacement     0.506472     0.001800     NO 
 RMS     Displacement     0.146366     0.001200     NO 
 Predicted change in Energy=-2.319087D-01
 GradGradGradGradGradGradGradGradGradGradGradGradGradGradGradGradGradGrad

                          Input orientation:                          
 ---------------------------------------------------------------------
 Center     Atomic      Atomic             Coordinates (Angstroms)
 Number     Number       Type             X           Y           Z
 ---------------------------------------------------------------------
      1          6           0       -3.116673    0.191035   -0.000000
      2          6           0       -1.941953    0.899416    0.000000
      3          6           0       -0.756699    0.244367    0.000000
      4          6           0       -0.712286   -1.110447    0.000000
      5          6           0       -1.859188   -1.829322    0.000000
      6          6           0       -3.023840   -1.165303    0.000000
      7         17           0       -4.626814    0.981572   -0.000000
      8          1           0        0.469036   -1.742193    0.000000
      9          1           0       -1.838039   -3.166848    0.000000
     10          1           0       -1.974840    2.246083   -0.000000
     11          1           0        0.381427    0.944158    0.000000
 ---------------------------------------------------------------------
                    Distance matrix (angstroms):
                    1          2          3          4          5
     1  C    0.000000
     2  C    1.371776   0.000000
     3  C    2.360577   1.354222   0.000000
     4  C    2.734033   2.356190   1.355541   0.000000
     5  C    2.379729   2.729993   2.348546   1.353575   0.000000
     6  C    1.359511   2.330996   2.669663   2.312205   1.340648
     7  Cl   1.704545   2.686118   3.939704   4.438477   3.944728
     8  H    4.073658   3.576447   2.334277   1.339636   2.329854
     9  H    3.593088   4.067591   3.578503   2.344378   1.337693
    10  H    2.350958   1.347068   2.343232   3.586131   4.077046
    11  H    3.578254   2.323811   1.336053   2.327575   3.565466
                    6          7          8          9         10
     6  C    0.000000
     7  Cl   2.679290   0.000000
     8  H    3.540196   5.778113   0.000000
     9  H    2.326437   4.998665   2.711501   0.000000
    10  H    3.569027   2.938019   4.677487   5.414659   0.000000
    11  H    4.005705   5.008381   2.687779   4.671873   2.692026
                   11
    11  H    0.000000
 Stoichiometry    C6H4Cl(2)
 Framework group  CS[SG(C6H4Cl)]
 Deg. of freedom    19
 Full point group                 CS      NOp   2
 Largest Abelian subgroup         CS      NOp   2
 Largest concise Abelian subgroup C1      NOp   1
                         Standard orientation:                         
 ---------------------------------------------------------------------
 Center     Atomic      Atomic             Coordinates (Angstroms)
 Number     Number       Type             X           Y           Z
 ---------------------------------------------------------------------
      1          6           0       -0.000000   -0.531358   -0.000000
      2          6           0       -1.131259    0.244544   -0.000000
      3          6           0       -1.025855    1.594659    0.000000
      4          6           0        0.188935    2.196139    0.000000
      5          6           0        1.318226    1.449902    0.000000
      6          6           0        1.196125    0.114826    0.000000
      7         17           0       -0.094186   -2.233299   -0.000000
      8          1           0        0.274757    3.533023    0.000000
      9          1           0        2.526914    2.023048    0.000000
     10          1           0       -2.343406   -0.343071   -0.000000
     11          1           0       -2.134140    2.340809    0.000000
 ---------------------------------------------------------------------
 Rotational constants (GHZ):           6.1442767           1.6048577           1.2724892
 Standard basis: VSTO-6G (5D, 7F)
 There are    25 symmetry adapted cartesian basis functions of A'  symmetry.
 There are     7 symmetry adapted cartesian basis functions of A"  symmetry.
 There are    25 symmetry adapted basis functions of A'  symmetry.
 There are     7 symmetry adapted basis functions of A"  symmetry.
    32 basis functions,   192 primitive gaussians,    32 cartesian basis functions
    18 alpha electrons       17 beta electrons
       nuclear repulsion energy       152.5882764340 Hartrees.
 Integral buffers will be    131072 words long.
 Regular integral format.
 Two-electron integral symmetry is turned off.
 Do NDO integrals.
 One-electron integrals computed using PRISM.
 NBasis=    32 RedAO= T EigKep=  1.00D+00  NBF=    25     7
 NBsUse=    32 1.00D-06 EigRej= -1.00D+00 NBFU=    25     7
 Initial guess from the checkpoint file:  "geometry_chks/_2ClBzNeutralRadical.chk"
 B after Tr=    -0.000000    0.000000   -0.000000
         Rot=    0.999987   -0.000000   -0.000000   -0.005090 Ang=  -0.58 deg.
 Initial guess orbital symmetries:
 Alpha Orbitals:
       Occupied  (A') (A') (A') (A') (A') (A') (A') (A') (A') (A")
                 (A') (A') (A") (A') (A') (A') (A") (A")
       Virtual   (A") (A") (A') (A') (A') (A') (A') (A") (A') (A')
                 (A') (A') (A') (A')
 Beta  Orbitals:
       Occupied  (A') (A') (A') (A') (A') (A') (A') (A') (A") (A')
                 (A') (A") (A') (A') (A') (A") (A")
       Virtual   (A') (A") (A') (A") (A') (A') (A') (A') (A") (A')
                 (A') (A') (A') (A') (A')
 Initial guess <Sx>= 0.0000 <Sy>= 0.0000 <Sz>= 0.5000 <S**2>= 1.3344 S= 0.7587
 Keep J ints in memory in canonical form, NReq=862079.
 Overlap will be assumed to be unity.
 Requested convergence on RMS density matrix=1.00D-08 within  32 cycles.
 Requested convergence on MAX density matrix=1.00D-06.
 Requested convergence on             energy=1.00D-06.
 No special actions if energy rises.
 Fock symm off for IB=2 I1=    1 I=   26 J=    5 Cut=1.00D-07 Err=4.97D-03
 Fock matrix is not symmetric: symmetry in diagonalization turned off.
 SCF Done:  E(UAM1) =  0.223210338815     A.U. after   18 cycles
            NFock= 17  Conv=0.40D-08     -V/T= 1.0033
 <Sx>= 0.0000 <Sy>= 0.0000 <Sz>= 0.5000 <S**2>= 0.9978 S= 0.6171
 <L.S>=  0.00000000000    
 Annihilation of the first spin contaminant:
 S**2 before annihilation     0.9978,   after     0.7970
 QCSCF skips out because SCF is already converged.
 Calling FoFJK, ICntrl=      2127 FMM=F ISym2X=1 I1Cent= 0 IOpClX= 1 NMat=1 NMatS=1 NMatT=0.
 ***** Axes restored to original set *****
 -------------------------------------------------------------------
 Center     Atomic                   Forces (Hartrees/Bohr)
 Number     Number              X              Y              Z
 -------------------------------------------------------------------
      1        6          -0.057641412    0.019160199    0.000000000
      2        6          -0.005091420    0.141096176    0.000000000
      3        6           0.122449230    0.077681149    0.000000000
      4        6           0.133995181   -0.067267273    0.000000000
      5        6          -0.009268005   -0.155872115    0.000000000
      6        6          -0.021614868   -0.006683164   -0.000000000
      7       17           0.003636610   -0.001780215   -0.000000000
      8        1          -0.085024461    0.045320858   -0.000000000
      9        1          -0.001882345    0.096038651   -0.000000000
     10        1           0.001791848   -0.097824696   -0.000000000
     11        1          -0.081350358   -0.049869570   -0.000000000
 -------------------------------------------------------------------
 Cartesian Forces:  Max     0.155872115 RMS     0.062578335

 GradGradGradGradGradGradGradGradGradGradGradGradGradGradGradGradGradGrad
 Berny optimization.
 Using GEDIIS/GDIIS optimizer.
 FormGI is forming the generalized inverse of G from B-inverse, IUseBI=4.
 Internal  Forces:  Max     0.097839285 RMS     0.033017758
 Search for a local minimum.
 Step number   4 out of a maximum of   57
 All quantities printed in internal units (Hartrees-Bohrs-Radians)
 Mixed Optimization -- RFO/linear search
 Update second derivatives using D2CorX and points    3    4
 DE= -1.83D-01 DEPred=-2.32D-01 R= 7.87D-01
 TightC=F SS=  1.41D+00  RLast= 8.49D-01 DXNew= 1.4270D+00 2.5456D+00
 Trust test= 7.87D-01 RLast= 8.49D-01 DXMaxT set to 1.43D+00
 ITU=  1  1  1  0
 Use linear search instead of GDIIS.
     Eigenvalues ---    0.02011   0.02011   0.02011   0.02011   0.02011
     Eigenvalues ---    0.02011   0.02011   0.02011   0.02750   0.06488
     Eigenvalues ---    0.06524   0.06528   0.15982   0.15999   0.16000
     Eigenvalues ---    0.16000   0.21985   0.22362   0.23717   0.24999
     Eigenvalues ---    0.28362   0.40286   0.40991   0.44450   0.44606
     Eigenvalues ---    0.44656   0.58334
 RFO step:  Lambda=-1.67877223D-01 EMin= 2.01065647D-02
 Quartic linear search produced a step of  0.73940.
 Iteration  1 RMS(Cart)=  0.04943029 RMS(Int)=  0.10946181
 Iteration  2 RMS(Cart)=  0.05654187 RMS(Int)=  0.05120018
 Iteration  3 RMS(Cart)=  0.04951592 RMS(Int)=  0.00015528
 Iteration  4 RMS(Cart)=  0.00001247 RMS(Int)=  0.00015473
 Iteration  5 RMS(Cart)=  0.00000000 RMS(Int)=  0.00015473
 ClnCor:  largest displacement from symmetrization is 9.87D-09 for atom    10.
 Variable       Old X    -DE/DX   Delta X   Delta X   Delta X     New X
                                 (Linear)    (Quad)   (Total)
    R1        2.59228   0.04581  -0.04943   0.14928   0.09959   2.69188
    R2        2.56910   0.03715  -0.05990   0.13586   0.07584   2.64494
    R3        3.22112  -0.00405  -0.05295   0.03936  -0.01359   3.20753
    R4        2.55911   0.05138  -0.06954   0.19141   0.12174   2.68085
    R5        2.54559  -0.09784  -0.28568  -0.30765  -0.59333   1.95226
    R6        2.56160   0.05215  -0.07069   0.20219   0.13163   2.69323
    R7        2.52477  -0.09542  -0.31001  -0.25330  -0.56332   1.96146
    R8        2.55789   0.05391  -0.07177   0.20704   0.13552   2.69341
    R9        2.53155  -0.09635  -0.29732  -0.28604  -0.58336   1.94818
   R10        2.53346   0.04393  -0.07811   0.18183   0.10383   2.63728
   R11        2.52787  -0.09606  -0.31031  -0.24847  -0.55878   1.96909
    A1        2.04510  -0.00667  -0.01783  -0.00791  -0.02614   2.01896
    A2        2.11670   0.00316   0.00824   0.00344   0.01188   2.12858
    A3        2.12139   0.00351   0.00959   0.00446   0.01426   2.13565
    A4        2.09407   0.00226  -0.00298   0.00978   0.00641   2.10047
    A5        2.08902  -0.00189   0.00104  -0.01076  -0.00953   2.07949
    A6        2.10010  -0.00037   0.00194   0.00098   0.00312   2.10322
    A7        2.10845   0.00043   0.00555   0.00075   0.00631   2.11477
    A8        2.08543  -0.00038  -0.00352  -0.00136  -0.00489   2.08054
    A9        2.08930  -0.00006  -0.00202   0.00061  -0.00142   2.08788
   A10        2.09792  -0.00384   0.00568  -0.01979  -0.01371   2.08421
   A11        2.09465   0.00208  -0.00222   0.01050   0.00808   2.10272
   A12        2.09062   0.00175  -0.00346   0.00930   0.00564   2.09626
   A13        2.06353  -0.00637  -0.01241  -0.01821  -0.03022   2.03330
   A14        2.11488   0.00364   0.00712   0.01341   0.02033   2.13521
[...]
 Iteration  1 RMS(Cart)=  0.00003054 RMS(Int)=  0.00000000
 Iteration  2 RMS(Cart)=  0.00000000 RMS(Int)=  0.00000000
 ClnCor:  largest displacement from symmetrization is 9.53D-13 for atom    10.
 Variable       Old X    -DE/DX   Delta X   Delta X   Delta X     New X
                                 (Linear)    (Quad)   (Total)
    R1        2.66976  -0.00002  -0.00000  -0.00004  -0.00005   2.66972
    R2        2.60028  -0.00001  -0.00001  -0.00003  -0.00003   2.60024
    R3        3.18361  -0.00002  -0.00001  -0.00006  -0.00007   3.18355
    R4        2.64779   0.00001  -0.00000   0.00002   0.00002   2.64781
    R5        2.07668  -0.00002  -0.00001  -0.00003  -0.00004   2.07664
    R6        2.65072  -0.00000   0.00000  -0.00001  -0.00001   2.65071
    R7        2.07969  -0.00000   0.00003  -0.00004  -0.00002   2.07967
    R8        2.66159   0.00002  -0.00000   0.00005   0.00005   2.66164
    R9        2.07592  -0.00002  -0.00003  -0.00002  -0.00005   2.07587
   R10        2.58823  -0.00002  -0.00000  -0.00005  -0.00005   2.58818
   R11        2.07212   0.00001  -0.00001   0.00005   0.00004   2.07216
    A1        2.01319   0.00001   0.00000   0.00002   0.00002   2.01321
    A2        2.12860  -0.00000  -0.00000  -0.00001  -0.00001   2.12859
    A3        2.14139  -0.00000  -0.00000  -0.00001  -0.00001   2.14138
    A4        2.08245   0.00000  -0.00000  -0.00000  -0.00000   2.08244
    A5        2.09685   0.00000   0.00000   0.00001   0.00001   2.09686
    A6        2.10389  -0.00000   0.00000  -0.00001  -0.00001   2.10388
    A7        2.12597  -0.00001  -0.00000  -0.00001  -0.00001   2.12596
    A8        2.07567  -0.00000   0.00000  -0.00003  -0.00003   2.07564
    A9        2.08155   0.00001  -0.00000   0.00004   0.00004   2.08158
   A10        2.09156  -0.00000   0.00000  -0.00001  -0.00001   2.09155
   A11        2.09871   0.00001  -0.00000   0.00005   0.00005   2.09877
   A12        2.09292  -0.00001   0.00000  -0.00004  -0.00004   2.09287
   A13        2.00929  -0.00000  -0.00000  -0.00001  -0.00001   2.00928
   A14        2.13511  -0.00001   0.00000  -0.00008  -0.00008   2.13503
   A15        2.13878   0.00001  -0.00000   0.00009   0.00008   2.13887
   A16        2.24392   0.00000   0.00000   0.00001   0.00001   2.24393
    D1        0.00000  -0.00000   0.00000  -0.00000   0.00000   0.00000
    D2        3.14159  -0.00000   0.00000  -0.00000   0.00000   3.14159
    D3        3.14159   0.00000   0.00000   0.00000   0.00000   3.14159
    D4       -0.00000  -0.00000   0.00000  -0.00000   0.00000   0.00000
    D5       -0.00000   0.00000   0.00000   0.00000   0.00000   0.00000
    D6        3.14159  -0.00000   0.00000  -0.00000   0.00000   3.14159
    D7       -0.00000   0.00000   0.00000   0.00000   0.00000   0.00000
    D8        3.14159  -0.00000   0.00000  -0.00000   0.00000   3.14159
    D9        3.14159   0.00000   0.00000   0.00000   0.00000   3.14159
   D10        0.00000   0.00000   0.00000   0.00000  -0.00000   0.00000
   D11        0.00000  -0.00000   0.00000  -0.00000  -0.00000   0.00000
   D12        3.14159  -0.00000   0.00000  -0.00000   0.00000   3.14159
   D13        3.14159   0.00000   0.00000   0.00000   0.00000   3.14159
   D14       -0.00000   0.00000   0.00000   0.00000   0.00000   0.00000
   D15       -0.00000   0.00000   0.00000   0.00000   0.00000   0.00000
   D16        3.14159  -0.00000   0.00000  -0.00000   0.00000   3.14159
   D17        3.14159   0.00000   0.00000   0.00000   0.00000   3.14159
   D18        0.00000  -0.00000   0.00000  -0.00000  -0.00000   0.00000
   D19        0.00000  -0.00000   0.00000  -0.00000   0.00000   0.00000
   D20        3.14159   0.00000   0.00000   0.00000   0.00000   3.14159
         Item               Value     Threshold  Converged?
 Maximum Force            0.000023     0.000450     YES
 RMS     Force            0.000008     0.000300     YES
 Maximum Displacement     0.000097     0.001800     YES
 RMS     Displacement     0.000031     0.001200     YES
 Predicted change in Energy=-5.252623D-09
 Optimization completed.
    -- Stationary point found.
                           ----------------------------
                           !   Optimized Parameters   !
                           ! (Angstroms and Degrees)  !
 --------------------------                            --------------------------
 ! Name  Definition              Value          Derivative Info.                !
 --------------------------------------------------------------------------------
 ! R1    R(1,2)                  1.4128         -DE/DX =    0.0                 !
 ! R2    R(1,6)                  1.376          -DE/DX =    0.0                 !
 ! R3    R(1,7)                  1.6847         -DE/DX =    0.0                 !
 ! R4    R(2,3)                  1.4011         -DE/DX =    0.0                 !
 ! R5    R(2,10)                 1.0989         -DE/DX =    0.0                 !
 ! R6    R(3,4)                  1.4027         -DE/DX =    0.0                 !
 ! R7    R(3,11)                 1.1005         -DE/DX =    0.0                 !
 ! R8    R(4,5)                  1.4085         -DE/DX =    0.0                 !
 ! R9    R(4,8)                  1.0985         -DE/DX =    0.0                 !
 ! R10   R(5,6)                  1.3696         -DE/DX =    0.0                 !
 ! R11   R(5,9)                  1.0965         -DE/DX =    0.0                 !
 ! A1    A(2,1,6)              115.3474         -DE/DX =    0.0                 !
 ! A2    A(2,1,7)              121.9599         -DE/DX =    0.0                 !
 ! A3    A(6,1,7)              122.6927         -DE/DX =    0.0                 !
 ! A4    A(1,2,3)              119.3154         -DE/DX =    0.0                 !
 ! A5    A(1,2,10)             120.1405         -DE/DX =    0.0                 !
 ! A6    A(3,2,10)             120.5441         -DE/DX =    0.0                 !
 ! A7    A(2,3,4)              121.809          -DE/DX =    0.0                 !
 ! A8    A(2,3,11)             118.9272         -DE/DX =    0.0                 !
 ! A9    A(4,3,11)             119.2638         -DE/DX =    0.0                 !
 ! A10   A(3,4,5)              119.8373         -DE/DX =    0.0                 !
 ! A11   A(3,4,8)              120.2474         -DE/DX =    0.0                 !
 ! A12   A(5,4,8)              119.9152         -DE/DX =    0.0                 !
 ! A13   A(4,5,6)              115.1239         -DE/DX =    0.0                 !
 ! A14   A(4,5,9)              122.3329         -DE/DX =    0.0                 !
 ! A15   A(6,5,9)              122.5432         -DE/DX =    0.0                 !
 ! A16   A(1,6,5)              128.567          -DE/DX =    0.0                 !
 ! D1    D(6,1,2,3)              0.0            -DE/DX =    0.0                 !
 ! D2    D(6,1,2,10)           180.0            -DE/DX =    0.0                 !
 ! D3    D(7,1,2,3)            180.0            -DE/DX =    0.0                 !
 ! D4    D(7,1,2,10)             0.0            -DE/DX =    0.0                 !
 ! D5    D(2,1,6,5)              0.0            -DE/DX =    0.0                 !
 ! D6    D(7,1,6,5)            180.0            -DE/DX =    0.0                 !
 ! D7    D(1,2,3,4)              0.0            -DE/DX =    0.0                 !
 ! D8    D(1,2,3,11)           180.0            -DE/DX =    0.0                 !
 ! D9    D(10,2,3,4)           180.0            -DE/DX =    0.0                 !
 ! D10   D(10,2,3,11)            0.0            -DE/DX =    0.0                 !
 ! D11   D(2,3,4,5)              0.0            -DE/DX =    0.0                 !
 ! D12   D(2,3,4,8)            180.0            -DE/DX =    0.0                 !
 ! D13   D(11,3,4,5)           180.0            -DE/DX =    0.0                 !
 ! D14   D(11,3,4,8)             0.0            -DE/DX =    0.0                 !
 ! D15   D(3,4,5,6)              0.0            -DE/DX =    0.0                 !
 ! D16   D(3,4,5,9)            180.0            -DE/DX =    0.0                 !
 ! D17   D(8,4,5,6)            180.0            -DE/DX =    0.0                 !
 ! D18   D(8,4,5,9)              0.0            -DE/DX =    0.0                 !
 ! D19   D(4,5,6,1)              0.0            -DE/DX =    0.0                 !
 ! D20   D(9,5,6,1)            180.0            -DE/DX =    0.0                 !
 --------------------------------------------------------------------------------
 GradGradGradGradGradGradGradGradGradGradGradGradGradGradGradGradGradGrad

                          Input orientation:                          
 ---------------------------------------------------------------------
 Center     Atomic      Atomic             Coordinates (Angstroms)
 Number     Number       Type             X           Y           Z
 ---------------------------------------------------------------------
      1          6           0       -3.123942    0.217304   -0.000000
      2          6           0       -1.917158    0.951888    0.000000
      3          6           0       -0.695920    0.265013    0.000000
      4          6           0       -0.635867   -1.136401    0.000000
      5          6           0       -1.826497   -1.888826    0.000000
      6          6           0       -2.980540   -1.151210    0.000000
      7         17           0       -4.628858    0.974551   -0.000000
      8          1           0        0.335928   -1.648633    0.000000
      9          1           0       -1.827297   -2.985345    0.000000
     10          1           0       -1.939960    2.050583   -0.000000
     11          1           0        0.240241    0.843595    0.000000
 ---------------------------------------------------------------------
                    Distance matrix (angstroms):
                    1          2          3          4          5
     1  C    0.000000
     2  C    1.412778   0.000000
     3  C    2.428490   1.401149   0.000000
     4  C    2.832496   2.450032   1.402700   0.000000
     5  C    2.473691   2.842160   2.432535   1.408454   0.000000
     6  C    1.376007   2.356650   2.687968   2.344720   1.369632
     7  Cl   1.684694   2.711795   3.996429   4.516647   4.006515
     8  H    3.930957   3.440801   2.174110   1.098529   2.175723
     9  H    3.455177   3.938258   3.441633   2.199568   1.096519
    10  H    2.182367   1.098931   2.176211   3.443476   3.941043
    11  H    3.421983   2.160116   1.100525   2.165167   3.426008
                    6          7          8          9         10
     6  C    0.000000
     7  Cl   2.689947   0.000000
     8  H    3.353563   5.615176   0.000000
     9  H    2.166569   4.850724   2.542899   0.000000
    10  H    3.366643   2.896208   4.343255   5.037188   0.000000
    11  H    3.788492   4.870860   2.494064   4.351493   2.492007
                   11
    11  H    0.000000
 Stoichiometry    C6H4Cl(2)
 Framework group  CS[SG(C6H4Cl)]
 Deg. of freedom    19
 Full point group                 CS      NOp   2
 Largest Abelian subgroup         CS      NOp   2
 Largest concise Abelian subgroup C1      NOp   1
                         Standard orientation:                         
 ---------------------------------------------------------------------
 Center     Atomic      Atomic             Coordinates (Angstroms)
 Number     Number       Type             X           Y           Z
 ---------------------------------------------------------------------
      1          6           0       -0.000000   -0.566684   -0.000000
      2          6           0       -1.185370    0.201977   -0.000000
      3          6           0       -1.096262    1.600290    0.000000
      4          6           0        0.140374    2.262332    0.000000
      5          6           0        1.334811    1.515966    0.000000
      6          6           0        1.170836    0.156185    0.000000
      7         17           0       -0.029454   -2.251121   -0.000000
      8          1           0        0.180335    3.360134    0.000000
      9          1           0        2.323131    1.990915    0.000000
     10          1           0       -2.165412   -0.295181   -0.000000
     11          1           0       -2.023676    2.192792    0.000000
 ---------------------------------------------------------------------
 Rotational constants (GHZ):           6.0714869           1.5718059           1.2485717

 **********************************************************************

            Population analysis using the SCF Density.

 **********************************************************************

 Orbital symmetries:
 Alpha Orbitals:
       Occupied  (A') (A') (A') (A') (A') (A') (A') (A') (A') (A')
                 (A") (A') (A') (A") (A') (A') (A") (A")
       Virtual   (A") (A") (A') (A") (A') (A') (A') (A') (A') (A')
                 (A') (A') (A') (A')
 Beta  Orbitals:
       Occupied  (A') (A') (A') (A') (A') (A') (A') (A') (A') (A')
                 (A") (A') (A') (A") (A') (A") (A")
       Virtual   (A') (A") (A") (A') (A") (A') (A') (A') (A') (A')
                 (A') (A') (A') (A') (A')
 The electronic state is 2-A'.
 Alpha  occ. eigenvalues --   -1.45866  -1.38499  -1.16904  -1.14493  -0.87357
 Alpha  occ. eigenvalues --   -0.84815  -0.67039  -0.60579  -0.59729  -0.55518
 Alpha  occ. eigenvalues --   -0.53516  -0.50794  -0.47227  -0.46043  -0.44257
 Alpha  occ. eigenvalues --   -0.38885  -0.38425  -0.36533
 Alpha virt. eigenvalues --    0.00445   0.01192   0.05302   0.08976   0.12866
 Alpha virt. eigenvalues --    0.13629   0.13920   0.14686   0.15433   0.16803
 Alpha virt. eigenvalues --    0.17928   0.18673   0.19018   0.19983
  Beta  occ. eigenvalues --   -1.45157  -1.38449  -1.16585  -1.12953  -0.86963
  Beta  occ. eigenvalues --   -0.82622  -0.66946  -0.59559  -0.58479  -0.55279
  Beta  occ. eigenvalues --   -0.53611  -0.49649  -0.46855  -0.46347  -0.43594
  Beta  occ. eigenvalues --   -0.37648  -0.36030
  Beta virt. eigenvalues --    0.00328   0.00558   0.02713   0.04683   0.09772
  Beta virt. eigenvalues --    0.13307   0.13668   0.14593   0.15289   0.16002
  Beta virt. eigenvalues --    0.17021   0.18166   0.19088   0.20168   0.20692
          Condensed to atoms (all electrons):
               1          2          3          4          5          6
     1  C    4.062982   0.000000   0.000000   0.000000   0.000000   0.000000
     2  C    0.000000   4.118559   0.000000   0.000000   0.000000   0.000000
     3  C    0.000000   0.000000   4.137274   0.000000   0.000000   0.000000
     4  C    0.000000   0.000000   0.000000   4.122651   0.000000   0.000000
     5  C    0.000000   0.000000   0.000000   0.000000   4.115362   0.000000
     6  C    0.000000   0.000000   0.000000   0.000000   0.000000   4.058464
     7  Cl   0.000000   0.000000   0.000000   0.000000   0.000000   0.000000
     8  H    0.000000   0.000000   0.000000   0.000000   0.000000   0.000000
     9  H    0.000000   0.000000   0.000000   0.000000   0.000000   0.000000
    10  H    0.000000   0.000000   0.000000   0.000000   0.000000   0.000000
    11  H    0.000000   0.000000   0.000000   0.000000   0.000000   0.000000
               7          8          9         10         11
     1  C    0.000000   0.000000   0.000000   0.000000   0.000000
     2  C    0.000000   0.000000   0.000000   0.000000   0.000000
     3  C    0.000000   0.000000   0.000000   0.000000   0.000000
     4  C    0.000000   0.000000   0.000000   0.000000   0.000000
     5  C    0.000000   0.000000   0.000000   0.000000   0.000000
     6  C    0.000000   0.000000   0.000000   0.000000   0.000000
     7  Cl   6.977499   0.000000   0.000000   0.000000   0.000000
     8  H    0.000000   0.858395   0.000000   0.000000   0.000000
     9  H    0.000000   0.000000   0.839660   0.000000   0.000000
    10  H    0.000000   0.000000   0.000000   0.849018   0.000000
    11  H    0.000000   0.000000   0.000000   0.000000   0.860136
          Atomic-Atomic Spin Densities.
               1          2          3          4          5          6
     1  C   -0.457303   0.000000   0.000000   0.000000   0.000000   0.000000
     2  C    0.000000   0.476189   0.000000   0.000000   0.000000   0.000000
     3  C    0.000000   0.000000  -0.436572   0.000000   0.000000   0.000000
     4  C    0.000000   0.000000   0.000000   0.484720   0.000000   0.000000
     5  C    0.000000   0.000000   0.000000   0.000000  -0.465583   0.000000
     6  C    0.000000   0.000000   0.000000   0.000000   0.000000   1.376512
     7  Cl   0.000000   0.000000   0.000000   0.000000   0.000000   0.000000
     8  H    0.000000   0.000000   0.000000   0.000000   0.000000   0.000000
     9  H    0.000000   0.000000   0.000000   0.000000   0.000000   0.000000
    10  H    0.000000   0.000000   0.000000   0.000000   0.000000   0.000000
    11  H    0.000000   0.000000   0.000000   0.000000   0.000000   0.000000
               7          8          9         10         11
     1  C    0.000000   0.000000   0.000000   0.000000   0.000000
     2  C    0.000000   0.000000   0.000000   0.000000   0.000000
     3  C    0.000000   0.000000   0.000000   0.000000   0.000000
     4  C    0.000000   0.000000   0.000000   0.000000   0.000000
     5  C    0.000000   0.000000   0.000000   0.000000   0.000000
     6  C    0.000000   0.000000   0.000000   0.000000   0.000000
     7  Cl   0.002087   0.000000   0.000000   0.000000   0.000000
     8  H    0.000000  -0.019464   0.000000   0.000000   0.000000
     9  H    0.000000   0.000000   0.031830   0.000000   0.000000
    10  H    0.000000   0.000000   0.000000  -0.018581   0.000000
    11  H    0.000000   0.000000   0.000000   0.000000   0.026165
 Mulliken charges and spin densities:
               1          2
     1  C   -0.062982  -0.457303
     2  C   -0.118559   0.476189
     3  C   -0.137274  -0.436572
     4  C   -0.122651   0.484720
     5  C   -0.115362  -0.465583
     6  C   -0.058464   1.376512
     7  Cl   0.022501   0.002087
     8  H    0.141605  -0.019464
     9  H    0.160340   0.031830
    10  H    0.150982  -0.018581
    11  H    0.139864   0.026165
 Sum of Mulliken charges =  -0.00000   1.00000
 Mulliken charges and spin densities with hydrogens summed into heavy atoms:
               1          2
     1  C   -0.062982  -0.457303
     2  C    0.032423   0.457609
     3  C    0.002590  -0.410407
     4  C    0.018955   0.465256
     5  C    0.044977  -0.433753
     6  C   -0.058464   1.376512
     7  Cl   0.022501   0.002087
 Charge=             -0.0000 electrons
 Dipole moment (field-independent basis, Debye):
    X=             -0.8474    Y=              1.6381    Z=              0.0000  Tot=              1.8443
 N-N= 1.527801273596D+02 E-N=-2.113669660613D+02  KE=-6.874752632582D+01
 Symmetry A'   KE=-5.394550268313D+01
 Symmetry A"   KE=-1.480202364269D+01
 Symmetry A'   SP= 1.000000000000D+00
 Symmetry A"   SP=-2.720046410332D-15
 1\1\GINC-SH02-01N45\FOpt\UAM1\ZDO\C6H4Cl1(2)\JLAPIER\09-Dec-2025\0\\# 
 opt am1 SCF=XQC\\Neutral Radical (removed 1) _2\\0,2\C,-3.1239421253,0
 .2173043783,0.\C,-1.9171582617,0.9518881198,0.\C,-0.6959204708,0.26501
 31003,0.\C,-0.6358669254,-1.1364007811,0.\C,-1.826496765,-1.8888259501
 ,0.\C,-2.9805397474,-1.1512098195,0.\Cl,-4.6288582595,0.9745512301,0.\
 H,0.3359276758,-1.6486333797,0.\H,-1.8272965947,-2.9853445834,0.\H,-1.
 9399598122,2.0505830314,0.\H,0.2402412861,0.8435946539,0.\\Version=ES6
 4L-G16RevB.01\State=2-A'\HF=0.106844\S2=1.201063\S2-1=0.\S2A=0.922463\
 RMSD=6.480e-09\RMSF=1.438e-05\Dipole=0.7253242,0.0208208,0.\PG=CS [SG(
 C6H4Cl1)]\\@


 KNOWLEDGE IS CHIMERA - FOR BEYOND IT LIES OTHER KNOWLEDGE,
 AND THE INCOMPLETENESS OF WHAT IS KNOWN RENDERS THE KNOWING FALSE.
     -- THE THOMAS COVENANT CHRONICLES
 Job cpu time:       0 days  0 hours  0 minutes 11.0 seconds.
 Elapsed time:       0 days  0 hours  0 minutes 32.9 seconds.
 File lengths (MBytes):  RWF=     10 Int=      0 D2E=      0 Chk=      2 Scr=      1
 Normal termination of Gaussian 16 at Tue Dec  9 08:35:21 2025.
