 Entering Gaussian System, Link 0=g16
 Initial command:
 /share/software/user/restricted/gaussian/g16.B01/l1.exe "/home/users/jlapier/Chloroaromatics/Gau-32291.inp" -scrdir="/home/users/jlapier/Chloroaromatics/"
 Entering Link 1 = /share/software/user/restricted/gaussian/g16.B01/l1.exe PID=     32292.
  
 Copyright (c) 1988-2017, Gaussian, Inc.  All Rights Reserved.
  
 This is part of the Gaussian(R) 16 program.  It is based on
 the Gaussian(R) 09 system (copyright 2009, Gaussian, Inc.),
 the Gaussian(R) 03 system (copyright 2003, Gaussian, Inc.),
 the Gaussian(R) 98 system (copyright 1998, Gaussian, Inc.),
 the Gaussian(R) 94 system (copyright 1995, Gaussian, Inc.),
 the Gaussian 92(TM) system (copyright 1992, Gaussian, Inc.),
 the Gaussian 90(TM) system (copyright 1990, Gaussian, Inc.),
 the Gaussian 88(TM) system (copyright 1988, Gaussian, Inc.),
 the Gaussian 86(TM) system (copyright 1986, Carnegie Mellon
 University), and the Gaussian 82(TM) system (copyright 1983,
 Carnegie Mellon University). Gaussian is a federally registered
 trademark of Gaussian, Inc.
  
 This software contains proprietary and confidential information,
 including trade secrets, belonging to Gaussian, Inc.
  
 This software is provided under written license and may be
 used, copied, transmitted, or stored only in accord with that
 written license.
  
 The following legend is applicable only to US Government
 contracts under FAR:
  
                    RESTRICTED RIGHTS LEGEND
  
 Use, reproduction and disclosure by the US Government is
 subject to restrictions as set forth in subparagraphs (a)
 and (c) of the Commercial Computer Software - Restricted
 Rights clause in FAR 52.227-19.
  
 Gaussian, Inc.
 340 Quinnipiac St., Bldg. 40, Wallingford CT 06492
  
  
 ---------------------------------------------------------------
 Warning -- This program may not be used in any manner that
 competes with the business of Gaussian, Inc. or will provide
 assistance to any competitor of Gaussian, Inc.  The licensee
 of this program is prohibited from giving any competitor of
 Gaussian, Inc. access to this program.  By using this program,
 the user acknowledges that Gaussian, Inc. is engaged in the
 business of creating and licensing software in the field of
 computational chemistry and represents and warrants to the
 licensee that it is not a competitor of Gaussian, Inc. and that
 it will not use this program in any manner prohibited above.
 ---------------------------------------------------------------
  

 Cite this work as:
 Gaussian 16, Revision B.01,
 M. J. Frisch, G. W. Trucks, H. B. Schlegel, G. E. Scuseria, 
 M. A. Robb, J. R. Cheeseman, G. Scalmani, V. Barone, 
 G. A. Petersson, H. Nakatsuji, X. Li, M. Caricato, A. V. Marenich, 
 J. Bloino, B. G. Janesko, R. Gomperts, B. Mennucci, H. P. Hratchian, 
 J. V. Ortiz, A. F. Izmaylov, J. L. Sonnenberg, D. Williams-Young, 
 F. Ding, F. Lipparini, F. Egidi, J. Goings, B. Peng, A. Petrone, 
 T. Henderson, D. Ranasinghe, V. G. Zakrzewski, J. Gao, N. Rega, 
 G. Zheng, W. Liang, M. Hada, M. Ehara, K. Toyota, R. Fukuda, 
 J. Hasegawa, M. Ishida, T. Nakajima, Y. Honda, O. Kitao, H. Nakai, 
 T. Vreven, K. Throssell, J. A. Montgomery, Jr., J. E. Peralta, 
 F. Ogliaro, M. J. Bearpark, J. J. Heyd, E. N. Brothers, K. N. Kudin, 
 V. N. Staroverov, T. A. Keith, R. Kobayashi, J. Normand, 
 K. Raghavachari, A. P. Rendell, J. C. Burant, S. S. Iyengar, 
 J. Tomasi, M. Cossi, J. M. Millam, M. Klene, C. Adamo, R. Cammi, 
 J. W. Ochterski, R. L. Martin, K. Morokuma, O. Farkas, 
 J. B. Foresman, and D. J. Fox, Gaussian, Inc., Wallingford CT, 2016.
 
 ******************************************
 Gaussian 16:  ES64L-G16RevB.01 20-Dec-2017
                 8-Dec-2025 
 ******************************************
 %mem=2GB
 %nprocshare=1
 Will use up to    1 processors via shared memory.
 %chk=geometry_chks/_35ClBzAnionIntermediate.chk
 ---------------------------
 # opt am1 SCF(maxcyc=10000)
 ---------------------------
 1/18=20,19=15,26=1,38=1/1,3;
 2/9=110,12=2,17=6,18=5,40=1/2;
 3/5=2,25=1,41=700000,71=1/1,2,3;
 4/35=1/1;
 5/5=2,7=10000,35=1,38=5/2;
 6/7=2,8=2,9=2,10=2,28=1/1;
 7//1,2,3,16;
 1/18=20,19=15,26=1/3(2);
 2/9=110/2;
 99//99;
 2/9=110/2;
 3/5=2,25=1,41=700000,71=1,135=20/1,2,3;
 4/5=5,16=3,35=1/1;
 5/5=2,7=10000,35=1,38=5/2;
 7//1,2,3,16;
 1/18=20,19=15,26=1/3(-5);
 2/9=110/2;
 6/7=2,8=2,9=2,10=2,19=2,28=1/1;
 99/9=1/99;
 ----------------------------------
 Anion Intermediate (removed 1) _35
 ----------------------------------
 Symbolic Z-matrix:
 Charge = -1 Multiplicity = 1
 C                    -3.20928   0.19943   0. 
 C                    -2.0115    0.93555   0. 
 C                    -0.77511   0.2663    0. 
 C                    -0.7365   -1.13907   0. 
 C                    -1.93429  -1.87519   0. 
 C                    -3.17067  -1.20594   0. 
 H                    -4.76193   1.03987   0. 
 Cl                    0.81614  -1.97951   0. 
 H                    -1.8858   -3.64003   0. 
 Cl                   -2.05998   2.7004    0. 
 H                     0.72905   1.19071   0. 
 
 Add virtual bond connecting atoms H9         and C5         Dist= 3.34D+00.
 Add virtual bond connecting atoms H11        and C3         Dist= 3.34D+00.
 Add virtual bond connecting atoms H7         and C1         Dist= 3.34D+00.

 GradGradGradGradGradGradGradGradGradGradGradGradGradGradGradGradGradGrad
 Berny optimization.
 Initialization pass.
                           ----------------------------
                           !    Initial Parameters    !
                           ! (Angstroms and Degrees)  !
 --------------------------                            --------------------------
 ! Name  Definition              Value          Derivative Info.                !
 --------------------------------------------------------------------------------
 ! R1    R(1,2)                  1.4059         estimate D2E/DX2                !
 ! R2    R(1,6)                  1.4059         estimate D2E/DX2                !
 ! R3    R(1,7)                  1.7655         estimate D2E/DX2                !
 ! R4    R(2,3)                  1.4059         estimate D2E/DX2                !
 ! R5    R(2,10)                 1.7655         estimate D2E/DX2                !
 ! R6    R(3,4)                  1.4059         estimate D2E/DX2                !
 ! R7    R(3,11)                 1.7655         estimate D2E/DX2                !
 ! R8    R(4,5)                  1.4059         estimate D2E/DX2                !
 ! R9    R(4,8)                  1.7655         estimate D2E/DX2                !
 ! R10   R(5,6)                  1.4059         estimate D2E/DX2                !
 ! R11   R(5,9)                  1.7655         estimate D2E/DX2                !
 ! A1    A(2,1,6)              119.9999         estimate D2E/DX2                !
 ! A2    A(2,1,7)              119.9999         estimate D2E/DX2                !
 ! A3    A(6,1,7)              120.0001         estimate D2E/DX2                !
 ! A4    A(1,2,3)              120.0            estimate D2E/DX2                !
 ! A5    A(1,2,10)             120.0001         estimate D2E/DX2                !
 ! A6    A(3,2,10)             119.9999         estimate D2E/DX2                !
 ! A7    A(2,3,4)              120.0001         estimate D2E/DX2                !
 ! A8    A(2,3,11)             120.0            estimate D2E/DX2                !
 ! A9    A(4,3,11)             119.9999         estimate D2E/DX2                !
 ! A10   A(3,4,5)              119.9997         estimate D2E/DX2                !
 ! A11   A(3,4,8)              120.0003         estimate D2E/DX2                !
 ! A12   A(5,4,8)              120.0            estimate D2E/DX2                !
 ! A13   A(4,5,6)              120.0            estimate D2E/DX2                !
 ! A14   A(4,5,9)              119.9996         estimate D2E/DX2                !
 ! A15   A(6,5,9)              120.0004         estimate D2E/DX2                !
 ! A16   A(1,6,5)              120.0003         estimate D2E/DX2                !
 ! D1    D(6,1,2,3)              0.0            estimate D2E/DX2                !
 ! D2    D(6,1,2,10)           180.0            estimate D2E/DX2                !
 ! D3    D(7,1,2,3)            180.0            estimate D2E/DX2                !
 ! D4    D(7,1,2,10)             0.0            estimate D2E/DX2                !
 ! D5    D(2,1,6,5)              0.0            estimate D2E/DX2                !
 ! D6    D(7,1,6,5)            180.0            estimate D2E/DX2                !
 ! D7    D(1,2,3,4)              0.0            estimate D2E/DX2                !
 ! D8    D(1,2,3,11)           180.0            estimate D2E/DX2                !
 ! D9    D(10,2,3,4)           180.0            estimate D2E/DX2                !
 ! D10   D(10,2,3,11)            0.0            estimate D2E/DX2                !
 ! D11   D(2,3,4,5)              0.0            estimate D2E/DX2                !
 ! D12   D(2,3,4,8)            180.0            estimate D2E/DX2                !
 ! D13   D(11,3,4,5)           180.0            estimate D2E/DX2                !
 ! D14   D(11,3,4,8)             0.0            estimate D2E/DX2                !
 ! D15   D(3,4,5,6)              0.0            estimate D2E/DX2                !
 ! D16   D(3,4,5,9)            180.0            estimate D2E/DX2                !
 ! D17   D(8,4,5,6)            180.0            estimate D2E/DX2                !
 ! D18   D(8,4,5,9)              0.0            estimate D2E/DX2                !
 ! D19   D(4,5,6,1)              0.0            estimate D2E/DX2                !
 ! D20   D(9,5,6,1)            180.0            estimate D2E/DX2                !
 --------------------------------------------------------------------------------
 Trust Radius=3.00D-01 FncErr=1.00D-07 GrdErr=1.00D-07 EigMax=2.50D+02 EigMin=1.00D-04
 Number of steps in this run=     57 maximum allowed number of steps=    100.
 GradGradGradGradGradGradGradGradGradGradGradGradGradGradGradGradGradGrad

                          Input orientation:                          
 ---------------------------------------------------------------------
 Center     Atomic      Atomic             Coordinates (Angstroms)
 Number     Number       Type             X           Y           Z
 ---------------------------------------------------------------------
      1          6           0       -3.209280    0.199430    0.000000
      2          6           0       -2.011500    0.935550    0.000000
      3          6           0       -0.775110    0.266300    0.000000
      4          6           0       -0.736500   -1.139070    0.000000
      5          6           0       -1.934290   -1.875190    0.000000
      6          6           0       -3.170670   -1.205940    0.000000
      7          1           0       -4.761930    1.039870    0.000000
      8         17           0        0.816140   -1.979510    0.000000
      9          1           0       -1.885800   -3.640030    0.000000
     10         17           0       -2.059980    2.700400    0.000000
     11          1           0        0.729050    1.190710    0.000000
 ---------------------------------------------------------------------
                    Distance matrix (angstroms):
                    1          2          3          4          5
     1  C    0.000000
     2  C    1.405898   0.000000
     3  C    2.435088   1.405900   0.000000
     4  C    2.811801   2.435092   1.405900   0.000000
     5  C    2.435087   2.811800   2.435093   1.405907   0.000000
     6  C    1.405900   2.435088   2.811796   2.435088   1.405892
     7  H    1.765520   2.752408   4.061175   4.577321   4.061173
     8  Cl   4.577312   4.061173   2.752406   1.765511   2.752408
     9  H    4.061164   4.577306   4.061163   2.752397   1.765506
    10  Cl   2.752406   1.765516   2.752405   4.061173   4.577316
    11  H    4.061167   2.752403   1.765512   2.752401   4.061173
                    6          7          8          9         10
     6  C    0.000000
     7  H    2.752412   0.000000
     8  Cl   4.061165   6.342832   0.000000
     9  H    2.752396   5.493049   3.171404   0.000000
    10  Cl   4.061173   3.171418   5.493052   6.342822   0.000000
    11  H    4.577308   5.493051   3.171416   5.493040   3.171412
                   11
    11  H    0.000000
 Stoichiometry    C6H3Cl2(1-)
 Framework group  CS[SG(C6H3Cl2)]
 Deg. of freedom    19
 Full point group                 CS      NOp   2
 Largest Abelian subgroup         CS      NOp   2
 Largest concise Abelian subgroup C1      NOp   1
                         Standard orientation:                         
 ---------------------------------------------------------------------
 Center     Atomic      Atomic             Coordinates (Angstroms)
 Number     Number       Type             X           Y           Z
 ---------------------------------------------------------------------
      1          6           0        1.857145   -0.333679    0.000000
      2          6           0        0.639600   -1.036627    0.000000
      3          6           0       -0.577944   -0.333675    0.000000
      4          6           0       -0.577944    1.072225    0.000000
      5          6           0        0.639610    1.775173    0.000000
      6          6           0        1.857145    1.072221    0.000000
      7          1           0        3.386128   -1.216443    0.000000
      8         17           0       -2.106917    1.954988    0.000000
      9          1           0        0.639606    3.540679    0.000000
     10         17           0        0.639594   -2.802143    0.000000
     11          1           0       -2.106923   -1.216428    0.000000
 ---------------------------------------------------------------------
 Rotational constants (GHZ):           2.8492359           0.8231877           0.6386670
 Standard basis: VSTO-6G (5D, 7F)
 There are    27 symmetry adapted cartesian basis functions of A'  symmetry.
 There are     8 symmetry adapted cartesian basis functions of A"  symmetry.
 There are    27 symmetry adapted basis functions of A'  symmetry.
 There are     8 symmetry adapted basis functions of A"  symmetry.
    35 basis functions,   210 primitive gaussians,    35 cartesian basis functions
    21 alpha electrons       21 beta electrons
       nuclear repulsion energy       190.9940983173 Hartrees.
 Integral buffers will be    131072 words long.
 Regular integral format.
 Two-electron integral symmetry is turned off.
 Do NDO integrals.
 One-electron integrals computed using PRISM.
 NBasis=    35 RedAO= T EigKep=  1.00D+00  NBF=    27     8
 NBsUse=    35 1.00D-06 EigRej= -1.00D+00 NBFU=    27     8
 Simple Huckel Guess.
 Initial guess orbital symmetries:
       Occupied  (A') (A') (A') (A') (A') (A') (A') (A') (A') (A")
                 (A') (A') (A') (A") (A') (A") (A') (A') (A") (A")
                 (A')
       Virtual   (A") (A') (A") (A') (A') (A") (A') (A') (A') (A')
                 (A') (A') (A') (A')
 The electronic state of the initial guess is 1-A'.
 Keep J ints in memory in canonical form, NReq=862793.
 Overlap will be assumed to be unity.
 Requested convergence on RMS density matrix=1.00D-08 within**** cycles.
 Requested convergence on MAX density matrix=1.00D-06.
 Requested convergence on             energy=1.00D-06.
 No special actions if energy rises.
 Fock symm off for IB=2 I1=    1 I=   28 J=   24 Cut=1.00D-07 Err=6.71D-03
 Fock matrix is not symmetric: symmetry in diagonalization turned off.
 SCF Done:  E(RAM1) =  0.413149145415     A.U. after   16 cycles
            NFock= 15  Conv=0.37D-08     -V/T= 1.0045

 **********************************************************************

            Population analysis using the SCF Density.

 **********************************************************************

 Orbital symmetries:
       Occupied  (A') (A') (A') (A') (A') (A') (A') (A') (A') (A")
                 (A') (A") (A') (A') (A') (A") (A') (A') (A") (A")
                 (A')
       Virtual   (A') (A") (A') (A') (A") (A') (A') (A") (A') (A')
                 (A') (A') (A') (A')
 The electronic state is 1-A'.
 Alpha  occ. eigenvalues --   -1.24570  -1.22183  -1.18500  -0.93424  -0.90203
 Alpha  occ. eigenvalues --   -0.63718  -0.62837  -0.45794  -0.41532  -0.36866
 Alpha  occ. eigenvalues --   -0.36780  -0.33524  -0.31688  -0.30496  -0.28848
 Alpha  occ. eigenvalues --   -0.27542  -0.24255  -0.21263  -0.18219  -0.16590
 Alpha  occ. eigenvalues --   -0.11026
 Alpha virt. eigenvalues --    0.14722   0.17857   0.18042   0.18256   0.19177
 Alpha virt. eigenvalues --    0.19575   0.21487   0.28992   0.33069   0.33117
 Alpha virt. eigenvalues --    0.35061   0.35646   0.38661   0.41430
          Condensed to atoms (all electrons):
               1          2          3          4          5          6
     1  C    4.096312   0.000000   0.000000   0.000000   0.000000   0.000000
     2  C    0.000000   4.062181   0.000000   0.000000   0.000000   0.000000
     3  C    0.000000   0.000000   4.177711   0.000000   0.000000   0.000000
     4  C    0.000000   0.000000   0.000000   4.062183   0.000000   0.000000
     5  C    0.000000   0.000000   0.000000   0.000000   4.096317   0.000000
     6  C    0.000000   0.000000   0.000000   0.000000   0.000000   4.392448
     7  H    0.000000   0.000000   0.000000   0.000000   0.000000   0.000000
     8  Cl   0.000000   0.000000   0.000000   0.000000   0.000000   0.000000
     9  H    0.000000   0.000000   0.000000   0.000000   0.000000   0.000000
    10  Cl   0.000000   0.000000   0.000000   0.000000   0.000000   0.000000
    11  H    0.000000   0.000000   0.000000   0.000000   0.000000   0.000000
               7          8          9         10         11
     1  C    0.000000   0.000000   0.000000   0.000000   0.000000
     2  C    0.000000   0.000000   0.000000   0.000000   0.000000
     3  C    0.000000   0.000000   0.000000   0.000000   0.000000
     4  C    0.000000   0.000000   0.000000   0.000000   0.000000
     5  C    0.000000   0.000000   0.000000   0.000000   0.000000
     6  C    0.000000   0.000000   0.000000   0.000000   0.000000
     7  H    0.953828   0.000000   0.000000   0.000000   0.000000
     8  Cl   0.000000   7.146842   0.000000   0.000000   0.000000
     9  H    0.000000   0.000000   0.953827   0.000000   0.000000
    10  Cl   0.000000   0.000000   0.000000   7.146846   0.000000
    11  H    0.000000   0.000000   0.000000   0.000000   0.911506
 Mulliken charges:
               1
     1  C   -0.096312
     2  C   -0.062181
     3  C   -0.177711
     4  C   -0.062183
     5  C   -0.096317
     6  C   -0.392448
     7  H    0.046172
     8  Cl  -0.146842
     9  H    0.046173
    10  Cl  -0.146846
    11  H    0.088494
 Sum of Mulliken charges =  -1.00000
 Mulliken charges with hydrogens summed into heavy atoms:
               1
     1  C   -0.050140
     2  C   -0.062181
     3  C   -0.089217
     4  C   -0.062183
     5  C   -0.050144
     6  C   -0.392448
     8  Cl  -0.146842
    10  Cl  -0.146846
 Charge=             -1.0000 electrons
 Dipole moment (field-independent basis, Debye):
    X=             -4.8631    Y=             -2.8077    Z=              0.0000  Tot=              5.6154
 N-N= 1.909940983173D+02 E-N=-2.680996915283D+02  KE=-9.146508195570D+01
 Symmetry A'   KE=-7.101414280981D+01
 Symmetry A"   KE=-2.045093914589D+01
 Calling FoFJK, ICntrl=      2127 FMM=F ISym2X=1 I1Cent= 0 IOpClX= 0 NMat=1 NMatS=1 NMatT=0.
 ***** Axes restored to original set *****
 -------------------------------------------------------------------
 Center     Atomic                   Forces (Hartrees/Bohr)
 Number     Number              X              Y              Z
 -------------------------------------------------------------------
      1        6          -0.050172714    0.004878622    0.000000000
      2        6          -0.002611362    0.009651920   -0.000000000
      3        6           0.062378961    0.038333209   -0.000000000
      4        6           0.007425870   -0.006689183   -0.000000000
      5        6          -0.018300927   -0.046966979    0.000000000
      6        6           0.016853778    0.010363008   -0.000000000
      7        1           0.101731126   -0.054013096    0.000000000
      8       17          -0.018411305    0.013099452   -0.000000000
      9        1          -0.002237436    0.115160093    0.000000000
     10       17           0.003370280   -0.022344082   -0.000000000
     11        1          -0.100026269   -0.061472965   -0.000000000
 -------------------------------------------------------------------
 Cartesian Forces:  Max     0.115160093 RMS     0.039837800

 GradGradGradGradGradGradGradGradGradGradGradGradGradGradGradGradGradGrad
 Berny optimization.
 FormGI is forming the generalized inverse of G from B-inverse, IUseBI=4.
 Internal  Forces:  Max     0.117406047 RMS     0.033285120
 Search for a local minimum.
 Step number   1 out of a maximum of   57
 All quantities printed in internal units (Hartrees-Bohrs-Radians)
 Mixed Optimization -- RFO/linear search
 Second derivative matrix not updated -- first step.
 ITU=  0
     Eigenvalues ---    0.02011   0.02011   0.02011   0.02011   0.02011
     Eigenvalues ---    0.02011   0.02011   0.02011   0.06524   0.06524
     Eigenvalues ---    0.06524   0.16000   0.16000   0.16000   0.23188
     Eigenvalues ---    0.23477   0.23493   0.25000   0.25000   0.29033
     Eigenvalues ---    0.29033   0.40971   0.41414   0.44656   0.44657
     Eigenvalues ---    0.44657   0.44657
 RFO step:  Lambda=-1.83013533D-01 EMin= 2.01065650D-02
 Linear search not attempted -- first point.
 Maximum step size (   0.300) exceeded in Quadratic search.
    -- Step size scaled by   0.361
 Iteration  1 RMS(Cart)=  0.05149625 RMS(Int)=  0.00005934
 Iteration  2 RMS(Cart)=  0.00008801 RMS(Int)=  0.00000457
 Iteration  3 RMS(Cart)=  0.00000001 RMS(Int)=  0.00000457
 ClnCor:  largest displacement from symmetrization is 9.87D-13 for atom    10.
 Variable       Old X    -DE/DX   Delta X   Delta X   Delta X     New X
                                 (Linear)    (Quad)   (Total)
    R1        2.65676  -0.02809   0.00000  -0.01610  -0.01610   2.64066
    R2        2.65677  -0.04887   0.00000  -0.02826  -0.02825   2.62851
    R3        3.33635  -0.11518   0.00000  -0.16739  -0.16739   3.16896
    R4        2.65677  -0.03646   0.00000  -0.02064  -0.02065   2.63612
    R5        3.33634  -0.02243   0.00000  -0.01709  -0.01709   3.31925
    R6        2.65677  -0.03646   0.00000  -0.02064  -0.02065   2.63612
    R7        3.33633  -0.11741   0.00000  -0.17063  -0.17063   3.16571
    R8        2.65678  -0.02810   0.00000  -0.01610  -0.01610   2.64068
    R9        3.33633  -0.02243   0.00000  -0.01709  -0.01709   3.31924
   R10        2.65675  -0.04887   0.00000  -0.02825  -0.02825   2.62850
   R11        3.33632  -0.11518   0.00000  -0.16739  -0.16739   3.16893
    A1        2.09439   0.01835   0.00000   0.01571   0.01571   2.11011
    A2        2.09439  -0.01072   0.00000  -0.00948  -0.00948   2.08491
    A3        2.09440  -0.00763   0.00000  -0.00623  -0.00623   2.08817
    A4        2.09439  -0.00968   0.00000  -0.00798  -0.00799   2.08640
    A5        2.09440   0.00943   0.00000   0.00782   0.00783   2.10222
    A6        2.09439   0.00024   0.00000   0.00016   0.00017   2.09456
    A7        2.09440   0.00129   0.00000   0.00164   0.00163   2.09602
    A8        2.09440  -0.00065   0.00000  -0.00082  -0.00081   2.09358
    A9        2.09439  -0.00065   0.00000  -0.00082  -0.00081   2.09358
   A10        2.09439  -0.00967   0.00000  -0.00798  -0.00799   2.08640
   A11        2.09440   0.00024   0.00000   0.00016   0.00017   2.09457
   A12        2.09440   0.00943   0.00000   0.00782   0.00783   2.10222
   A13        2.09439   0.01835   0.00000   0.01571   0.01571   2.11011
   A14        2.09439  -0.01072   0.00000  -0.00948  -0.00948   2.08491
   A15        2.09440  -0.00763   0.00000  -0.00623  -0.00623   2.08817
   A16        2.09440  -0.01864   0.00000  -0.01709  -0.01707   2.07733
    D1        0.00000  -0.00000   0.00000  -0.00000   0.00000   0.00000
    D2        3.14159  -0.00000   0.00000  -0.00000   0.00000   3.14159
    D3        3.14159   0.00000   0.00000   0.00000   0.00000   3.14159
    D4        0.00000   0.00000   0.00000   0.00000   0.00000   0.00000
    D5        0.00000   0.00000   0.00000   0.00000   0.00000   0.00000
    D6        3.14159  -0.00000   0.00000  -0.00000   0.00000   3.14159
    D7        0.00000   0.00000   0.00000   0.00000   0.00000   0.00000
    D8        3.14159   0.00000   0.00000   0.00000   0.00000   3.14159
    D9        3.14159   0.00000   0.00000   0.00000   0.00000   3.14159
   D10        0.00000   0.00000   0.00000   0.00000   0.00000   0.00000
   D11        0.00000  -0.00000   0.00000   0.00000   0.00000   0.00000
   D12        3.14159   0.00000   0.00000   0.00000   0.00000   3.14159
   D13        3.14159  -0.00000   0.00000  -0.00000   0.00000   3.14159
   D14        0.00000   0.00000   0.00000   0.00000   0.00000   0.00000
   D15        0.00000   0.00000   0.00000   0.00000   0.00000   0.00000
   D16        3.14159  -0.00000   0.00000  -0.00000   0.00000   3.14159
   D17        3.14159  -0.00000   0.00000  -0.00000   0.00000   3.14159
   D18        0.00000  -0.00000   0.00000  -0.00000   0.00000   0.00000
   D19        0.00000  -0.00000   0.00000  -0.00000   0.00000   0.00000
   D20        3.14159  -0.00000   0.00000  -0.00000   0.00000   3.14159
         Item               Value     Threshold  Converged?
 Maximum Force            0.117406     0.000450     NO 
 RMS     Force            0.033285     0.000300     NO 
 Maximum Displacement     0.204223     0.001800     NO 
 RMS     Displacement     0.051494     0.001200     NO 
 Predicted change in Energy=-6.235325D-02
 GradGradGradGradGradGradGradGradGradGradGradGradGradGradGradGradGradGrad

                          Input orientation:                          
 ---------------------------------------------------------------------
 Center     Atomic      Atomic             Coordinates (Angstroms)
 Number     Number       Type             X           Y           Z
 ---------------------------------------------------------------------
      1          6           0       -3.194018    0.186594    0.000000
      2          6           0       -2.008779    0.926780    0.000000
      3          6           0       -0.782539    0.261734    0.000000
      4          6           0       -0.743096   -1.132681    0.000000
      5          6           0       -1.938847   -1.855775    0.000000
      6          6           0       -3.167688   -1.204107    0.000000
      7          1           0       -4.666927    0.988264    0.000000
      8         17           0        0.802131   -1.967814    0.000000
      9          1           0       -1.888927   -3.531960    0.000000
     10         17           0       -2.055873    2.682618    0.000000
     11          1           0        0.644695    1.138867    0.000000
 ---------------------------------------------------------------------
                    Distance matrix (angstroms):
                    1          2          3          4          5
     1  C    0.000000
     2  C    1.397379   0.000000
     3  C    2.412649   1.394973   0.000000
     4  C    2.783435   2.417299   1.394972   0.000000
     5  C    2.397233   2.783433   2.412652   1.397386   0.000000
     6  C    1.390950   2.425644   2.799576   2.425645   1.390943
     7  H    1.676942   2.658859   3.951748   4.460365   3.940936
     8  Cl   4.539899   4.034834   2.735336   1.756466   2.743267
     9  H    3.940927   4.460350   3.951734   2.658847   1.676928
    10  Cl   2.743266   1.756469   2.735335   4.034834   4.539901
    11  H    3.955066   2.661936   1.675220   2.661934   3.955069
                    6          7          8          9         10
     6  C    0.000000
     7  H    2.655976   0.000000
     8  Cl   4.042612   6.216831   0.000000
     9  H    2.655961   5.305630   3.112611   0.000000
    10  Cl   4.042618   3.112625   5.458452   6.216820   0.000000
    11  H    4.474795   5.313757   3.110668   5.313743   3.110665
                   11
    11  H    0.000000
 Stoichiometry    C6H3Cl2(1-)
 Framework group  CS[SG(C6H3Cl2)]
 Deg. of freedom    19
 Full point group                 CS      NOp   2
 Largest Abelian subgroup         CS      NOp   2
 Largest concise Abelian subgroup C1      NOp   1
                         Standard orientation:                         
 ---------------------------------------------------------------------
 Center     Atomic      Atomic             Coordinates (Angstroms)
 Number     Number       Type             X           Y           Z
 ---------------------------------------------------------------------
      1          6           0        1.198618    1.432859    0.000000
      2          6           0        1.208649    0.035517    0.000000
      3          6           0        0.000000   -0.660987   -0.000000
      4          6           0       -1.208649    0.035514    0.000000
      5          6           0       -1.198615    1.432864    0.000000
      6          6           0       -0.000001    2.138589    0.000000
      7          1           0        2.652820    2.267982    0.000000
      8         17           0       -2.729227   -0.843699   -0.000000
      9          1           0       -2.652809    2.267973    0.000000
     10         17           0        2.729226   -0.843706   -0.000000
     11          1           0       -0.000000   -2.336207   -0.000000
 ---------------------------------------------------------------------
 Rotational constants (GHZ):           2.8881756           0.8357950           0.6482121
 Standard basis: VSTO-6G (5D, 7F)
 There are    27 symmetry adapted cartesian basis functions of A'  symmetry.
 There are     8 symmetry adapted cartesian basis functions of A"  symmetry.
 There are    27 symmetry adapted basis functions of A'  symmetry.
 There are     8 symmetry adapted basis functions of A"  symmetry.
    35 basis functions,   210 primitive gaussians,    35 cartesian basis functions
    21 alpha electrons       21 beta electrons
       nuclear repulsion energy       192.1351516227 Hartrees.
 Integral buffers will be    131072 words long.
 Regular integral format.
 Two-electron integral symmetry is turned off.
 Do NDO integrals.
 One-electron integrals computed using PRISM.
 NBasis=    35 RedAO= T EigKep=  1.00D+00  NBF=    27     8
 NBsUse=    35 1.00D-06 EigRej= -1.00D+00 NBFU=    27     8
 Initial guess from the checkpoint file:  "geometry_chks/_35ClBzAnionIntermediate.chk"
 B after Tr=    -0.000000   -0.000000    0.000000
         Rot=    0.866025   -0.000000   -0.000000   -0.500001 Ang= -60.00 deg.
 Initial guess orbital symmetries:
       Occupied  (A') (A') (A') (A') (A') (A') (A') (A') (A') (A")
                 (A') (A") (A') (A') (A') (A") (A') (A') (A") (A")
                 (A')
       Virtual   (A') (A") (A') (A') (A") (A') (A') (A") (A') (A')
                 (A') (A') (A') (A')
 Keep J ints in memory in canonical form, NReq=862793.
 Overlap will be assumed to be unity.
 Requested convergence on RMS density matrix=1.00D-08 within**** cycles.
 Requested convergence on MAX density matrix=1.00D-06.
 Requested convergence on             energy=1.00D-06.
 No special actions if energy rises.
 Fock symm off for IB=2 I1=    1 I=   28 J=    6 Cut=1.00D-07 Err=1.31D-03
 Fock matrix is not symmetric: symmetry in diagonalization turned off.
 SCF Done:  E(RAM1) =  0.347430844266     A.U. after   12 cycles
            NFock= 11  Conv=0.93D-08     -V/T= 1.0038
 Calling FoFJK, ICntrl=      2127 FMM=F ISym2X=1 I1Cent= 0 IOpClX= 0 NMat=1 NMatS=1 NMatT=0.
 ***** Axes restored to original set *****
 -------------------------------------------------------------------
 Center     Atomic                   Forces (Hartrees/Bohr)
 Number     Number              X              Y              Z
 -------------------------------------------------------------------
      1        6          -0.072805637    0.025061990   -0.000000000
      2        6          -0.004270133    0.016019869    0.000000000
      3        6           0.082550548    0.050731245    0.000000000
      4        6           0.012358543   -0.011046043   -0.000000000
      5        6          -0.010518628   -0.076276194   -0.000000000
      6        6           0.005355952    0.003296054   -0.000000000
      7        1           0.105156400   -0.056092783   -0.000000000
      8       17          -0.014475077    0.010407964   -0.000000000
      9        1          -0.002545739    0.119154996   -0.000000000
     10       17           0.002747038   -0.017616581    0.000000000
     11        1          -0.103553267   -0.063640516   -0.000000000
 -------------------------------------------------------------------
 Cartesian Forces:  Max     0.119154996 RMS     0.044603535

 GradGradGradGradGradGradGradGradGradGradGradGradGradGradGradGradGradGrad
 Berny optimization.
 Using GEDIIS/GDIIS optimizer.
 FormGI is forming the generalized inverse of G from B-inverse, IUseBI=4.
 Internal  Forces:  Max     0.121545853 RMS     0.031738165
 Search for a local minimum.
 Step number   2 out of a maximum of   57
 All quantities printed in internal units (Hartrees-Bohrs-Radians)
 Mixed Optimization -- RFO/linear search
 Update second derivatives using D2CorX and points    1    2
 DE= -6.57D-02 DEPred=-6.24D-02 R= 1.05D+00
 TightC=F SS=  1.41D+00  RLast= 3.00D-01 DXNew= 5.0454D-01 9.0000D-01
 Trust test= 1.05D+00 RLast= 3.00D-01 DXMaxT set to 5.05D-01
 ITU=  1  0
 Use linear search instead of GDIIS.
 Linear search step of   0.600 exceeds DXMaxT=   0.505 but not scaled.
 Quartic linear search produced a step of  2.00000.
 Iteration  1 RMS(Cart)=  0.06975662 RMS(Int)=  0.03461790
 Iteration  2 RMS(Cart)=  0.03459790 RMS(Int)=  0.00002718
 Iteration  3 RMS(Cart)=  0.00000906 RMS(Int)=  0.00002674
 Iteration  4 RMS(Cart)=  0.00000000 RMS(Int)=  0.00002674
 ClnCor:  largest displacement from symmetrization is 6.03D-09 for atom     4.
 Variable       Old X    -DE/DX   Delta X   Delta X   Delta X     New X
                                 (Linear)    (Quad)   (Total)
    R1        2.64066  -0.01436  -0.03220   0.00000  -0.03220   2.60847
    R2        2.62851  -0.02713  -0.05650   0.00000  -0.05647   2.57205
    R3        3.16896  -0.11918  -0.33478   0.00000  -0.33478   2.83419
    R4        2.63612  -0.01856  -0.04130   0.00000  -0.04134   2.59478
    R5        3.31925  -0.01768  -0.03419   0.00000  -0.03419   3.28506
    R6        2.63612  -0.01856  -0.04130   0.00000  -0.04134   2.59478
    R7        3.16571  -0.12155  -0.34125   0.00000  -0.34125   2.82445
    R8        2.64068  -0.01436  -0.03220   0.00000  -0.03220   2.60847
    R9        3.31924  -0.01768  -0.03419   0.00000  -0.03419   3.28505
   R10        2.62850  -0.02712  -0.05650   0.00000  -0.05646   2.57204
   R11        3.16893  -0.11918  -0.33478   0.00000  -0.33478   2.83416
    A1        2.11011   0.01349   0.03143   0.00000   0.03146   2.14157
    A2        2.08491  -0.00833  -0.01896   0.00000  -0.01898   2.06593
    A3        2.08817  -0.00516  -0.01246   0.00000  -0.01248   2.07569
    A4        2.08640  -0.00732  -0.01598   0.00000  -0.01603   2.07038
    A5        2.10222   0.00743   0.01565   0.00000   0.01567   2.11790
    A6        2.09456  -0.00011   0.00033   0.00000   0.00035   2.09491
    A7        2.09602   0.00140   0.00325   0.00000   0.00317   2.09920
    A8        2.09358  -0.00070  -0.00163   0.00000  -0.00159   2.09199
    A9        2.09358  -0.00070  -0.00163   0.00000  -0.00159   2.09199
   A10        2.08640  -0.00732  -0.01598   0.00000  -0.01602   2.07037
   A11        2.09457  -0.00011   0.00033   0.00000   0.00035   2.09492
   A12        2.10222   0.00743   0.01565   0.00000   0.01567   2.11789
   A13        2.11011   0.01349   0.03143   0.00000   0.03146   2.14157
   A14        2.08491  -0.00833  -0.01896   0.00000  -0.01898   2.06593
   A15        2.08817  -0.00516  -0.01246   0.00000  -0.01248   2.07569
   A16        2.07733  -0.01374  -0.03414   0.00000  -0.03404   2.04329
    D1        0.00000   0.00000   0.00000   0.00000   0.00000   0.00000
    D2        3.14159  -0.00000   0.00000   0.00000   0.00000   3.14159
    D3        3.14159   0.00000   0.00000   0.00000   0.00000   3.14159
    D4        0.00000   0.00000   0.00000   0.00000  -0.00000   0.00000
    D5       -0.00000  -0.00000   0.00000   0.00000   0.00000   0.00000
    D6        3.14159  -0.00000   0.00000   0.00000   0.00000   3.14159
    D7       -0.00000  -0.00000   0.00000   0.00000   0.00000   0.00000
    D8        3.14159  -0.00000   0.00000   0.00000   0.00000   3.14159
    D9        3.14159   0.00000   0.00000   0.00000   0.00000   3.14159
   D10        0.00000  -0.00000   0.00000   0.00000   0.00000   0.00000
   D11        0.00000   0.00000   0.00000   0.00000   0.00000   0.00000
   D12        3.14159   0.00000   0.00000   0.00000   0.00000   3.14159
   D13        3.14159   0.00000   0.00000   0.00000   0.00000   3.14159
   D14       -0.00000   0.00000   0.00000   0.00000   0.00000   0.00000
   D15       -0.00000   0.00000   0.00000   0.00000   0.00000   0.00000
   D16        3.14159   0.00000   0.00000   0.00000   0.00000   3.14159
   D17        3.14159   0.00000   0.00000   0.00000   0.00000   3.14159
   D18       -0.00000   0.00000   0.00000   0.00000   0.00000   0.00000
   D19        0.00000  -0.00000   0.00000   0.00000  -0.00000   0.00000
   D20        3.14159  -0.00000   0.00000   0.00000   0.00000   3.14159
         Item               Value     Threshold  Converged?
 Maximum Force            0.121546     0.000450     NO 
 RMS     Force            0.031738     0.000300     NO 
 Maximum Displacement     0.408374     0.001800     NO 
 RMS     Displacement     0.102972     0.001200     NO 
 Predicted change in Energy=-1.284241D-01
 GradGradGradGradGradGradGradGradGradGradGradGradGradGradGradGradGradGrad

                          Input orientation:                          
 ---------------------------------------------------------------------
 Center     Atomic      Atomic             Coordinates (Angstroms)
 Number     Number       Type             X           Y           Z
 ---------------------------------------------------------------------
      1          6           0       -3.163376    0.161209   -0.000000
      2          6           0       -2.003266    0.909197   -0.000000
      3          6           0       -0.797295    0.252664    0.000000
      4          6           0       -0.756292   -1.119820    0.000000
      5          6           0       -1.947651   -1.816969    0.000000
      6          6           0       -3.160775   -1.199856    0.000000
      7          1           0       -4.477413    0.884165   -0.000000
      8         17           0        0.774037   -1.944463    0.000000
      9          1           0       -1.896197   -3.315858    0.000000
     10         17           0       -2.047730    2.647005   -0.000000
     11          1           0        0.476088    1.035245    0.000000
 ---------------------------------------------------------------------
                    Distance matrix (angstroms):
                    1          2          3          4          5
     1  C    0.000000
     2  C    1.380341   0.000000
     3  C    2.367847   1.373099   0.000000
     4  C    2.726736   2.381566   1.373097   0.000000
     5  C    2.321890   2.726733   2.367846   1.380344   0.000000
     6  C    1.361068   2.405812   2.774140   2.405814   1.361065
     7  H    1.499786   2.474274   3.733907   4.226428   3.700786
     8  Cl   4.465095   3.982059   2.701195   1.738374   2.724673
     9  H    3.700775   4.226411   3.733889   2.474260   1.499772
    10  Cl   2.724674   1.738377   2.701196   3.982058   4.465096
    11  H    3.742944   2.482556   1.494636   2.482553   3.742944
                    6          7          8          9         10
     6  C    0.000000
     7  H    2.465092   0.000000
     8  Cl   4.004646   5.964802   0.000000
     9  H    2.465080   4.929794   3.001811   0.000000
    10  Cl   4.004649   3.001827   5.389244   5.964788   0.000000
    11  H    4.268776   4.955804   2.994567   4.955787   2.994566
                   11
    11  H    0.000000
 Stoichiometry    C6H3Cl2(1-)
 Framework group  CS[SG(C6H3Cl2)]
 Deg. of freedom    19
 Full point group                 CS      NOp   2
 Largest Abelian subgroup         CS      NOp   2
 Largest concise Abelian subgroup C1      NOp   1
                         Standard orientation:                         
 ---------------------------------------------------------------------
 Center     Atomic      Atomic             Coordinates (Angstroms)
 Number     Number       Type             X           Y           Z
 ---------------------------------------------------------------------
      1          6           0        1.160945    1.415421   -0.000000
      2          6           0        1.190783    0.035402   -0.000000
      3          6           0       -0.000000   -0.648291   -0.000000
      4          6           0       -1.190783    0.035397    0.000000
      5          6           0       -1.160946    1.415419    0.000000
      6          6           0       -0.000003    2.125848    0.000000
      7          1           0        2.464900    2.156406   -0.000000
      8         17           0       -2.694622   -0.836620    0.000000
      9          1           0       -2.464894    2.156388    0.000000
     10         17           0        2.694623   -0.836619   -0.000000
     11          1           0        0.000001   -2.142928   -0.000000
 ---------------------------------------------------------------------
 Rotational constants (GHZ):           2.9686191           0.8617722           0.6678882
 Standard basis: VSTO-6G (5D, 7F)
 There are    27 symmetry adapted cartesian basis functions of A'  symmetry.
 There are     8 symmetry adapted cartesian basis functions of A"  symmetry.
 There are    27 symmetry adapted basis functions of A'  symmetry.
 There are     8 symmetry adapted basis functions of A"  symmetry.
    35 basis functions,   210 primitive gaussians,    35 cartesian basis functions
    21 alpha electrons       21 beta electrons
       nuclear repulsion energy       194.5284235565 Hartrees.
 Integral buffers will be    131072 words long.
 Regular integral format.
 Two-electron integral symmetry is turned off.
 Do NDO integrals.
 One-electron integrals computed using PRISM.
 NBasis=    35 RedAO= T EigKep=  1.00D+00  NBF=    27     8
 NBsUse=    35 1.00D-06 EigRej= -1.00D+00 NBFU=    27     8
 Initial guess from the checkpoint file:  "geometry_chks/_35ClBzAnionIntermediate.chk"
 B after Tr=     0.000000    0.000000   -0.000000
         Rot=    1.000000    0.000000   -0.000000   -0.000001 Ang=  -0.00 deg.
 Initial guess orbital symmetries:
       Occupied  (A') (A') (A') (A') (A') (A') (A') (A') (A') (A")
                 (A') (A") (A') (A') (A') (A") (A') (A') (A") (A")
                 (A')
       Virtual   (A') (A") (A') (A') (A") (A') (A') (A") (A') (A')
                 (A') (A') (A') (A')
 Keep J ints in memory in canonical form, NReq=862793.
 Overlap will be assumed to be unity.
 Requested convergence on RMS density matrix=1.00D-08 within**** cycles.
 Requested convergence on MAX density matrix=1.00D-06.
 Requested convergence on             energy=1.00D-06.
 No special actions if energy rises.
 Fock symm off for IB=2 I1=    1 I=   28 J=    6 Cut=1.00D-07 Err=3.31D-03
 Fock matrix is not symmetric: symmetry in diagonalization turned off.
 SCF Done:  E(RAM1) =  0.223961691871     A.U. after   13 cycles
            NFock= 12  Conv=0.59D-08     -V/T= 1.0024
 Calling FoFJK, ICntrl=      2127 FMM=F ISym2X=1 I1Cent= 0 IOpClX= 0 NMat=1 NMatS=1 NMatT=0.
 ***** Axes restored to original set *****
 -------------------------------------------------------------------
 Center     Atomic                   Forces (Hartrees/Bohr)
 Number     Number              X              Y              Z
 -------------------------------------------------------------------
      1        6          -0.113302480    0.065423244   -0.000000000
      2        6          -0.008310618    0.030802104    0.000000000
      3        6           0.118229466    0.072661247    0.000000000
      4        6           0.023723359   -0.021329295    0.000000000
      5        6           0.007194165   -0.130636716    0.000000000
      6        6          -0.021318415   -0.013099458   -0.000000000
      7        1           0.101855215   -0.054797734   -0.000000000
      8       17          -0.005975105    0.004584023    0.000000000
      9        1          -0.002881603    0.115623364   -0.000000000
     10       17           0.001390583   -0.007402526    0.000000000
     11        1          -0.100604568   -0.061828254   -0.000000000
 -------------------------------------------------------------------
 Cartesian Forces:  Max     0.130636716 RMS     0.054206862

 GradGradGradGradGradGradGradGradGradGradGradGradGradGradGradGradGradGrad
 Berny optimization.
 Using GEDIIS/GDIIS optimizer.
 FormGI is forming the generalized inverse of G from B-inverse, IUseBI=4.
 Internal  Forces:  Max     0.118084766 RMS     0.030398387
 Search for a local minimum.
 Step number   3 out of a maximum of   57
 All quantities printed in internal units (Hartrees-Bohrs-Radians)
 Mixed Optimization -- RFO/linear search
 Update second derivatives using D2CorX and points    2    3
 ITU=  0  1  0
 Use linear search instead of GDIIS.
 Linear search step of   1.092 exceeds DXMaxT=   0.505 scaled by   0.924
 Quartic linear search produced a step of  1.68179.
 Iteration  1 RMS(Cart)=  0.08555771 RMS(Int)=  0.09269813
 Iteration  2 RMS(Cart)=  0.05048215 RMS(Int)=  0.04217788
 Iteration  3 RMS(Cart)=  0.04217315 RMS(Int)=  0.00007605
 Iteration  4 RMS(Cart)=  0.00000173 RMS(Int)=  0.00007604
 Iteration  5 RMS(Cart)=  0.00000000 RMS(Int)=  0.00007604
 ClnCor:  largest displacement from symmetrization is 1.95D-08 for atom     8.
 Variable       Old X    -DE/DX   Delta X   Delta X   Delta X     New X
                                 (Linear)    (Quad)   (Total)
    R1        2.60847   0.01677  -0.05415   0.00000  -0.05414   2.55432
    R2        2.57205   0.02238  -0.09497   0.00000  -0.09487   2.47718
    R3        2.83419  -0.11566  -0.56302   0.00000  -0.56302   2.27116
    R4        2.59478   0.02252  -0.06952   0.00000  -0.06962   2.52516
    R5        3.28506  -0.00744  -0.05750   0.00000  -0.05750   3.22756
    R6        2.59478   0.02252  -0.06952   0.00000  -0.06963   2.52515
    R7        2.82445  -0.11808  -0.57392   0.00000  -0.57392   2.25054
    R8        2.60847   0.01677  -0.05416   0.00000  -0.05415   2.55432
    R9        3.28505  -0.00743  -0.05750   0.00000  -0.05750   3.22755
   R10        2.57204   0.02238  -0.09496   0.00000  -0.09485   2.47719
   R11        2.83416  -0.11565  -0.56302   0.00000  -0.56302   2.27113
    A1        2.14157   0.00162   0.05291   0.00000   0.05299   2.19456
    A2        2.06593  -0.00235  -0.03192   0.00000  -0.03196   2.03397
    A3        2.07569   0.00073  -0.02099   0.00000  -0.02103   2.05466
    A4        2.07038  -0.00156  -0.02695   0.00000  -0.02707   2.04330
    A5        2.11790   0.00275   0.02636   0.00000   0.02642   2.14431
    A6        2.09491  -0.00119   0.00059   0.00000   0.00065   2.09557
    A7        2.09920   0.00149   0.00534   0.00000   0.00512   2.10431
    A8        2.09199  -0.00074  -0.00267   0.00000  -0.00256   2.08944
    A9        2.09199  -0.00074  -0.00267   0.00000  -0.00256   2.08944
   A10        2.07037  -0.00156  -0.02695   0.00000  -0.02707   2.04330
   A11        2.09492  -0.00119   0.00059   0.00000   0.00065   2.09557
   A12        2.11789   0.00275   0.02636   0.00000   0.02642   2.14431
   A13        2.14157   0.00162   0.05291   0.00000   0.05299   2.19456
   A14        2.06593  -0.00235  -0.03192   0.00000  -0.03196   2.03396
   A15        2.07569   0.00073  -0.02099   0.00000  -0.02103   2.05466
   A16        2.04329  -0.00161  -0.05725   0.00000  -0.05695   1.98633
    D1       -0.00000   0.00000   0.00000   0.00000   0.00000   0.00000
    D2        3.14159  -0.00000   0.00000   0.00000   0.00000   3.14159
    D3        3.14159   0.00000   0.00000   0.00000   0.00000   3.14159
    D4        0.00000   0.00000   0.00000   0.00000  -0.00000   0.00000
    D5       -0.00000   0.00000   0.00000   0.00000   0.00000   0.00000
    D6        3.14159  -0.00000   0.00000   0.00000   0.00000   3.14159
    D7        0.00000  -0.00000   0.00000   0.00000  -0.00000   0.00000
    D8        3.14159  -0.00000   0.00000   0.00000   0.00000   3.14159
    D9        3.14159   0.00000   0.00000   0.00000   0.00000   3.14159
   D10       -0.00000  -0.00000   0.00000   0.00000   0.00000   0.00000
   D11       -0.00000   0.00000   0.00000   0.00000   0.00000   0.00000
   D12        3.14159   0.00000   0.00000   0.00000   0.00000   3.14159
   D13        3.14159   0.00000   0.00000   0.00000   0.00000   3.14159
   D14       -0.00000   0.00000   0.00000   0.00000   0.00000   0.00000
   D15       -0.00000  -0.00000   0.00000   0.00000   0.00000   0.00000
   D16        3.14159  -0.00000   0.00000   0.00000   0.00000   3.14159
   D17        3.14159   0.00000   0.00000   0.00000   0.00000   3.14159
   D18        0.00000  -0.00000   0.00000   0.00000  -0.00000   0.00000
   D19        0.00000  -0.00000   0.00000   0.00000  -0.00000   0.00000
   D20        3.14159   0.00000   0.00000   0.00000   0.00000   3.14159
         Item               Value     Threshold  Converged?
 Maximum Force            0.118085     0.000450     NO 
 RMS     Force            0.030398     0.000300     NO 
 Maximum Displacement     0.686427     0.001800     NO 
 RMS     Displacement     0.173108     0.001200     NO 
 Predicted change in Energy=-1.661038D-01
 GradGradGradGradGradGradGradGradGradGradGradGradGradGradGradGradGradGrad

                          Input orientation:                          
 ---------------------------------------------------------------------
 Center     Atomic      Atomic             Coordinates (Angstroms)
 Number     Number       Type             X           Y           Z
 ---------------------------------------------------------------------
      1          6           0       -3.111529    0.119417   -0.000000
      2          6           0       -1.993795    0.879506   -0.000000
      3          6           0       -0.821823    0.237588    0.000000
      4          6           0       -0.778505   -1.097960    0.000000
      5          6           0       -1.961514   -1.751832    0.000000
      6          6           0       -3.146350   -1.190988   -0.000000
      7          1           0       -4.160182    0.706581   -0.000000
      8         17           0        0.726579   -1.905305    0.000000
      9          1           0       -1.911336   -2.952616    0.000000
     10         17           0       -2.034230    2.586976   -0.000000
     11          1           0        0.192815    0.861152    0.000000
 ---------------------------------------------------------------------
                    Distance matrix (angstroms):
                    1          2          3          4          5
     1  C    0.000000
     2  C    1.351689   0.000000
     3  C    2.292754   1.336255   0.000000
     4  C    2.631540   2.321056   1.336250   0.000000
     5  C    2.196385   2.631536   2.292747   1.351687   0.000000
     6  C    1.310867   2.369668   2.728416   2.369671   1.310871
     7  H    1.201847   2.173278   3.371142   3.833028   3.298172
     8  Cl   4.339421   3.893021   2.643774   1.707948   2.692471
     9  H    3.298158   3.833009   3.371119   2.173260   1.201832
    10  Cl   2.692475   1.707949   2.643777   3.893019   4.339418
    11  H    3.386570   2.186687   1.190933   2.186682   3.386564
                    6          7          8          9         10
     6  C    0.000000
     7  H    2.151423   0.000000
     8  Cl   3.938252   5.540973   0.000000
     9  H    2.151416   4.295000   2.838214   0.000000
    10  Cl   3.938251   2.838232   5.272823   5.540955   0.000000
    11  H    3.919349   4.355741   2.817479   4.355718   2.817481
                   11
    11  H    0.000000
 Stoichiometry    C6H3Cl2(1-)
 Framework group  CS[SG(C6H3Cl2)]
 Deg. of freedom    19
 Full point group                 CS      NOp   2
 Largest Abelian subgroup         CS      NOp   2
 Largest concise Abelian subgroup C1      NOp   1
                         Standard orientation:                         
 ---------------------------------------------------------------------
 Center     Atomic      Atomic             Coordinates (Angstroms)
 Number     Number       Type             X           Y           Z
 ---------------------------------------------------------------------
      1          6           0        1.098189    1.385614    0.000000
      2          6           0        1.160528    0.035364    0.000000
      3          6           0       -0.000000   -0.627021   -0.000000
      4          6           0       -1.160528    0.035354    0.000000
      5          6           0       -1.098196    1.385603    0.000000
      6          6           0       -0.000005    2.101396    0.000000
      7          1           0        2.147500    1.971603    0.000000
      8         17           0       -2.636410   -0.824215   -0.000000
      9          1           0       -2.147501    1.971572    0.000000
     10         17           0        2.636413   -0.824202   -0.000000
     11          1           0        0.000003   -1.817953   -0.000000
 ---------------------------------------------------------------------
 Rotational constants (GHZ):           3.1119900           0.9078484           0.7028181
 Standard basis: VSTO-6G (5D, 7F)
 There are    27 symmetry adapted cartesian basis functions of A'  symmetry.
 There are     8 symmetry adapted cartesian basis functions of A"  symmetry.
 There are    27 symmetry adapted basis functions of A'  symmetry.
 There are     8 symmetry adapted basis functions of A"  symmetry.
    35 basis functions,   210 primitive gaussians,    35 cartesian basis functions
    21 alpha electrons       21 beta electrons
       nuclear repulsion energy       198.9498671687 Hartrees.
 Integral buffers will be    131072 words long.
 Regular integral format.
 Two-electron integral symmetry is turned off.
 Do NDO integrals.
 One-electron integrals computed using PRISM.
 NBasis=    35 RedAO= T EigKep=  1.00D+00  NBF=    27     8
 NBsUse=    35 1.00D-06 EigRej= -1.00D+00 NBFU=    27     8
 Initial guess from the checkpoint file:  "geometry_chks/_35ClBzAnionIntermediate.chk"
 B after Tr=     0.000000   -0.000000    0.000000
         Rot=    1.000000    0.000000   -0.000000   -0.000001 Ang=  -0.00 deg.
 Initial guess orbital symmetries:
       Occupied  (A') (A') (A') (A') (A') (A') (A') (A') (A') (A")
                 (A') (A') (A") (A') (A') (A") (A') (A') (A") (A")
                 (A')
       Virtual   (A") (A') (A") (A') (A') (A') (A') (A") (A') (A')
                 (A') (A') (A') (A')
 Keep J ints in memory in canonical form, NReq=862793.
 Overlap will be assumed to be unity.
 Requested convergence on RMS density matrix=1.00D-08 within**** cycles.
 Requested convergence on MAX density matrix=1.00D-06.
 Requested convergence on             energy=1.00D-06.
 No special actions if energy rises.
 Fock symm off for IB=2 I1=    1 I=   28 J=    4 Cut=1.00D-07 Err=5.12D-03
 Fock matrix is not symmetric: symmetry in diagonalization turned off.
 SCF Done:  E(RAM1) =  0.100995713181     A.U. after   13 cycles
            NFock= 12  Conv=0.34D-08     -V/T= 1.0011
 Calling FoFJK, ICntrl=      2127 FMM=F ISym2X=1 I1Cent= 0 IOpClX= 0 NMat=1 NMatS=1 NMatT=0.
 ***** Axes restored to original set *****
 -------------------------------------------------------------------
 Center     Atomic                   Forces (Hartrees/Bohr)
 Number     Number              X              Y              Z
 -------------------------------------------------------------------
      1        6          -0.142691362    0.119460199    0.000000000
      2        6          -0.017593158    0.064350805    0.000000000
      3        6           0.139490845    0.085733686    0.000000000
      4        6           0.049465662   -0.044767322    0.000000000
      5        6           0.042118421   -0.181260254   -0.000000000
      6        6          -0.080932549   -0.049743494    0.000000000
      7        1           0.040383694   -0.021465039   -0.000000000
      8       17           0.010491135   -0.006729188    0.000000000
      9        1          -0.000909987    0.045718407   -0.000000000
     10       17          -0.001264836    0.012398304   -0.000000000
     11        1          -0.038557866   -0.023696104   -0.000000000
 -------------------------------------------------------------------
 Cartesian Forces:  Max     0.181260254 RMS     0.060436854

 GradGradGradGradGradGradGradGradGradGradGradGradGradGradGradGradGradGrad
 Berny optimization.
 Using GEDIIS/GDIIS optimizer.
 FormGI is forming the generalized inverse of G from B-inverse, IUseBI=4.
 Internal  Forces:  Max     0.126142589 RMS     0.040987747
 Search for a local minimum.
 Step number   4 out of a maximum of   57
 All quantities printed in internal units (Hartrees-Bohrs-Radians)
 Mixed Optimization -- RFO/linear search
 Update second derivatives using D2CorX and points    3    4
 ITU=  0  0  1  0
 Use linear search instead of GDIIS.
     Eigenvalues ---    0.02011   0.02011   0.02011   0.02011   0.02011
     Eigenvalues ---    0.02011   0.02011   0.02011   0.06523   0.06524
     Eigenvalues ---    0.08866   0.15997   0.16000   0.16000   0.23362
     Eigenvalues ---    0.23391   0.23856   0.24977   0.25000   0.28788
     Eigenvalues ---    0.29033   0.40419   0.41309   0.44652   0.44656
     Eigenvalues ---    0.44657   0.65754
 RFO step:  Lambda=-1.45044910D-01 EMin= 2.01065564D-02
 Quartic linear search produced a step of  0.07387.
 Maximum step size (   0.505) exceeded in Quadratic search.
    -- Step size scaled by   0.867
 Iteration  1 RMS(Cart)=  0.06025597 RMS(Int)=  0.01092971
 Iteration  2 RMS(Cart)=  0.01071471 RMS(Int)=  0.00004835
 Iteration  3 RMS(Cart)=  0.00000155 RMS(Int)=  0.00004833
 Iteration  4 RMS(Cart)=  0.00000000 RMS(Int)=  0.00004833
 ClnCor:  largest displacement from symmetrization is 4.56D-09 for atom     2.
 Variable       Old X    -DE/DX   Delta X   Delta X   Delta X     New X
                                 (Linear)    (Quad)   (Total)
    R1        2.55432   0.08246  -0.00400   0.10835   0.10436   2.65868
    R2        2.47718   0.12614  -0.00701   0.16661   0.15967   2.63685
    R3        2.27116  -0.04572  -0.04159  -0.20145  -0.24305   2.02812
    R4        2.52516   0.10988  -0.00514   0.14349   0.13828   2.66343
    R5        3.22756   0.01242  -0.00425   0.02283   0.01859   3.24614
    R6        2.52515   0.10989  -0.00514   0.14350   0.13829   2.66343
    R7        2.25054  -0.04526  -0.04240  -0.20097  -0.24337   2.00717
    R8        2.55432   0.08246  -0.00400   0.10836   0.10436   2.65868
    R9        3.22755   0.01243  -0.00425   0.02284   0.01859   3.24614
   R10        2.47719   0.12614  -0.00701   0.16660   0.15966   2.63684
   R11        2.27113  -0.04572  -0.04159  -0.20143  -0.24302   2.02811
    A1        2.19456  -0.02455   0.00391  -0.04937  -0.04540   2.14915
    A2        2.03397   0.01114  -0.00236   0.02171   0.01933   2.05330
    A3        2.05466   0.01341  -0.00155   0.02766   0.02608   2.08074
    A4        2.04330   0.01138  -0.00200   0.02183   0.01975   2.06305
    A5        2.14431  -0.00726   0.00195  -0.01410  -0.01211   2.13220
    A6        2.09557  -0.00412   0.00005  -0.00773  -0.00764   2.08793
    A7        2.10431   0.00109   0.00038   0.00059   0.00082   2.10514
    A8        2.08944  -0.00055  -0.00019  -0.00029  -0.00041   2.08902
    A9        2.08944  -0.00055  -0.00019  -0.00029  -0.00041   2.08903
   A10        2.04330   0.01138  -0.00200   0.02183   0.01975   2.06305
   A11        2.09557  -0.00412   0.00005  -0.00773  -0.00764   2.08793
   A12        2.14431  -0.00726   0.00195  -0.01410  -0.01211   2.13220
   A13        2.19456  -0.02455   0.00391  -0.04938  -0.04541   2.14915
   A14        2.03396   0.01114  -0.00236   0.02172   0.01933   2.05329
   A15        2.05466   0.01341  -0.00155   0.02766   0.02608   2.08074
   A16        1.98633   0.02525  -0.00421   0.05451   0.05049   2.03682
    D1        0.00000  -0.00000   0.00000  -0.00000  -0.00000   0.00000
    D2        3.14159  -0.00000   0.00000  -0.00000   0.00000   3.14159
    D3        3.14159   0.00000   0.00000   0.00000   0.00000   3.14159
    D4        0.00000   0.00000   0.00000   0.00000   0.00000   0.00000
    D5       -0.00000   0.00000   0.00000   0.00000   0.00000   0.00000
    D6        3.14159  -0.00000   0.00000  -0.00000   0.00000   3.14159
    D7       -0.00000  -0.00000   0.00000  -0.00000   0.00000   0.00000
    D8        3.14159  -0.00000   0.00000  -0.00000   0.00000   3.14159
    D9        3.14159   0.00000   0.00000   0.00000   0.00000   3.14159
   D10       -0.00000  -0.00000   0.00000  -0.00000   0.00000   0.00000
   D11        0.00000   0.00000   0.00000   0.00000   0.00000   0.00000
   D12        3.14159  -0.00000   0.00000   0.00000   0.00000   3.14159
   D13        3.14159   0.00000   0.00000   0.00000   0.00000   3.14159
   D14        0.00000   0.00000   0.00000   0.00000   0.00000   0.00000
   D15        0.00000  -0.00000   0.00000  -0.00000  -0.00000   0.00000
   D16        3.14159  -0.00000   0.00000  -0.00000   0.00000   3.14159
   D17        3.14159  -0.00000   0.00000  -0.00000   0.00000   3.14159
   D18       -0.00000  -0.00000   0.00000  -0.00000   0.00000   0.00000
   D19       -0.00000   0.00000   0.00000   0.00000   0.00000   0.00000
   D20        3.14159   0.00000   0.00000   0.00000   0.00000   3.14159
         Item               Value     Threshold  Converged?
 Maximum Force            0.126143     0.000450     NO 
 RMS     Force            0.040988     0.000300     NO 
 Maximum Displacement     0.182482     0.001800     NO 
 RMS     Displacement     0.063169     0.001200     NO 
 Predicted change in Energy=-9.318593D-02
 GradGradGradGradGradGradGradGradGradGradGradGradGradGradGradGradGradGrad

                          Input orientation:                          
 ---------------------------------------------------------------------
 Center     Atomic      Atomic             Coordinates (Angstroms)
 Number     Number       Type             X           Y           Z
 ---------------------------------------------------------------------
      1          6           0       -3.191318    0.175597    0.000000
      2          6           0       -2.012207    0.943125    0.000000
      3          6           0       -0.776335    0.265548    0.000000
      4          6           0       -0.730066   -1.143122   -0.000000
      5          6           0       -1.947437   -1.848397   -0.000000
      6          6           0       -3.193165   -1.219761    0.000000
      7          1           0       -4.127313    0.700708    0.000000
      8         17           0        0.790176   -1.942902   -0.000000
      9          1           0       -1.901736   -2.920655   -0.000000
     10         17           0       -2.039050    2.660699    0.000000
     11          1           0        0.128581    0.821681    0.000000
 ---------------------------------------------------------------------
                    Distance matrix (angstroms):
                    1          2          3          4          5
     1  C    0.000000
     2  C    1.406912   0.000000
     3  C    2.416658   1.409429   0.000000
     4  C    2.792272   2.448736   1.409429   0.000000
     5  C    2.375667   2.792273   2.416660   1.406914   0.000000
     6  C    1.395359   2.464292   2.836761   2.464292   1.395358
     7  H    1.073233   2.128953   3.379115   3.865359   3.354072
     8  Cl   4.510026   4.022748   2.707620   1.717784   2.739243
     9  H    3.354072   3.865358   3.379114   2.128952   1.073231
    10  Cl   2.739243   1.717784   2.707619   4.022747   4.510027
    11  H    3.382182   2.144230   1.062148   2.144230   3.382184
                    6          7          8          9         10
     6  C    0.000000
     7  H    2.135611   0.000000
     8  Cl   4.048449   5.583043   0.000000
     9  H    2.135610   4.250584   2.863981   0.000000
    10  Cl   4.048451   2.863985   5.403486   5.583043   0.000000
    11  H    3.898908   4.257613   2.842645   4.257613   2.842641
                   11
    11  H    0.000000
 Stoichiometry    C6H3Cl2(1-)
 Framework group  CS[SG(C6H3Cl2)]
 Deg. of freedom    19
 Full point group                 CS      NOp   2
 Largest Abelian subgroup         CS      NOp   2
 Largest concise Abelian subgroup C1      NOp   1
                         Standard orientation:                         
 ---------------------------------------------------------------------
 Center     Atomic      Atomic             Coordinates (Angstroms)
 Number     Number       Type             X           Y           Z
 ---------------------------------------------------------------------
      1          6           0        1.187835    1.436318    0.000000
      2          6           0        1.224369    0.029880    0.000000
      3          6           0        0.000000   -0.668268    0.000000
      4          6           0       -1.224368    0.029882    0.000000
      5          6           0       -1.187832    1.436322    0.000000
      6          6           0        0.000002    2.168493    0.000000
      7          1           0        2.125294    1.958811    0.000000
      8         17           0       -2.701744   -0.846554    0.000000
      9          1           0       -2.125290    1.958813    0.000000
     10         17           0        2.701742   -0.846562    0.000000
     11          1           0       -0.000000   -1.730415    0.000000
 ---------------------------------------------------------------------
 Rotational constants (GHZ):           2.9366409           0.8573748           0.6636245
 Standard basis: VSTO-6G (5D, 7F)
 There are    27 symmetry adapted cartesian basis functions of A'  symmetry.
 There are     8 symmetry adapted cartesian basis functions of A"  symmetry.
 There are    27 symmetry adapted basis functions of A'  symmetry.
 There are     8 symmetry adapted basis functions of A"  symmetry.
    35 basis functions,   210 primitive gaussians,    35 cartesian basis functions
    21 alpha electrons       21 beta electrons
       nuclear repulsion energy       195.7351824234 Hartrees.
 Integral buffers will be    131072 words long.
 Regular integral format.
 Two-electron integral symmetry is turned off.
 Do NDO integrals.
 One-electron integrals computed using PRISM.
 NBasis=    35 RedAO= T EigKep=  1.00D+00  NBF=    27     8
 NBsUse=    35 1.00D-06 EigRej= -1.00D+00 NBFU=    27     8
 Initial guess from the checkpoint file:  "geometry_chks/_35ClBzAnionIntermediate.chk"
 B after Tr=    -0.000000   -0.000000    0.000000
         Rot=    1.000000   -0.000000    0.000000    0.000002 Ang=   0.00 deg.
 Initial guess orbital symmetries:
       Occupied  (A') (A') (A') (A') (A') (A') (A') (A') (A') (A')
                 (A") (A') (A") (A') (A') (A') (A") (A') (A") (A")
                 (A')
       Virtual   (A") (A') (A") (A') (A') (A") (A') (A') (A') (A')
                 (A') (A') (A') (A')
 Keep J ints in memory in canonical form, NReq=862793.
 Overlap will be assumed to be unity.
 Requested convergence on RMS density matrix=1.00D-08 within**** cycles.
 Requested convergence on MAX density matrix=1.00D-06.
 Requested convergence on             energy=1.00D-06.
 No special actions if energy rises.
 Fock symm off for IB=2 I1=    1 I=   28 J=    4 Cut=1.00D-07 Err=5.83D-03
 Fock matrix is not symmetric: symmetry in diagonalization turned off.
 SCF Done:  E(RAM1) =  0.481972858176E-01 A.U. after   13 cycles
            NFock= 12  Conv=0.52D-08     -V/T= 1.0005
 Calling FoFJK, ICntrl=      2127 FMM=F ISym2X=1 I1Cent= 0 IOpClX= 0 NMat=1 NMatS=1 NMatT=0.
 ***** Axes restored to original set *****
 -------------------------------------------------------------------
 Center     Atomic                   Forces (Hartrees/Bohr)
 Number     Number              X              Y              Z
 -------------------------------------------------------------------
      1        6           0.012052143    0.004146300    0.000000000
      2        6           0.003112636   -0.033267969    0.000000000
      3        6          -0.014321488   -0.008802447   -0.000000000
      4        6          -0.028275604    0.017804142   -0.000000000
      5        6           0.009145079    0.008881485    0.000000000
      6        6           0.013684438    0.008410973    0.000000000
      7        1          -0.017992531    0.008470274   -0.000000000
      8       17          -0.000173243    0.000575598    0.000000000
      9        1          -0.000570381   -0.019879737   -0.000000000
     10       17           0.000435073   -0.000414547    0.000000000
     11        1           0.022903878    0.014075929   -0.000000000
 -------------------------------------------------------------------
 Cartesian Forces:  Max     0.033267969 RMS     0.011823125

 GradGradGradGradGradGradGradGradGradGradGradGradGradGradGradGradGradGrad
 Berny optimization.
 Using GEDIIS/GDIIS optimizer.
 FormGI is forming the generalized inverse of G from B-inverse, IUseBI=4.
 Internal  Forces:  Max     0.026883441 RMS     0.007999089
 Search for a local minimum.
 Step number   5 out of a maximum of   57
 All quantities printed in internal units (Hartrees-Bohrs-Radians)
 Mixed Optimization -- RFO/linear search
 Update second derivatives using D2CorX and points    4    5
 DE= -5.28D-02 DEPred=-9.32D-02 R= 5.67D-01
 TightC=F SS=  1.41D+00  RLast= 5.47D-01 DXNew= 8.4853D-01 1.6405D+00
 Trust test= 5.67D-01 RLast= 5.47D-01 DXMaxT set to 8.49D-01
 ITU=  1  0  0  1  0
 Use linear search instead of GDIIS.
     Eigenvalues ---    0.02011   0.02011   0.02011   0.02011   0.02011
     Eigenvalues ---    0.02011   0.02011   0.02011   0.06519   0.06524
     Eigenvalues ---    0.15983   0.16000   0.16000   0.17495   0.23431
     Eigenvalues ---    0.23441   0.23468   0.24984   0.25000   0.28831
     Eigenvalues ---    0.29033   0.40881   0.41370   0.44631   0.44656
     Eigenvalues ---    0.44657   0.74080
 RFO step:  Lambda=-8.45719124D-03 EMin= 2.01065588D-02
 Quartic linear search produced a step of -0.14134.
 Iteration  1 RMS(Cart)=  0.03769235 RMS(Int)=  0.00021251
 Iteration  2 RMS(Cart)=  0.00027669 RMS(Int)=  0.00002969
 Iteration  3 RMS(Cart)=  0.00000001 RMS(Int)=  0.00002969
 ClnCor:  largest displacement from symmetrization is 6.61D-14 for atom     9.
 Variable       Old X    -DE/DX   Delta X   Delta X   Delta X     New X
                                 (Linear)    (Quad)   (Total)
    R1        2.65868  -0.00991  -0.01475   0.00762  -0.00713   2.65155
    R2        2.63685  -0.00351  -0.02257   0.03499   0.01238   2.64923
    R3        2.02812   0.01984   0.03435   0.04495   0.07930   2.10742
    R4        2.66343  -0.01272  -0.01954   0.01010  -0.00940   2.65403
    R5        3.24614  -0.00042  -0.00263   0.00617   0.00354   3.24968
    R6        2.66343  -0.01272  -0.01955   0.01011  -0.00940   2.65403
    R7        2.00717   0.02688   0.03440   0.12322   0.15762   2.16479
    R8        2.65868  -0.00991  -0.01475   0.00762  -0.00713   2.65155
    R9        3.24614  -0.00042  -0.00263   0.00617   0.00354   3.24968
   R10        2.63684  -0.00351  -0.02257   0.03499   0.01238   2.64923
   R11        2.02811   0.01984   0.03435   0.04497   0.07932   2.10743
    A1        2.14915  -0.00990   0.00642  -0.04616  -0.03977   2.10938
    A2        2.05330   0.00639  -0.00273   0.02951   0.02680   2.08009
    A3        2.08074   0.00352  -0.00369   0.01665   0.01298   2.09371
    A4        2.06305   0.01226  -0.00279   0.04698   0.04423   2.10728
    A5        2.13220  -0.00543   0.00171  -0.02228  -0.02059   2.11162
    A6        2.08793  -0.00682   0.00108  -0.02470  -0.02364   2.06428
    A7        2.10514  -0.01046  -0.00012  -0.03909  -0.03912   2.06602
    A8        2.08902   0.00523   0.00006   0.01955   0.01956   2.10858
    A9        2.08903   0.00523   0.00006   0.01955   0.01956   2.10858
   A10        2.06305   0.01226  -0.00279   0.04698   0.04423   2.10729
   A11        2.08793  -0.00682   0.00108  -0.02470  -0.02365   2.06428
   A12        2.13220  -0.00543   0.00171  -0.02227  -0.02059   2.11162
   A13        2.14915  -0.00990   0.00642  -0.04616  -0.03977   2.10938
   A14        2.05329   0.00639  -0.00273   0.02951   0.02680   2.08009
   A15        2.08074   0.00352  -0.00369   0.01664   0.01298   2.09372
   A16        2.03682   0.00575  -0.00714   0.03745   0.03020   2.06702
    D1        0.00000  -0.00000   0.00000   0.00000   0.00000   0.00000
    D2        3.14159  -0.00000   0.00000  -0.00000   0.00000   3.14159
    D3        3.14159   0.00000   0.00000   0.00000   0.00000   3.14159
    D4        0.00000   0.00000   0.00000   0.00000   0.00000   0.00000
    D5        0.00000   0.00000   0.00000   0.00000   0.00000   0.00000
    D6        3.14159  -0.00000   0.00000  -0.00000   0.00000   3.14159
    D7        0.00000  -0.00000   0.00000  -0.00000   0.00000   0.00000
    D8        3.14159  -0.00000   0.00000  -0.00000   0.00000   3.14159
    D9        3.14159   0.00000   0.00000   0.00000   0.00000   3.14159
   D10        0.00000  -0.00000   0.00000  -0.00000   0.00000   0.00000
   D11        0.00000   0.00000   0.00000   0.00000   0.00000   0.00000
   D12        3.14159   0.00000   0.00000   0.00000   0.00000   3.14159
   D13        3.14159   0.00000   0.00000   0.00000   0.00000   3.14159
   D14        0.00000   0.00000   0.00000   0.00000   0.00000   0.00000
   D15        0.00000  -0.00000   0.00000  -0.00000   0.00000   0.00000
   D16        3.14159  -0.00000   0.00000  -0.00000   0.00000   3.14159
   D17        3.14159   0.00000   0.00000   0.00000   0.00000   3.14159
   D18        0.00000  -0.00000   0.00000  -0.00000   0.00000   0.00000
   D19        0.00000  -0.00000   0.00000  -0.00000   0.00000   0.00000
   D20        3.14159   0.00000   0.00000   0.00000   0.00000   3.14159
         Item               Value     Threshold  Converged?
 Maximum Force            0.026883     0.000450     NO 
 RMS     Force            0.007999     0.000300     NO 
 Maximum Displacement     0.150068     0.001800     NO 
 RMS     Displacement     0.037574     0.001200     NO 
 Predicted change in Energy=-5.807244D-03
 GradGradGradGradGradGradGradGradGradGradGradGradGradGradGradGradGradGrad

                          Input orientation:                          
 ---------------------------------------------------------------------
 Center     Atomic      Atomic             Coordinates (Angstroms)
 Number     Number       Type             X           Y           Z
 ---------------------------------------------------------------------
      1          6           0       -3.206938    0.185425    0.000000
      2          6           0       -2.012464    0.921650    0.000000
      3          6           0       -0.767985    0.270680    0.000000
      4          6           0       -0.749341   -1.133651    0.000000
      5          6           0       -1.945724   -1.866770    0.000000
      6          6           0       -3.187623   -1.216354    0.000000
      7          1           0       -4.180689    0.729001    0.000000
      8         17           0        0.775817   -1.928079    0.000000
      9          1           0       -1.900604   -2.981062    0.000000
     10         17           0       -2.032312    2.641194    0.000000
     11          1           0        0.207993    0.870485    0.000000
 ---------------------------------------------------------------------
                    Distance matrix (angstroms):
                    1          2          3          4          5
     1  C    0.000000
     2  C    1.403137   0.000000
     3  C    2.440443   1.404454   0.000000
     4  C    2.789219   2.412414   1.404454   0.000000
     5  C    2.408768   2.789219   2.440444   1.403138   0.000000
     6  C    1.401912   2.439684   2.840056   2.439684   1.401911
     7  H    1.115198   2.176766   3.443343   3.904308   3.425361
     8  Cl   4.508795   3.986913   2.686608   1.719658   2.722232
     9  H    3.425368   3.904315   3.443349   2.176772   1.115204
    10  Cl   2.722232   1.719659   2.686608   3.986912   4.508796
    11  H    3.482967   2.221047   1.145556   2.221047   3.482968
                    6          7          8          9         10
     6  C    0.000000
     7  H    2.184167   0.000000
     8  Cl   4.026836   5.623791   0.000000
     9  H    2.184173   4.354693   2.876109   0.000000
    10  Cl   4.026837   2.876109   5.363194   5.623799   0.000000
    11  H    3.985612   4.390962   2.855588   4.390968   2.855587
                   11
    11  H    0.000000
 Stoichiometry    C6H3Cl2(1-)
 Framework group  CS[SG(C6H3Cl2)]
 Deg. of freedom    19
 Full point group                 CS      NOp   2
 Largest Abelian subgroup         CS      NOp   2
 Largest concise Abelian subgroup C1      NOp   1
                         Standard orientation:                         
 ---------------------------------------------------------------------
 Center     Atomic      Atomic             Coordinates (Angstroms)
 Number     Number       Type             X           Y           Z
 ---------------------------------------------------------------------
      1          6           0        1.204385    1.440949   -0.000000
      2          6           0        1.206207    0.037813   -0.000000
      3          6           0       -0.000000   -0.681601   -0.000000
      4          6           0       -1.206207    0.037813    0.000000
      5          6           0       -1.204383    1.440951    0.000000
      6          6           0        0.000001    2.158455    0.000000
      7          1           0        2.177344    1.985941   -0.000000
      8         17           0       -2.681597   -0.845616    0.000000
      9          1           0       -2.177349    1.985945    0.000000
     10         17           0        2.681597   -0.845619   -0.000000
     11          1           0       -0.000000   -1.827157   -0.000000
 ---------------------------------------------------------------------
 Rotational constants (GHZ):           2.9284565           0.8680405           0.6695696
 Standard basis: VSTO-6G (5D, 7F)
 There are    27 symmetry adapted cartesian basis functions of A'  symmetry.
 There are     8 symmetry adapted cartesian basis functions of A"  symmetry.
 There are    27 symmetry adapted basis functions of A'  symmetry.
 There are     8 symmetry adapted basis functions of A"  symmetry.
    35 basis functions,   210 primitive gaussians,    35 cartesian basis functions
    21 alpha electrons       21 beta electrons
       nuclear repulsion energy       195.5852072397 Hartrees.
 Integral buffers will be    131072 words long.
 Regular integral format.
 Two-electron integral symmetry is turned off.
 Do NDO integrals.
 One-electron integrals computed using PRISM.
 NBasis=    35 RedAO= T EigKep=  1.00D+00  NBF=    27     8
 NBsUse=    35 1.00D-06 EigRej= -1.00D+00 NBFU=    27     8
 Initial guess from the checkpoint file:  "geometry_chks/_35ClBzAnionIntermediate.chk"
 B after Tr=     0.000000    0.000000   -0.000000
         Rot=    1.000000    0.000000   -0.000000   -0.000000 Ang=  -0.00 deg.
 Initial guess orbital symmetries:
       Occupied  (A') (A') (A') (A') (A') (A') (A') (A') (A') (A')
[...]
            NFock=  8  Conv=0.68D-08     -V/T= 1.0005
 Calling FoFJK, ICntrl=      2127 FMM=F ISym2X=1 I1Cent= 0 IOpClX= 0 NMat=1 NMatS=1 NMatT=0.
 ***** Axes restored to original set *****
 -------------------------------------------------------------------
 Center     Atomic                   Forces (Hartrees/Bohr)
 Number     Number              X              Y              Z
 -------------------------------------------------------------------
      1        6           0.000111085    0.000023785    0.000000000
      2        6           0.000002692   -0.000058936    0.000000000
      3        6          -0.000085031   -0.000052245    0.000000000
      4        6          -0.000051467    0.000028888    0.000000000
      5        6           0.000071490    0.000087283   -0.000000000
      6        6          -0.000059269   -0.000036555   -0.000000000
      7        1          -0.000005059    0.000024064   -0.000000000
      8       17          -0.000008346    0.000019206    0.000000000
      9        1           0.000019136   -0.000014068   -0.000000000
     10       17           0.000013361   -0.000016133   -0.000000000
     11        1          -0.000008592   -0.000005288   -0.000000000
 -------------------------------------------------------------------
 Cartesian Forces:  Max     0.000111085 RMS     0.000038752

 GradGradGradGradGradGradGradGradGradGradGradGradGradGradGradGradGradGrad
 Berny optimization.
 Using GEDIIS/GDIIS optimizer.
 FormGI is forming the generalized inverse of G from B-inverse, IUseBI=4.
 Internal  Forces:  Max     0.000107145 RMS     0.000031858
 Search for a local minimum.
 Step number  10 out of a maximum of   57
 All quantities printed in internal units (Hartrees-Bohrs-Radians)
 Mixed Optimization -- En-DIIS/RFO-DIIS
 Swapping is turned off.
 Update second derivatives using D2CorX and points    4    5    6    7    8
                                                      9   10
 DE= -8.76D-06 DEPred=-8.63D-06 R= 1.02D+00
 TightC=F SS=  1.41D+00  RLast= 7.94D-03 DXNew= 7.1352D-01 2.3812D-02
 Trust test= 1.02D+00 RLast= 7.94D-03 DXMaxT set to 4.24D-01
 ITU=  1  1 -1  1  0  1  0  0  1  0
     Eigenvalues ---    0.02011   0.02011   0.02011   0.02011   0.02011
     Eigenvalues ---    0.02011   0.02011   0.02011   0.06524   0.15179
     Eigenvalues ---    0.16000   0.16000   0.17773   0.23234   0.23480
     Eigenvalues ---    0.24950   0.25000   0.29033   0.29497   0.35753
     Eigenvalues ---    0.36215   0.40807   0.44656   0.44657   0.45548
     Eigenvalues ---    0.47420   0.82893
 En-DIIS/RFO-DIIS/Sim-DIIS IScMMF=       -3 using points:    10    9
 RFO step:  Lambda=-9.69155937D-08.
 DidBck=F Rises=F RFO-DIIS coefs:    0.98392    0.01608
 Iteration  1 RMS(Cart)=  0.00013626 RMS(Int)=  0.00000001
 Iteration  2 RMS(Cart)=  0.00000001 RMS(Int)=  0.00000000
 ClnCor:  largest displacement from symmetrization is 1.04D-13 for atom     7.
 Variable       Old X    -DE/DX   Delta X   Delta X   Delta X     New X
                                 (Linear)    (Quad)   (Total)
    R1        2.63921  -0.00008   0.00002  -0.00014  -0.00013   2.63909
    R2        2.63124   0.00002   0.00002   0.00009   0.00011   2.63135
    R3        2.07550   0.00002   0.00000   0.00006   0.00006   2.07556
    R4        2.64343  -0.00011   0.00002  -0.00019  -0.00017   2.64326
    R5        3.26959  -0.00002  -0.00004   0.00001  -0.00004   3.26955
    R6        2.64343  -0.00011   0.00002  -0.00019  -0.00017   2.64326
    R7        2.07120  -0.00001   0.00007  -0.00007  -0.00001   2.07120
    R8        2.63921  -0.00008   0.00002  -0.00015  -0.00013   2.63909
    R9        3.26959  -0.00002  -0.00004   0.00001  -0.00004   3.26955
   R10        2.63124   0.00002   0.00002   0.00009   0.00011   2.63135
   R11        2.07550   0.00001   0.00000   0.00004   0.00004   2.07554
    A1        2.10241   0.00002   0.00002   0.00009   0.00011   2.10251
    A2        2.09049  -0.00003  -0.00002  -0.00016  -0.00018   2.09030
    A3        2.09029   0.00001  -0.00000   0.00008   0.00008   2.09037
    A4        2.11909   0.00001  -0.00003  -0.00000  -0.00003   2.11906
    A5        2.10572   0.00002   0.00001   0.00009   0.00010   2.10582
    A6        2.05837  -0.00003   0.00002  -0.00008  -0.00007   2.05830
    A7        2.04954   0.00002   0.00003   0.00005   0.00008   2.04963
    A8        2.11682  -0.00001  -0.00002  -0.00003  -0.00004   2.11678
    A9        2.11682  -0.00001  -0.00002  -0.00003  -0.00004   2.11678
   A10        2.11909   0.00001  -0.00003  -0.00000  -0.00003   2.11906
   A11        2.05837  -0.00003   0.00002  -0.00008  -0.00007   2.05830
   A12        2.10572   0.00002   0.00001   0.00009   0.00010   2.10582
   A13        2.10241   0.00002   0.00002   0.00009   0.00011   2.10251
   A14        2.09049  -0.00003  -0.00002  -0.00017  -0.00018   2.09030
   A15        2.09029   0.00001  -0.00000   0.00008   0.00008   2.09037
   A16        2.07382  -0.00007  -0.00001  -0.00022  -0.00023   2.07359
    D1        0.00000  -0.00000   0.00000  -0.00000   0.00000   0.00000
    D2        3.14159  -0.00000   0.00000  -0.00000   0.00000   3.14159
    D3        3.14159   0.00000   0.00000   0.00000   0.00000   3.14159
    D4        0.00000   0.00000   0.00000   0.00000   0.00000   0.00000
    D5        0.00000   0.00000   0.00000   0.00000   0.00000   0.00000
    D6        3.14159  -0.00000   0.00000  -0.00000   0.00000   3.14159
    D7        0.00000  -0.00000   0.00000  -0.00000   0.00000   0.00000
    D8        3.14159  -0.00000   0.00000  -0.00000   0.00000   3.14159
    D9        3.14159   0.00000   0.00000   0.00000   0.00000   3.14159
   D10        0.00000  -0.00000   0.00000  -0.00000   0.00000   0.00000
   D11        0.00000   0.00000   0.00000   0.00000   0.00000   0.00000
   D12        3.14159  -0.00000   0.00000  -0.00000   0.00000   3.14159
   D13        3.14159   0.00000   0.00000   0.00000   0.00000   3.14159
   D14        0.00000   0.00000   0.00000   0.00000   0.00000   0.00000
   D15        0.00000  -0.00000   0.00000  -0.00000   0.00000   0.00000
   D16        3.14159  -0.00000   0.00000  -0.00000   0.00000   3.14159
   D17        3.14159   0.00000   0.00000   0.00000   0.00000   3.14159
   D18        0.00000   0.00000   0.00000   0.00000   0.00000   0.00000
   D19        0.00000  -0.00000   0.00000  -0.00000   0.00000   0.00000
   D20        3.14159   0.00000   0.00000   0.00000   0.00000   3.14159
         Item               Value     Threshold  Converged?
 Maximum Force            0.000107     0.000450     YES
 RMS     Force            0.000032     0.000300     YES
 Maximum Displacement     0.000393     0.001800     YES
 RMS     Displacement     0.000136     0.001200     YES
 Predicted change in Energy=-5.275010D-08
 Optimization completed.
    -- Stationary point found.
                           ----------------------------
                           !   Optimized Parameters   !
                           ! (Angstroms and Degrees)  !
 --------------------------                            --------------------------
 ! Name  Definition              Value          Derivative Info.                !
 --------------------------------------------------------------------------------
 ! R1    R(1,2)                  1.3966         -DE/DX =   -0.0001              !
 ! R2    R(1,6)                  1.3924         -DE/DX =    0.0                 !
 ! R3    R(1,7)                  1.0983         -DE/DX =    0.0                 !
 ! R4    R(2,3)                  1.3988         -DE/DX =   -0.0001              !
 ! R5    R(2,10)                 1.7302         -DE/DX =    0.0                 !
 ! R6    R(3,4)                  1.3988         -DE/DX =   -0.0001              !
 ! R7    R(3,11)                 1.096          -DE/DX =    0.0                 !
 ! R8    R(4,5)                  1.3966         -DE/DX =   -0.0001              !
 ! R9    R(4,8)                  1.7302         -DE/DX =    0.0                 !
 ! R10   R(5,6)                  1.3924         -DE/DX =    0.0                 !
 ! R11   R(5,9)                  1.0983         -DE/DX =    0.0                 !
 ! A1    A(2,1,6)              120.4592         -DE/DX =    0.0                 !
 ! A2    A(2,1,7)              119.7762         -DE/DX =    0.0                 !
 ! A3    A(6,1,7)              119.7647         -DE/DX =    0.0                 !
 ! A4    A(1,2,3)              121.4151         -DE/DX =    0.0                 !
 ! A5    A(1,2,10)             120.6492         -DE/DX =    0.0                 !
 ! A6    A(3,2,10)             117.9357         -DE/DX =    0.0                 !
 ! A7    A(2,3,4)              117.4302         -DE/DX =    0.0                 !
 ! A8    A(2,3,11)             121.2849         -DE/DX =    0.0                 !
 ! A9    A(4,3,11)             121.2849         -DE/DX =    0.0                 !
 ! A10   A(3,4,5)              121.4151         -DE/DX =    0.0                 !
 ! A11   A(3,4,8)              117.9357         -DE/DX =    0.0                 !
 ! A12   A(5,4,8)              120.6491         -DE/DX =    0.0                 !
 ! A13   A(4,5,6)              120.4592         -DE/DX =    0.0                 !
 ! A14   A(4,5,9)              119.7761         -DE/DX =    0.0                 !
 ! A15   A(6,5,9)              119.7647         -DE/DX =    0.0                 !
 ! A16   A(1,6,5)              118.8211         -DE/DX =   -0.0001              !
 ! D1    D(6,1,2,3)              0.0            -DE/DX =    0.0                 !
 ! D2    D(6,1,2,10)           180.0            -DE/DX =    0.0                 !
 ! D3    D(7,1,2,3)            180.0            -DE/DX =    0.0                 !
 ! D4    D(7,1,2,10)             0.0            -DE/DX =    0.0                 !
 ! D5    D(2,1,6,5)              0.0            -DE/DX =    0.0                 !
 ! D6    D(7,1,6,5)            180.0            -DE/DX =    0.0                 !
 ! D7    D(1,2,3,4)              0.0            -DE/DX =    0.0                 !
 ! D8    D(1,2,3,11)           180.0            -DE/DX =    0.0                 !
 ! D9    D(10,2,3,4)           180.0            -DE/DX =    0.0                 !
 ! D10   D(10,2,3,11)            0.0            -DE/DX =    0.0                 !
 ! D11   D(2,3,4,5)              0.0            -DE/DX =    0.0                 !
 ! D12   D(2,3,4,8)            180.0            -DE/DX =    0.0                 !
 ! D13   D(11,3,4,5)           180.0            -DE/DX =    0.0                 !
 ! D14   D(11,3,4,8)             0.0            -DE/DX =    0.0                 !
 ! D15   D(3,4,5,6)              0.0            -DE/DX =    0.0                 !
 ! D16   D(3,4,5,9)            180.0            -DE/DX =    0.0                 !
 ! D17   D(8,4,5,6)            180.0            -DE/DX =    0.0                 !
 ! D18   D(8,4,5,9)              0.0            -DE/DX =    0.0                 !
 ! D19   D(4,5,6,1)              0.0            -DE/DX =    0.0                 !
 ! D20   D(9,5,6,1)            180.0            -DE/DX =    0.0                 !
 --------------------------------------------------------------------------------
 GradGradGradGradGradGradGradGradGradGradGradGradGradGradGradGradGradGrad

                          Input orientation:                          
 ---------------------------------------------------------------------
 Center     Atomic      Atomic             Coordinates (Angstroms)
 Number     Number       Type             X           Y           Z
 ---------------------------------------------------------------------
      1          6           0       -3.199400    0.183292    0.000000
      2          6           0       -2.007871    0.911841    0.000000
      3          6           0       -0.763065    0.273703    0.000000
      4          6           0       -0.756017   -1.125123    0.000000
      5          6           0       -1.944221   -1.859082    0.000000
      6          6           0       -3.175485   -1.208894    0.000000
      7          1           0       -4.162032    0.712078    0.000000
      8         17           0        0.776627   -1.927972    0.000000
      9          1           0       -1.907276   -2.956769    0.000000
     10         17           0       -2.031852    2.641867    0.000000
     11          1           0        0.170722    0.847579    0.000000
 ---------------------------------------------------------------------
                    Distance matrix (angstroms):
                    1          2          3          4          5
     1  C    0.000000
     2  C    1.396612   0.000000
     3  C    2.438012   1.398844   0.000000
     4  C    2.771655   2.390892   1.398844   0.000000
     5  C    2.397242   2.771655   2.438012   1.396612   0.000000
     6  C    1.392392   2.420918   2.831583   2.420918   1.392392
     7  H    1.098306   2.163404   3.427120   3.869916   3.395520
     8  Cl   4.501803   3.977181   2.686638   1.730192   2.721720
     9  H    3.395522   3.869918   3.427122   2.163406   1.098308
    10  Cl   2.721720   1.730192   2.686638   3.977181   4.501803
    11  H    3.434967   2.179541   1.096034   2.179541   3.434967
                    6          7          8          9         10
     6  C    0.000000
     7  H    2.159494   0.000000
     8  Cl   4.016997   5.600020   0.000000
     9  H    2.159495   4.306317   2.874327   0.000000
    10  Cl   4.016997   2.874327   5.363859   5.600022   0.000000
    11  H    3.927618   4.334873   2.840916   4.334874   2.840916
                   11
    11  H    0.000000
 Stoichiometry    C6H3Cl2(1-)
 Framework group  CS[SG(C6H3Cl2)]
 Deg. of freedom    19
 Full point group                 CS      NOp   2
 Largest Abelian subgroup         CS      NOp   2
 Largest concise Abelian subgroup C1      NOp   1
                         Standard orientation:                         
 ---------------------------------------------------------------------
 Center     Atomic      Atomic             Coordinates (Angstroms)
 Number     Number       Type             X           Y           Z
 ---------------------------------------------------------------------
      1          6           0       -1.437901    1.198621    0.000000
      2          6           0       -0.041293    1.195446    0.000000
      3          6           0        0.685118    0.000000    0.000000
      4          6           0       -0.041293   -1.195446    0.000000
      5          6           0       -1.437901   -1.198621    0.000000
      6          6           0       -2.146465    0.000000    0.000000
      7          1           0       -1.981165    2.153158    0.000000
      8         17           0        0.844105   -2.681930    0.000000
      9          1           0       -1.981166   -2.153159    0.000000
     10         17           0        0.844106    2.681930    0.000000
     11          1           0        1.781152    0.000000    0.000000
 ---------------------------------------------------------------------
 Rotational constants (GHZ):           2.9481307           0.8695923           0.6715185

 **********************************************************************

            Population analysis using the SCF Density.

 **********************************************************************

 Orbital symmetries:
       Occupied  (A') (A') (A') (A') (A') (A') (A') (A') (A') (A')
                 (A') (A") (A") (A') (A') (A') (A") (A') (A") (A")
                 (A')
       Virtual   (A") (A') (A") (A') (A") (A') (A') (A') (A') (A')
                 (A') (A') (A') (A')
 The electronic state is 1-A'.
 Alpha  occ. eigenvalues --   -1.27189  -1.22834  -1.19514  -0.96271  -0.94918
 Alpha  occ. eigenvalues --   -0.67808  -0.65574  -0.48817  -0.43139  -0.41718
 Alpha  occ. eigenvalues --   -0.38513  -0.37317  -0.33807  -0.32919  -0.30324
 Alpha  occ. eigenvalues --   -0.28581  -0.27286  -0.27125  -0.17841  -0.16484
 Alpha  occ. eigenvalues --   -0.10623
 Alpha virt. eigenvalues --    0.18327   0.19615   0.19663   0.21265   0.29744
 Alpha virt. eigenvalues --    0.30477   0.32056   0.33123   0.34725   0.35193
 Alpha virt. eigenvalues --    0.35959   0.36842   0.40486   0.42186
          Condensed to atoms (all electrons):
               1          2          3          4          5          6
     1  C    4.152999   0.000000   0.000000   0.000000   0.000000   0.000000
     2  C    0.000000   4.058470   0.000000   0.000000   0.000000   0.000000
     3  C    0.000000   0.000000   4.223471   0.000000   0.000000   0.000000
     4  C    0.000000   0.000000   0.000000   4.058470   0.000000   0.000000
     5  C    0.000000   0.000000   0.000000   0.000000   4.152999   0.000000
     6  C    0.000000   0.000000   0.000000   0.000000   0.000000   4.378447
     7  H    0.000000   0.000000   0.000000   0.000000   0.000000   0.000000
     8  Cl   0.000000   0.000000   0.000000   0.000000   0.000000   0.000000
     9  H    0.000000   0.000000   0.000000   0.000000   0.000000   0.000000
    10  Cl   0.000000   0.000000   0.000000   0.000000   0.000000   0.000000
    11  H    0.000000   0.000000   0.000000   0.000000   0.000000   0.000000
               7          8          9         10         11
     1  C    0.000000   0.000000   0.000000   0.000000   0.000000
     2  C    0.000000   0.000000   0.000000   0.000000   0.000000
     3  C    0.000000   0.000000   0.000000   0.000000   0.000000
     4  C    0.000000   0.000000   0.000000   0.000000   0.000000
     5  C    0.000000   0.000000   0.000000   0.000000   0.000000
     6  C    0.000000   0.000000   0.000000   0.000000   0.000000
     7  H    0.899191   0.000000   0.000000   0.000000   0.000000
     8  Cl   0.000000   7.146177   0.000000   0.000000   0.000000
     9  H    0.000000   0.000000   0.899191   0.000000   0.000000
    10  Cl   0.000000   0.000000   0.000000   7.146177   0.000000
    11  H    0.000000   0.000000   0.000000   0.000000   0.884408
 Mulliken charges:
               1
     1  C   -0.152999
     2  C   -0.058470
     3  C   -0.223471
     4  C   -0.058470
     5  C   -0.152999
     6  C   -0.378447
     7  H    0.100809
     8  Cl  -0.146177
     9  H    0.100809
    10  Cl  -0.146177
    11  H    0.115592
 Sum of Mulliken charges =  -1.00000
 Mulliken charges with hydrogens summed into heavy atoms:
               1
     1  C   -0.052189
     2  C   -0.058470
     3  C   -0.107880
     4  C   -0.058470
     5  C   -0.052190
     6  C   -0.378447
     8  Cl  -0.146177
    10  Cl  -0.146177
 Charge=             -1.0000 electrons
 Dipole moment (field-independent basis, Debye):
    X=              5.4341    Y=             -0.0000    Z=              0.0000  Tot=              5.4341
 N-N= 1.959832934389D+02 E-N=-2.770639503065D+02  KE=-9.224331711107D+01
 Symmetry A'   KE=-7.179258240591D+01
 Symmetry A"   KE=-2.045073470516D+01
 1\1\GINC-SH03-01N27\FOpt\RAM1\ZDO\C6H3Cl2(1-)\JLAPIER\08-Dec-2025\0\\#
  opt am1 SCF(maxcyc=10000)\\Anion Intermediate (removed 1) _35\\-1,1\C
 ,-3.1993997221,0.1832923869,0.\C,-2.0078710014,0.9118414691,0.\C,-0.76
 30648881,0.2737027204,0.\C,-0.7560170303,-1.1251230506,0.\C,-1.9442209
 174,-1.8590823524,0.\C,-3.1754849001,-1.2088942749,0.\H,-4.1620324573,
 0.7120784218,0.\Cl,0.7766268993,-1.9279724105,0.\H,-1.9072760259,-2.95
 67688822,0.\Cl,-2.0318518704,2.6418673466,0.\H,0.1707219136,0.84757862
 57,0.\\Version=ES64L-G16RevB.01\State=1-A'\HF=0.0436474\RMSD=6.835e-09
 \RMSF=3.875e-05\Dipole=1.8214706,1.1194179,0.\PG=CS [SG(C6H3Cl2)]\\@


 MARY HAD A LITTLE LAMB
      HIS FEET WERE BLACK AS SOOT,
           AND EVERYWHERE THAT MARY WENT
                HIS SOOTY FOOT HE PUT.

                    -- NONAME
 Job cpu time:       0 days  0 hours  0 minutes  3.3 seconds.
 Elapsed time:       0 days  0 hours  0 minutes 22.6 seconds.
 File lengths (MBytes):  RWF=     10 Int=      0 D2E=      0 Chk=      2 Scr=      1
 Normal termination of Gaussian 16 at Mon Dec  8 17:08:55 2025.
