 Entering Gaussian System, Link 0=g16
 Initial command:
 /share/software/user/restricted/gaussian/g16.B01/l1.exe "/home/users/jlapier/Chloroaromatics/Gau-11814.inp" -scrdir="/home/users/jlapier/Chloroaromatics/"
 Entering Link 1 = /share/software/user/restricted/gaussian/g16.B01/l1.exe PID=     11817.
  
 Copyright (c) 1988-2017, Gaussian, Inc.  All Rights Reserved.
  
 This is part of the Gaussian(R) 16 program.  It is based on
 the Gaussian(R) 09 system (copyright 2009, Gaussian, Inc.),
 the Gaussian(R) 03 system (copyright 2003, Gaussian, Inc.),
 the Gaussian(R) 98 system (copyright 1998, Gaussian, Inc.),
 the Gaussian(R) 94 system (copyright 1995, Gaussian, Inc.),
 the Gaussian 92(TM) system (copyright 1992, Gaussian, Inc.),
 the Gaussian 90(TM) system (copyright 1990, Gaussian, Inc.),
 the Gaussian 88(TM) system (copyright 1988, Gaussian, Inc.),
 the Gaussian 86(TM) system (copyright 1986, Carnegie Mellon
 University), and the Gaussian 82(TM) system (copyright 1983,
 Carnegie Mellon University). Gaussian is a federally registered
 trademark of Gaussian, Inc.
  
 This software contains proprietary and confidential information,
 including trade secrets, belonging to Gaussian, Inc.
  
 This software is provided under written license and may be
 used, copied, transmitted, or stored only in accord with that
 written license.
  
 The following legend is applicable only to US Government
 contracts under FAR:
  
                    RESTRICTED RIGHTS LEGEND
  
 Use, reproduction and disclosure by the US Government is
 subject to restrictions as set forth in subparagraphs (a)
 and (c) of the Commercial Computer Software - Restricted
 Rights clause in FAR 52.227-19.
  
 Gaussian, Inc.
 340 Quinnipiac St., Bldg. 40, Wallingford CT 06492
  
  
 ---------------------------------------------------------------
 Warning -- This program may not be used in any manner that
 competes with the business of Gaussian, Inc. or will provide
 assistance to any competitor of Gaussian, Inc.  The licensee
 of this program is prohibited from giving any competitor of
 Gaussian, Inc. access to this program.  By using this program,
 the user acknowledges that Gaussian, Inc. is engaged in the
 business of creating and licensing software in the field of
 computational chemistry and represents and warrants to the
 licensee that it is not a competitor of Gaussian, Inc. and that
 it will not use this program in any manner prohibited above.
 ---------------------------------------------------------------
  

 Cite this work as:
 Gaussian 16, Revision B.01,
 M. J. Frisch, G. W. Trucks, H. B. Schlegel, G. E. Scuseria, 
 M. A. Robb, J. R. Cheeseman, G. Scalmani, V. Barone, 
 G. A. Petersson, H. Nakatsuji, X. Li, M. Caricato, A. V. Marenich, 
 J. Bloino, B. G. Janesko, R. Gomperts, B. Mennucci, H. P. Hratchian, 
 J. V. Ortiz, A. F. Izmaylov, J. L. Sonnenberg, D. Williams-Young, 
 F. Ding, F. Lipparini, F. Egidi, J. Goings, B. Peng, A. Petrone, 
 T. Henderson, D. Ranasinghe, V. G. Zakrzewski, J. Gao, N. Rega, 
 G. Zheng, W. Liang, M. Hada, M. Ehara, K. Toyota, R. Fukuda, 
 J. Hasegawa, M. Ishida, T. Nakajima, Y. Honda, O. Kitao, H. Nakai, 
 T. Vreven, K. Throssell, J. A. Montgomery, Jr., J. E. Peralta, 
 F. Ogliaro, M. J. Bearpark, J. J. Heyd, E. N. Brothers, K. N. Kudin, 
 V. N. Staroverov, T. A. Keith, R. Kobayashi, J. Normand, 
 K. Raghavachari, A. P. Rendell, J. C. Burant, S. S. Iyengar, 
 J. Tomasi, M. Cossi, J. M. Millam, M. Klene, C. Adamo, R. Cammi, 
 J. W. Ochterski, R. L. Martin, K. Morokuma, O. Farkas, 
 J. B. Foresman, and D. J. Fox, Gaussian, Inc., Wallingford CT, 2016.
 
 ******************************************
 Gaussian 16:  ES64L-G16RevB.01 20-Dec-2017
                 9-Dec-2025 
 ******************************************
 %mem=2GB
 %nprocshare=1
 Will use up to    1 processors via shared memory.
 %chk=geometry_chks/_35ClBzNeutralRadical.chk
 -----------------
 # opt am1 SCF=XQC
 -----------------
 1/18=20,19=15,26=1,38=1/1,3;
 2/9=110,12=2,17=6,18=5,40=1/2;
 3/5=2,25=1,41=700000,71=1/1,2,3;
 4/35=1/1;
 5/5=2,8=3,13=1,35=1,38=5/2,8;
 6/7=2,8=2,9=2,10=2,28=1/1;
 7//1,2,3,16;
 1/18=20,19=15,26=1/3(2);
 2/9=110/2;
 99//99;
 2/9=110/2;
 3/5=2,25=1,41=700000,71=1,135=20/1,2,3;
 4/5=5,16=3,35=1/1;
 5/5=2,8=3,13=1,35=1,38=5/2,8;
 7//1,2,3,16;
 1/18=20,19=15,26=1/3(-5);
 2/9=110/2;
 6/7=2,8=2,9=2,10=2,19=2,28=1/1;
 99/9=1/99;
 -------------------------------
 Neutral Radical (removed 1) _35
 -------------------------------
 Symbolic Z-matrix:
 Charge =  0 Multiplicity = 2
 C                    -3.20928   0.19943   0. 
 C                    -2.0115    0.93555   0. 
 C                    -0.77511   0.2663    0. 
 C                    -0.7365   -1.13907   0. 
 C                    -1.93429  -1.87519   0. 
 C                    -3.17067  -1.20594   0. 
 H                    -4.76193   1.03987   0. 
 Cl                    0.81614  -1.97951   0. 
 H                    -1.8858   -3.64003   0. 
 Cl                   -2.05998   2.7004    0. 
 H                     0.72905   1.19071   0. 
 
 Add virtual bond connecting atoms H9         and C5         Dist= 3.34D+00.
 Add virtual bond connecting atoms H11        and C3         Dist= 3.34D+00.
 Add virtual bond connecting atoms H7         and C1         Dist= 3.34D+00.

 GradGradGradGradGradGradGradGradGradGradGradGradGradGradGradGradGradGrad
 Berny optimization.
 Initialization pass.
                           ----------------------------
                           !    Initial Parameters    !
                           ! (Angstroms and Degrees)  !
 --------------------------                            --------------------------
 ! Name  Definition              Value          Derivative Info.                !
 --------------------------------------------------------------------------------
 ! R1    R(1,2)                  1.4059         estimate D2E/DX2                !
 ! R2    R(1,6)                  1.4059         estimate D2E/DX2                !
 ! R3    R(1,7)                  1.7655         estimate D2E/DX2                !
 ! R4    R(2,3)                  1.4059         estimate D2E/DX2                !
 ! R5    R(2,10)                 1.7655         estimate D2E/DX2                !
 ! R6    R(3,4)                  1.4059         estimate D2E/DX2                !
 ! R7    R(3,11)                 1.7655         estimate D2E/DX2                !
 ! R8    R(4,5)                  1.4059         estimate D2E/DX2                !
 ! R9    R(4,8)                  1.7655         estimate D2E/DX2                !
 ! R10   R(5,6)                  1.4059         estimate D2E/DX2                !
 ! R11   R(5,9)                  1.7655         estimate D2E/DX2                !
 ! A1    A(2,1,6)              119.9999         estimate D2E/DX2                !
 ! A2    A(2,1,7)              119.9999         estimate D2E/DX2                !
 ! A3    A(6,1,7)              120.0001         estimate D2E/DX2                !
 ! A4    A(1,2,3)              120.0            estimate D2E/DX2                !
 ! A5    A(1,2,10)             120.0001         estimate D2E/DX2                !
 ! A6    A(3,2,10)             119.9999         estimate D2E/DX2                !
 ! A7    A(2,3,4)              120.0001         estimate D2E/DX2                !
 ! A8    A(2,3,11)             120.0            estimate D2E/DX2                !
 ! A9    A(4,3,11)             119.9999         estimate D2E/DX2                !
 ! A10   A(3,4,5)              119.9997         estimate D2E/DX2                !
 ! A11   A(3,4,8)              120.0003         estimate D2E/DX2                !
 ! A12   A(5,4,8)              120.0            estimate D2E/DX2                !
 ! A13   A(4,5,6)              120.0            estimate D2E/DX2                !
 ! A14   A(4,5,9)              119.9996         estimate D2E/DX2                !
 ! A15   A(6,5,9)              120.0004         estimate D2E/DX2                !
 ! A16   A(1,6,5)              120.0003         estimate D2E/DX2                !
 ! D1    D(6,1,2,3)              0.0            estimate D2E/DX2                !
 ! D2    D(6,1,2,10)           180.0            estimate D2E/DX2                !
 ! D3    D(7,1,2,3)            180.0            estimate D2E/DX2                !
 ! D4    D(7,1,2,10)             0.0            estimate D2E/DX2                !
 ! D5    D(2,1,6,5)              0.0            estimate D2E/DX2                !
 ! D6    D(7,1,6,5)            180.0            estimate D2E/DX2                !
 ! D7    D(1,2,3,4)              0.0            estimate D2E/DX2                !
 ! D8    D(1,2,3,11)           180.0            estimate D2E/DX2                !
 ! D9    D(10,2,3,4)           180.0            estimate D2E/DX2                !
 ! D10   D(10,2,3,11)            0.0            estimate D2E/DX2                !
 ! D11   D(2,3,4,5)              0.0            estimate D2E/DX2                !
 ! D12   D(2,3,4,8)            180.0            estimate D2E/DX2                !
 ! D13   D(11,3,4,5)           180.0            estimate D2E/DX2                !
 ! D14   D(11,3,4,8)             0.0            estimate D2E/DX2                !
 ! D15   D(3,4,5,6)              0.0            estimate D2E/DX2                !
 ! D16   D(3,4,5,9)            180.0            estimate D2E/DX2                !
 ! D17   D(8,4,5,6)            180.0            estimate D2E/DX2                !
 ! D18   D(8,4,5,9)              0.0            estimate D2E/DX2                !
 ! D19   D(4,5,6,1)              0.0            estimate D2E/DX2                !
 ! D20   D(9,5,6,1)            180.0            estimate D2E/DX2                !
 --------------------------------------------------------------------------------
 Trust Radius=3.00D-01 FncErr=1.00D-07 GrdErr=1.00D-07 EigMax=2.50D+02 EigMin=1.00D-04
 Number of steps in this run=     57 maximum allowed number of steps=    100.
 GradGradGradGradGradGradGradGradGradGradGradGradGradGradGradGradGradGrad

                          Input orientation:                          
 ---------------------------------------------------------------------
 Center     Atomic      Atomic             Coordinates (Angstroms)
 Number     Number       Type             X           Y           Z
 ---------------------------------------------------------------------
      1          6           0       -3.209280    0.199430    0.000000
      2          6           0       -2.011500    0.935550    0.000000
      3          6           0       -0.775110    0.266300    0.000000
      4          6           0       -0.736500   -1.139070    0.000000
      5          6           0       -1.934290   -1.875190    0.000000
      6          6           0       -3.170670   -1.205940    0.000000
      7          1           0       -4.761930    1.039870    0.000000
      8         17           0        0.816140   -1.979510    0.000000
      9          1           0       -1.885800   -3.640030    0.000000
     10         17           0       -2.059980    2.700400    0.000000
     11          1           0        0.729050    1.190710    0.000000
 ---------------------------------------------------------------------
                    Distance matrix (angstroms):
                    1          2          3          4          5
     1  C    0.000000
     2  C    1.405898   0.000000
     3  C    2.435088   1.405900   0.000000
     4  C    2.811801   2.435092   1.405900   0.000000
     5  C    2.435087   2.811800   2.435093   1.405907   0.000000
     6  C    1.405900   2.435088   2.811796   2.435088   1.405892
     7  H    1.765520   2.752408   4.061175   4.577321   4.061173
     8  Cl   4.577312   4.061173   2.752406   1.765511   2.752408
     9  H    4.061164   4.577306   4.061163   2.752397   1.765506
    10  Cl   2.752406   1.765516   2.752405   4.061173   4.577316
    11  H    4.061167   2.752403   1.765512   2.752401   4.061173
                    6          7          8          9         10
     6  C    0.000000
     7  H    2.752412   0.000000
     8  Cl   4.061165   6.342832   0.000000
     9  H    2.752396   5.493049   3.171404   0.000000
    10  Cl   4.061173   3.171418   5.493052   6.342822   0.000000
    11  H    4.577308   5.493051   3.171416   5.493040   3.171412
                   11
    11  H    0.000000
 Stoichiometry    C6H3Cl2(2)
 Framework group  CS[SG(C6H3Cl2)]
 Deg. of freedom    19
 Full point group                 CS      NOp   2
 Largest Abelian subgroup         CS      NOp   2
 Largest concise Abelian subgroup C1      NOp   1
                         Standard orientation:                         
 ---------------------------------------------------------------------
 Center     Atomic      Atomic             Coordinates (Angstroms)
 Number     Number       Type             X           Y           Z
 ---------------------------------------------------------------------
      1          6           0        1.857145   -0.333679    0.000000
      2          6           0        0.639600   -1.036627    0.000000
      3          6           0       -0.577944   -0.333675    0.000000
      4          6           0       -0.577944    1.072225    0.000000
      5          6           0        0.639610    1.775173    0.000000
      6          6           0        1.857145    1.072221    0.000000
      7          1           0        3.386128   -1.216443    0.000000
      8         17           0       -2.106917    1.954988    0.000000
      9          1           0        0.639606    3.540679    0.000000
     10         17           0        0.639594   -2.802143    0.000000
     11          1           0       -2.106923   -1.216428    0.000000
 ---------------------------------------------------------------------
 Rotational constants (GHZ):           2.8492359           0.8231877           0.6386670
 Standard basis: VSTO-6G (5D, 7F)
 There are    27 symmetry adapted cartesian basis functions of A'  symmetry.
 There are     8 symmetry adapted cartesian basis functions of A"  symmetry.
 There are    27 symmetry adapted basis functions of A'  symmetry.
 There are     8 symmetry adapted basis functions of A"  symmetry.
    35 basis functions,   210 primitive gaussians,    35 cartesian basis functions
    21 alpha electrons       20 beta electrons
       nuclear repulsion energy       190.9940983173 Hartrees.
 Integral buffers will be    131072 words long.
 Regular integral format.
 Two-electron integral symmetry is turned off.
 Do NDO integrals.
 One-electron integrals computed using PRISM.
 NBasis=    35 RedAO= T EigKep=  1.00D+00  NBF=    27     8
 NBsUse=    35 1.00D-06 EigRej= -1.00D+00 NBFU=    27     8
 Simple Huckel Guess.
 Initial guess orbital symmetries:
 Alpha Orbitals:
       Occupied  (A') (A') (A') (A') (A') (A') (A') (A') (A') (A")
                 (A') (A') (A') (A") (A') (A") (A') (A') (A") (A")
                 (A')
       Virtual   (A") (A') (A") (A') (A') (A") (A') (A') (A') (A')
                 (A') (A') (A') (A')
 Beta  Orbitals:
       Occupied  (A') (A') (A') (A') (A') (A') (A') (A') (A') (A")
                 (A') (A') (A') (A") (A') (A") (A') (A') (A") (A")
       Virtual   (A') (A") (A') (A") (A') (A') (A") (A') (A') (A')
                 (A') (A') (A') (A') (A')
 The electronic state of the initial guess is 2-A'.
 Initial guess <Sx>= 0.0000 <Sy>= 0.0000 <Sz>= 0.5000 <S**2>= 0.7500 S= 0.5000
 Keep J ints in memory in canonical form, NReq=862793.
 Overlap will be assumed to be unity.
 Requested convergence on RMS density matrix=1.00D-08 within  32 cycles.
 Requested convergence on MAX density matrix=1.00D-06.
 Requested convergence on             energy=1.00D-06.
 No special actions if energy rises.
 Fock symm off for IB=2 I1=    1 I=   28 J=    2 Cut=1.00D-07 Err=3.46D-03
 Fock matrix is not symmetric: symmetry in diagonalization turned off.
 Rare condition: small coef for last iteration:  0.000D+00
 Rare condition: small coef for last iteration:  0.000D+00
 Rare condition: small coef for last iteration:  0.000D+00
 Rare condition: small coef for last iteration:  0.000D+00
 Rare condition: small coef for last iteration:  0.000D+00
 Rare condition: small coef for last iteration:  0.000D+00
 Rare condition: small coef for last iteration:  0.000D+00
 Rare condition: small coef for last iteration:  0.000D+00
 Rare condition: small coef for last iteration:  0.000D+00
 Rare condition: small coef for last iteration:  0.000D+00
 Rare condition: small coef for last iteration:  0.000D+00
 Rare condition: small coef for last iteration:  0.000D+00
 Rare condition: small coef for last iteration:  0.000D+00
 Rare condition: small coef for last iteration:  0.000D+00
 Rare condition: small coef for last iteration:  0.000D+00
 >>>>>>>>>> Convergence criterion not met.
 SCF Done:  E(UAM1) =  0.478162768178     A.U. after   33 cycles
            NFock= 32  Conv=0.53D-03     -V/T= 1.0053
 <Sx>= 0.0000 <Sy>= 0.0000 <Sz>= 0.5000 <S**2>= 1.1551 S= 0.6854
 <L.S>=  0.00000000000    
 Annihilation of the first spin contaminant:
 S**2 before annihilation     1.1551,   after     0.9374
 Keep J ints in memory in canonical form, NReq=863193.
 LinEq1:  Iter=  0 NonCon=     1 RMS=8.78D-05 Max=8.55D-04 NDo=     1
 AX will form     1 AO Fock derivatives at one time.
 LinEq1:  Iter=  1 NonCon=     1 RMS=2.76D-05 Max=2.18D-04 NDo=     1
 LinEq1:  Iter=  2 NonCon=     1 RMS=4.77D-06 Max=5.32D-05 NDo=     1
 LinEq1:  Iter=  3 NonCon=     1 RMS=1.11D-06 Max=1.51D-05 NDo=     1
 LinEq1:  Iter=  4 NonCon=     1 RMS=3.77D-07 Max=4.51D-06 NDo=     1
 LinEq1:  Iter=  5 NonCon=     1 RMS=1.08D-07 Max=1.31D-06 NDo=     1
 LinEq1:  Iter=  6 NonCon=     1 RMS=1.86D-08 Max=1.40D-07 NDo=     1
 LinEq1:  Iter=  7 NonCon=     1 RMS=3.53D-09 Max=2.95D-08 NDo=     1
 LinEq1:  Iter=  8 NonCon=     0 RMS=8.19D-10 Max=6.25D-09 NDo=     1
 Linear equations converged to 2.437D-09 2.437D-08 after     8 iterations.
 Incorrect curvature in search direction -- initial direction reversed.
     Minimum is close to point  3 DX=  3.67D-02 DF= -3.09D-05 DXR=  2.55D-02 DFR=  3.07D-03 which will be used.
 Gradient too large for Newton-Raphson -- use scaled steepest descent instead.
 Gradient too large for Newton-Raphson -- use scaled steepest descent instead.
 Gradient too large for Newton-Raphson -- use scaled steepest descent instead.
     Minimum is close to point  2 DX= -1.97D-01 DF= -4.43D-06 DXR=  8.19D-02 DFR=  6.76D-03 which will be used.
 Gradient too large for Newton-Raphson -- use scaled steepest descent instead.
 Gradient too large for Newton-Raphson -- use scaled steepest descent instead.
 Gradient too large for Newton-Raphson -- use scaled steepest descent instead.
 LinEq1:  Iter=  0 NonCon=     1 RMS=5.54D-04 Max=4.43D-03 NDo=     1
 LinEq1:  Iter=  1 NonCon=     1 RMS=2.09D-04 Max=1.86D-03 NDo=     1
 LinEq1:  Iter=  2 NonCon=     1 RMS=2.20D-05 Max=1.86D-04 NDo=     1
 LinEq1:  Iter=  3 NonCon=     1 RMS=7.01D-06 Max=6.26D-05 NDo=     1
 LinEq1:  Iter=  4 NonCon=     1 RMS=1.21D-06 Max=1.58D-05 NDo=     1
 LinEq1:  Iter=  5 NonCon=     1 RMS=1.96D-07 Max=2.14D-06 NDo=     1
 LinEq1:  Iter=  6 NonCon=     1 RMS=5.48D-08 Max=4.93D-07 NDo=     1
 LinEq1:  Iter=  7 NonCon=     1 RMS=7.46D-09 Max=6.09D-08 NDo=     1
 LinEq1:  Iter=  8 NonCon=     0 RMS=1.31D-09 Max=1.04D-08 NDo=     1
 Linear equations converged to 2.437D-09 2.437D-08 after     8 iterations.
     Accept linear search using points  1 and  2.
 LinEq1:  Iter=  0 NonCon=     1 RMS=1.82D-04 Max=1.74D-03 NDo=     1
 LinEq1:  Iter=  1 NonCon=     1 RMS=6.94D-05 Max=5.06D-04 NDo=     1
 LinEq1:  Iter=  2 NonCon=     1 RMS=1.26D-05 Max=9.20D-05 NDo=     1
 LinEq1:  Iter=  3 NonCon=     1 RMS=2.05D-06 Max=1.86D-05 NDo=     1
 LinEq1:  Iter=  4 NonCon=     1 RMS=3.22D-07 Max=3.51D-06 NDo=     1
 LinEq1:  Iter=  5 NonCon=     1 RMS=7.89D-08 Max=8.92D-07 NDo=     1
 LinEq1:  Iter=  6 NonCon=     1 RMS=1.58D-08 Max=1.06D-07 NDo=     1
 LinEq1:  Iter=  7 NonCon=     1 RMS=3.86D-09 Max=3.21D-08 NDo=     1
 LinEq1:  Iter=  8 NonCon=     0 RMS=7.70D-10 Max=6.67D-09 NDo=     1
 Linear equations converged to 2.437D-09 2.437D-08 after     8 iterations.
     Accept linear search using points  1 and  2.
     Minimum is close to point  2 DX= -3.25D-02 DF= -5.71D-08 DXR=  3.36D-02 DFR=  1.16D-03 which will be used.
 LinEq1:  Iter=  0 NonCon=     1 RMS=6.67D-06 Max=9.10D-05 NDo=     1
 LinEq1:  Iter=  1 NonCon=     1 RMS=9.92D-07 Max=8.69D-06 NDo=     1
 LinEq1:  Iter=  2 NonCon=     1 RMS=1.41D-07 Max=1.77D-06 NDo=     1
 LinEq1:  Iter=  3 NonCon=     1 RMS=4.11D-08 Max=5.32D-07 NDo=     1
 LinEq1:  Iter=  4 NonCon=     1 RMS=9.15D-09 Max=5.61D-08 NDo=     1
 LinEq1:  Iter=  5 NonCon=     1 RMS=1.39D-09 Max=9.34D-09 NDo=     1
 LinEq1:  Iter=  6 NonCon=     0 RMS=2.62D-10 Max=1.93D-09 NDo=     1
 Linear equations converged to 7.475D-10 7.475D-09 after     6 iterations.
 LinEq1:  Iter=  0 NonCon=     1 RMS=6.19D-08 Max=5.73D-07 NDo=     1
 LinEq1:  Iter=  1 NonCon=     1 RMS=1.64D-08 Max=1.21D-07 NDo=     1
 LinEq1:  Iter=  2 NonCon=     1 RMS=4.22D-09 Max=3.18D-08 NDo=     1
 LinEq1:  Iter=  3 NonCon=     1 RMS=1.08D-09 Max=9.43D-09 NDo=     1
 LinEq1:  Iter=  4 NonCon=     1 RMS=1.94D-10 Max=1.35D-09 NDo=     1
 LinEq1:  Iter=  5 NonCon=     1 RMS=3.32D-11 Max=2.25D-10 NDo=     1
 LinEq1:  Iter=  6 NonCon=     0 RMS=7.02D-12 Max=4.89D-11 NDo=     1
 Linear equations converged to 1.037D-11 1.037D-10 after     6 iterations.
 SCF Done:  E(UAM1) =  0.462629225420     a.u. after   12 cycles
            Convg  =    0.9112D-08                    66 Fock formations.
              S**2 =  2.0889                  -V/T =  1.0051
 <Sx>= 0.0000 <Sy>= 0.0000 <Sz>= 0.5000 <S**2>= 2.0889 S= 1.0294
 <L.S>=  0.00000000000    
 Annihilation of the first spin contaminant:
 S**2 before annihilation     2.0889,   after     3.5540

 **********************************************************************

            Population analysis using the SCF Density.

 **********************************************************************

 Orbital symmetries:
 Alpha Orbitals:
       Occupied  (A') (A') (A') (A') (A') (A') (A') (A') (A') (A')
                 (A") (A") (A') (A') (A") (A') (A') (A') (A') (A")
                 (A")
       Virtual   (A') (A') (A') (A") (A") (A') (A') (A") (A') (A')
                 (A') (A') (A') (A')
 Beta  Orbitals:
       Occupied  (A') (A') (A') (A') (A') (A') (A') (A') (A') (A')
                 (A") (A') (A") (A') (A") (A') (A') (A') (A") (A")
       Virtual   (A') (A") (A') (A") (A') (A') (A') (A') (A") (A')
                 (A') (A') (A') (A') (A')
 The electronic state is 2-A'.
 Alpha  occ. eigenvalues --   -1.42064  -1.37822  -1.35372  -1.11138  -1.10362
 Alpha  occ. eigenvalues --   -0.81399  -0.81022  -0.63949  -0.59882  -0.53936
 Alpha  occ. eigenvalues --   -0.53688  -0.48989  -0.47803  -0.45891  -0.44468
 Alpha  occ. eigenvalues --   -0.43777  -0.43551  -0.40559  -0.38870  -0.37628
 Alpha  occ. eigenvalues --   -0.36278
 Alpha virt. eigenvalues --   -0.01915   0.01353   0.01438   0.02250   0.02383
 Alpha virt. eigenvalues --    0.03253   0.04741   0.09490   0.14852   0.15091
 Alpha virt. eigenvalues --    0.17403   0.17692   0.18089   0.19545
  Beta  occ. eigenvalues --   -1.42120  -1.37715  -1.35449  -1.11857  -1.09712
  Beta  occ. eigenvalues --   -0.83128  -0.80704  -0.61872  -0.59890  -0.53933
  Beta  occ. eigenvalues --   -0.53331  -0.51511  -0.47941  -0.45259  -0.44010
  Beta  occ. eigenvalues --   -0.43934  -0.41413  -0.39984  -0.37547  -0.37324
  Beta virt. eigenvalues --   -0.01350   0.00538   0.01845   0.02402   0.02783
  Beta virt. eigenvalues --    0.02844   0.04671   0.05501   0.09406   0.14636
  Beta virt. eigenvalues --    0.14813   0.17040   0.17113   0.17937   0.20207
          Condensed to atoms (all electrons):
               1          2          3          4          5          6
     1  C    4.134906   0.000000   0.000000   0.000000   0.000000   0.000000
     2  C    0.000000   4.030668   0.000000   0.000000   0.000000   0.000000
     3  C    0.000000   0.000000   4.134751   0.000000   0.000000   0.000000
     4  C    0.000000   0.000000   0.000000   4.030670   0.000000   0.000000
     5  C    0.000000   0.000000   0.000000   0.000000   4.134911   0.000000
     6  C    0.000000   0.000000   0.000000   0.000000   0.000000   4.031074
     7  H    0.000000   0.000000   0.000000   0.000000   0.000000   0.000000
     8  Cl   0.000000   0.000000   0.000000   0.000000   0.000000   0.000000
     9  H    0.000000   0.000000   0.000000   0.000000   0.000000   0.000000
    10  Cl   0.000000   0.000000   0.000000   0.000000   0.000000   0.000000
    11  H    0.000000   0.000000   0.000000   0.000000   0.000000   0.000000
               7          8          9         10         11
     1  C    0.000000   0.000000   0.000000   0.000000   0.000000
     2  C    0.000000   0.000000   0.000000   0.000000   0.000000
     3  C    0.000000   0.000000   0.000000   0.000000   0.000000
     4  C    0.000000   0.000000   0.000000   0.000000   0.000000
     5  C    0.000000   0.000000   0.000000   0.000000   0.000000
     6  C    0.000000   0.000000   0.000000   0.000000   0.000000
     7  H    0.818990   0.000000   0.000000   0.000000   0.000000
     8  Cl   0.000000   7.029974   0.000000   0.000000   0.000000
     9  H    0.000000   0.000000   0.818984   0.000000   0.000000
    10  Cl   0.000000   0.000000   0.000000   7.029976   0.000000
    11  H    0.000000   0.000000   0.000000   0.000000   0.805095
          Atomic-Atomic Spin Densities.
               1          2          3          4          5          6
     1  C   -0.995188   0.000000   0.000000   0.000000   0.000000   0.000000
     2  C    0.000000   0.589505   0.000000   0.000000   0.000000   0.000000
     3  C    0.000000   0.000000  -0.966042   0.000000   0.000000   0.000000
     4  C    0.000000   0.000000   0.000000   0.589512   0.000000   0.000000
     5  C    0.000000   0.000000   0.000000   0.000000  -0.995155   0.000000
     6  C    0.000000   0.000000   0.000000   0.000000   0.000000   1.487412
     7  H    0.000000   0.000000   0.000000   0.000000   0.000000   0.000000
     8  Cl   0.000000   0.000000   0.000000   0.000000   0.000000   0.000000
     9  H    0.000000   0.000000   0.000000   0.000000   0.000000   0.000000
    10  Cl   0.000000   0.000000   0.000000   0.000000   0.000000   0.000000
    11  H    0.000000   0.000000   0.000000   0.000000   0.000000   0.000000
               7          8          9         10         11
     1  C    0.000000   0.000000   0.000000   0.000000   0.000000
     2  C    0.000000   0.000000   0.000000   0.000000   0.000000
     3  C    0.000000   0.000000   0.000000   0.000000   0.000000
     4  C    0.000000   0.000000   0.000000   0.000000   0.000000
     5  C    0.000000   0.000000   0.000000   0.000000   0.000000
     6  C    0.000000   0.000000   0.000000   0.000000   0.000000
     7  H    0.438533   0.000000   0.000000   0.000000   0.000000
     8  Cl   0.000000  -0.002970   0.000000   0.000000   0.000000
     9  H    0.000000   0.000000   0.438497   0.000000   0.000000
    10  Cl   0.000000   0.000000   0.000000  -0.002972   0.000000
    11  H    0.000000   0.000000   0.000000   0.000000   0.418870
 Mulliken charges and spin densities:
               1          2
     1  C   -0.134906  -0.995188
     2  C   -0.030668   0.589505
     3  C   -0.134751  -0.966042
     4  C   -0.030670   0.589512
     5  C   -0.134911  -0.995155
     6  C   -0.031074   1.487412
     7  H    0.181010   0.438533
     8  Cl  -0.029974  -0.002970
     9  H    0.181016   0.438497
    10  Cl  -0.029976  -0.002972
    11  H    0.194905   0.418870
 Sum of Mulliken charges =  -0.00000   1.00000
 Mulliken charges and spin densities with hydrogens summed into heavy atoms:
               1          2
     1  C    0.046104  -0.556656
     2  C   -0.030668   0.589505
     3  C    0.060154  -0.547173
     4  C   -0.030670   0.589512
     5  C    0.046105  -0.556658
     6  C   -0.031074   1.487412
     8  Cl  -0.029974  -0.002970
    10  Cl  -0.029976  -0.002972
 Charge=             -0.0000 electrons
 Dipole moment (field-independent basis, Debye):
    X=              0.2342    Y=              0.1352    Z=              0.0000  Tot=              0.2704
 N-N= 1.909940983173D+02 E-N=-2.623359397265D+02  KE=-8.995619039704D+01
 Symmetry A'   KE=-6.957069929461D+01
 Symmetry A"   KE=-2.038549110243D+01
 Symmetry A'   SP= 1.000000000000D+00
 Symmetry A"   SP=-6.661338147751D-16
 Calling FoFJK, ICntrl=      2127 FMM=F ISym2X=1 I1Cent= 0 IOpClX= 1 NMat=1 NMatS=1 NMatT=0.
 ***** Axes restored to original set *****
 -------------------------------------------------------------------
 Center     Atomic                   Forces (Hartrees/Bohr)
 Number     Number              X              Y              Z
 -------------------------------------------------------------------
      1        6          -0.073748457    0.005211189    0.000000000
      2        6          -0.000674124    0.025817826    0.000000000
      3        6           0.056669139    0.034825204    0.000000000
      4        6           0.022723066   -0.012264155    0.000000000
      5        6          -0.028652621   -0.068153854    0.000000000
      6        6           0.058183137    0.035763336   -0.000000000
      7        1           0.087117823   -0.046961289   -0.000000000
      8       17          -0.034402214    0.018438160    0.000000000
      9        1          -0.002546863    0.098939988   -0.000000000
     10       17           0.000910218   -0.039022212    0.000000000
     11        1          -0.085579104   -0.052594193   -0.000000000
 -------------------------------------------------------------------
 Cartesian Forces:  Max     0.098939988 RMS     0.040482548

 GradGradGradGradGradGradGradGradGradGradGradGradGradGradGradGradGradGrad
 Berny optimization.
 FormGI is forming the generalized inverse of G from B-inverse, IUseBI=4.
 Internal  Forces:  Max     0.100448654 RMS     0.029431786
 Search for a local minimum.
 Step number   1 out of a maximum of   57
 All quantities printed in internal units (Hartrees-Bohrs-Radians)
 Mixed Optimization -- RFO/linear search
 Second derivative matrix not updated -- first step.
 ITU=  0
     Eigenvalues ---    0.02011   0.02011   0.02011   0.02011   0.02011
     Eigenvalues ---    0.02011   0.02011   0.02011   0.06524   0.06524
     Eigenvalues ---    0.06524   0.16000   0.16000   0.16000   0.23188
     Eigenvalues ---    0.23477   0.23493   0.25000   0.25000   0.29033
     Eigenvalues ---    0.29033   0.40971   0.41414   0.44656   0.44657
     Eigenvalues ---    0.44657   0.44657
 RFO step:  Lambda=-1.55255637D-01 EMin= 2.01065650D-02
 Linear search not attempted -- first point.
 Maximum step size (   0.300) exceeded in Quadratic search.
    -- Step size scaled by   0.372
 Iteration  1 RMS(Cart)=  0.04883883 RMS(Int)=  0.00008280
 Iteration  2 RMS(Cart)=  0.00015922 RMS(Int)=  0.00001585
 Iteration  3 RMS(Cart)=  0.00000002 RMS(Int)=  0.00001585
 ClnCor:  largest displacement from symmetrization is 2.74D-12 for atom     8.
 Variable       Old X    -DE/DX   Delta X   Delta X   Delta X     New X
                                 (Linear)    (Quad)   (Total)
    R1        2.65676  -0.02368   0.00000  -0.01464  -0.01464   2.64212
    R2        2.65677  -0.05154   0.00000  -0.03231  -0.03229   2.62448
    R3        3.33635  -0.09897   0.00000  -0.16701  -0.16701   3.16934
    R4        2.65677  -0.02074   0.00000  -0.01238  -0.01240   2.64437
    R5        3.33634  -0.03903   0.00000  -0.03259  -0.03259   3.30375
    R6        2.65677  -0.02074   0.00000  -0.01238  -0.01240   2.64437
    R7        3.33633  -0.10045   0.00000  -0.16951  -0.16951   3.16683
    R8        2.65678  -0.02368   0.00000  -0.01464  -0.01464   2.64214
    R9        3.33633  -0.03903   0.00000  -0.03259  -0.03259   3.30374
   R10        2.65675  -0.05153   0.00000  -0.03230  -0.03228   2.62447
   R11        3.33632  -0.09897   0.00000  -0.16701  -0.16701   3.16931
    A1        2.09439  -0.00370   0.00000  -0.00425  -0.00423   2.09016
    A2        2.09439   0.00156   0.00000   0.00179   0.00178   2.09617
    A3        2.09440   0.00213   0.00000   0.00246   0.00246   2.09685
    A4        2.09439  -0.00860   0.00000  -0.00709  -0.00712   2.08728
    A5        2.09440   0.00403   0.00000   0.00330   0.00331   2.09771
    A6        2.09439   0.00457   0.00000   0.00379   0.00381   2.09820
    A7        2.09440   0.00471   0.00000   0.00627   0.00622   2.10062
    A8        2.09440  -0.00236   0.00000  -0.00314  -0.00311   2.09128
    A9        2.09439  -0.00236   0.00000  -0.00314  -0.00311   2.09128
   A10        2.09439  -0.00860   0.00000  -0.00709  -0.00712   2.08727
   A11        2.09440   0.00457   0.00000   0.00379   0.00381   2.09821
   A12        2.09440   0.00403   0.00000   0.00330   0.00331   2.09771
   A13        2.09439  -0.00370   0.00000  -0.00425  -0.00423   2.09016
   A14        2.09439   0.00156   0.00000   0.00179   0.00178   2.09617
   A15        2.09440   0.00213   0.00000   0.00246   0.00246   2.09686
   A16        2.09440   0.01988   0.00000   0.01642   0.01648   2.11088
    D1        0.00000   0.00000   0.00000   0.00000   0.00000   0.00000
    D2        3.14159  -0.00000   0.00000  -0.00000   0.00000   3.14159
    D3        3.14159   0.00000   0.00000   0.00000   0.00000   3.14159
    D4        0.00000   0.00000   0.00000   0.00000   0.00000   0.00000
    D5        0.00000   0.00000   0.00000   0.00000   0.00000   0.00000
    D6        3.14159  -0.00000   0.00000  -0.00000   0.00000   3.14159
    D7        0.00000  -0.00000   0.00000  -0.00000   0.00000   0.00000
    D8        3.14159  -0.00000   0.00000  -0.00000   0.00000   3.14159
    D9        3.14159   0.00000   0.00000  -0.00000   0.00000   3.14159
   D10        0.00000  -0.00000   0.00000  -0.00000   0.00000   0.00000
   D11        0.00000   0.00000   0.00000   0.00000   0.00000   0.00000
   D12        3.14159  -0.00000   0.00000  -0.00000   0.00000   3.14159
   D13        3.14159   0.00000   0.00000   0.00000   0.00000   3.14159
   D14        0.00000   0.00000   0.00000   0.00000   0.00000   0.00000
   D15        0.00000  -0.00000   0.00000  -0.00000   0.00000   0.00000
   D16        3.14159  -0.00000   0.00000  -0.00000   0.00000   3.14159
   D17        3.14159   0.00000   0.00000   0.00000   0.00000   3.14159
   D18        0.00000  -0.00000   0.00000  -0.00000   0.00000   0.00000
   D19        0.00000  -0.00000   0.00000  -0.00000   0.00000   0.00000
   D20        3.14159   0.00000   0.00000   0.00000   0.00000   3.14159
         Item               Value     Threshold  Converged?
 Maximum Force            0.100449     0.000450     NO 
 RMS     Force            0.029432     0.000300     NO 
 Maximum Displacement     0.188337     0.001800     NO 
 RMS     Displacement     0.048857     0.001200     NO 
 Predicted change in Energy=-5.400726D-02
 GradGradGradGradGradGradGradGradGradGradGradGradGradGradGradGradGradGrad

                          Input orientation:                          
 ---------------------------------------------------------------------
 Center     Atomic      Atomic             Coordinates (Angstroms)
 Number     Number       Type             X           Y           Z
 ---------------------------------------------------------------------
      1          6           0       -3.198341    0.195456    0.000000
      2          6           0       -2.010104    0.932287    0.000000
      3          6           0       -0.781563    0.262334    0.000000
      4          6           0       -0.738781   -1.136351    0.000000
      5          6           0       -1.932892   -1.863635    0.000000
      6          6           0       -3.148759   -1.192474    0.000000
      7          1           0       -4.677864    0.985278    0.000000
      8         17           0        0.798113   -1.969649    0.000000
      9          1           0       -1.896532   -3.540366    0.000000
     10         17           0       -2.059325    2.679862    0.000000
     11          1           0        0.646177    1.139778    0.000000
 ---------------------------------------------------------------------
                    Distance matrix (angstroms):
                    1          2          3          4          5
     1  C    0.000000
     2  C    1.398151   0.000000
     3  C    2.417703   1.399339   0.000000
     4  C    2.796989   2.428070   1.399339   0.000000
     5  C    2.416861   2.796988   2.417706   1.398158   0.000000
     6  C    1.388815   2.410631   2.778504   2.410632   1.388809
     7  H    1.677142   2.668286   3.962804   4.474113   3.956156
     8  Cl   4.545253   4.038232   2.734433   1.748264   2.733062
     9  H    3.956144   4.474095   3.962788   2.668272   1.677126
    10  Cl   2.733062   1.748268   2.734432   4.038232   4.545256
    11  H    3.958795   2.664373   1.675813   2.664371   3.958799
                    6          7          8          9         10
     6  C    0.000000
     7  H    2.660970   0.000000
     8  Cl   4.022661   6.222372   0.000000
     9  H    2.660954   5.311993   3.119016   0.000000
    10  Cl   4.022667   3.119032   5.457371   6.222358   0.000000
    11  H    4.454317   5.326282   3.113137   5.326267   3.113133
                   11
    11  H    0.000000
 Stoichiometry    C6H3Cl2(2)
 Framework group  CS[SG(C6H3Cl2)]
 Deg. of freedom    19
 Full point group                 CS      NOp   2
 Largest Abelian subgroup         CS      NOp   2
 Largest concise Abelian subgroup C1      NOp   1
                         Standard orientation:                         
 ---------------------------------------------------------------------
 Center     Atomic      Atomic             Coordinates (Angstroms)
 Number     Number       Type             X           Y           Z
 ---------------------------------------------------------------------
      1          6           0        1.208432    1.431952   -0.000000
      2          6           0        1.214035    0.033812   -0.000000
      3          6           0        0.000000   -0.662083    0.000000
      4          6           0       -1.214035    0.033810    0.000000
      5          6           0       -1.208429    1.431957    0.000000
      6          6           0       -0.000001    2.116421   -0.000000
      7          1           0        2.656003    2.278913   -0.000000
      8         17           0       -2.728686   -0.839265    0.000000
      9          1           0       -2.655990    2.278904    0.000000
     10         17           0        2.728685   -0.839272   -0.000000
     11          1           0       -0.000001   -2.337896    0.000000
 ---------------------------------------------------------------------
 Rotational constants (GHZ):           2.9147286           0.8348177           0.6489497
 Standard basis: VSTO-6G (5D, 7F)
 There are    27 symmetry adapted cartesian basis functions of A'  symmetry.
 There are     8 symmetry adapted cartesian basis functions of A"  symmetry.
 There are    27 symmetry adapted basis functions of A'  symmetry.
 There are     8 symmetry adapted basis functions of A"  symmetry.
    35 basis functions,   210 primitive gaussians,    35 cartesian basis functions
    21 alpha electrons       20 beta electrons
       nuclear repulsion energy       192.1932781486 Hartrees.
 Integral buffers will be    131072 words long.
 Regular integral format.
 Two-electron integral symmetry is turned off.
 Do NDO integrals.
 One-electron integrals computed using PRISM.
 NBasis=    35 RedAO= T EigKep=  1.00D+00  NBF=    27     8
 NBsUse=    35 1.00D-06 EigRej= -1.00D+00 NBFU=    27     8
 Initial guess from the checkpoint file:  "geometry_chks/_35ClBzNeutralRadical.chk"
 B after Tr=    -0.000000    0.000000   -0.000000
         Rot=    0.866025    0.000000   -0.000000   -0.500001 Ang= -60.00 deg.
 Initial guess orbital symmetries:
 Alpha Orbitals:
       Occupied  (A') (A') (A') (A') (A') (A') (A') (A') (A') (A')
                 (A") (A") (A') (A') (A") (A') (A') (A') (A') (A")
                 (A")
       Virtual   (A') (A') (A') (A") (A") (A') (A') (A") (A') (A')
                 (A') (A') (A') (A')
 Beta  Orbitals:
       Occupied  (A') (A') (A') (A') (A') (A') (A') (A') (A') (A')
                 (A") (A') (A") (A') (A") (A') (A') (A') (A") (A")
       Virtual   (A') (A") (A') (A") (A') (A') (A') (A') (A") (A')
                 (A') (A') (A') (A') (A')
 Initial guess <Sx>= 0.0000 <Sy>= 0.0000 <Sz>= 0.5000 <S**2>= 2.0889 S= 1.0294
 Keep J ints in memory in canonical form, NReq=862793.
 Overlap will be assumed to be unity.
 Requested convergence on RMS density matrix=1.00D-08 within  32 cycles.
 Requested convergence on MAX density matrix=1.00D-06.
 Requested convergence on             energy=1.00D-06.
 No special actions if energy rises.
 Fock symm off for IB=2 I1=    1 I=   28 J=   18 Cut=1.00D-07 Err=5.49D-03
 Fock matrix is not symmetric: symmetry in diagonalization turned off.
 SCF Done:  E(UAM1) =  0.401443855853     A.U. after   20 cycles
            NFock= 19  Conv=0.61D-08     -V/T= 1.0045
 <Sx>= 0.0000 <Sy>= 0.0000 <Sz>= 0.5000 <S**2>= 1.4975 S= 0.8219
 <L.S>=  0.00000000000    
 Annihilation of the first spin contaminant:
 S**2 before annihilation     1.4975,   after     1.4320
 QCSCF skips out because SCF is already converged.
 Calling FoFJK, ICntrl=      2127 FMM=F ISym2X=1 I1Cent= 0 IOpClX= 1 NMat=1 NMatS=1 NMatT=0.
 ***** Axes restored to original set *****
 -------------------------------------------------------------------
 Center     Atomic                   Forces (Hartrees/Bohr)
 Number     Number              X              Y              Z
 -------------------------------------------------------------------
      1        6          -0.101366965    0.027976328    0.000000000
      2        6           0.001383935    0.024776654    0.000000000
      3        6           0.082180839    0.050504538   -0.000000000
      4        6           0.022724799   -0.009957623    0.000000000
      5        6          -0.020819444   -0.103075940    0.000000000
      6        6           0.041215471    0.025334596   -0.000000000
      7        1           0.102046434   -0.054270540   -0.000000000
      8       17          -0.026494014    0.014361281    0.000000000
      9        1          -0.002324768    0.115558722   -0.000000000
     10       17           0.000845087   -0.030125261    0.000000000
     11        1          -0.099391374   -0.061082754   -0.000000000
 -------------------------------------------------------------------
 Cartesian Forces:  Max     0.115558722 RMS     0.048347392

 GradGradGradGradGradGradGradGradGradGradGradGradGradGradGradGradGradGrad
 Berny optimization.
 Using GEDIIS/GDIIS optimizer.
 FormGI is forming the generalized inverse of G from B-inverse, IUseBI=4.
 Internal  Forces:  Max     0.116660825 RMS     0.030980645
 Search for a local minimum.
 Step number   2 out of a maximum of   57
 All quantities printed in internal units (Hartrees-Bohrs-Radians)
 Mixed Optimization -- RFO/linear search
 Update second derivatives using D2CorX and points    1    2
 DE= -6.12D-02 DEPred=-5.40D-02 R= 1.13D+00
 TightC=F SS=  1.41D+00  RLast= 3.00D-01 DXNew= 5.0454D-01 9.0000D-01
 Trust test= 1.13D+00 RLast= 3.00D-01 DXMaxT set to 5.05D-01
 ITU=  1  0
 Use linear search instead of GDIIS.
     Eigenvalues ---   -0.19204   0.02011   0.02011   0.02011   0.02011
     Eigenvalues ---    0.02011   0.02011   0.02011   0.02011   0.06516
     Eigenvalues ---    0.06524   0.10151   0.16000   0.16000   0.16000
     Eigenvalues ---    0.23117   0.23470   0.23792   0.25000   0.25002
     Eigenvalues ---    0.29033   0.32452   0.40961   0.41675   0.44623
     Eigenvalues ---    0.44656   0.44657
 RFO step:  Lambda=-2.88789309D-01 EMin=-1.92043617D-01
 Skip linear search -- no minimum in search direction.
 Maximum step size (   0.505) exceeded in Quadratic search.
    -- Step size scaled by   0.471
 Iteration  1 RMS(Cart)=  0.04372880 RMS(Int)=  0.02223554
 Iteration  2 RMS(Cart)=  0.02222829 RMS(Int)=  0.00000956
 Iteration  3 RMS(Cart)=  0.00000025 RMS(Int)=  0.00000956
 ClnCor:  largest displacement from symmetrization is 9.46D-09 for atom     1.
 Variable       Old X    -DE/DX   Delta X   Delta X   Delta X     New X
                                 (Linear)    (Quad)   (Total)
    R1        2.64212  -0.01100   0.00000   0.02912   0.02912   2.67125
    R2        2.62448  -0.03143   0.00000   0.03183   0.03185   2.65633
    R3        3.16934  -0.11558   0.00000  -0.28820  -0.28820   2.88114
    R4        2.64437  -0.01029   0.00000   0.02266   0.02264   2.66701
    R5        3.30375  -0.03014   0.00000  -0.00246  -0.00246   3.30129
    R6        2.64437  -0.01029   0.00000   0.02266   0.02264   2.66701
    R7        3.16683  -0.11666   0.00000  -0.28763  -0.28763   2.87920
    R8        2.64214  -0.01100   0.00000   0.02912   0.02912   2.67126
    R9        3.30374  -0.03014   0.00000  -0.00246  -0.00246   3.30128
   R10        2.62447  -0.03142   0.00000   0.03183   0.03185   2.65631
   R11        3.16931  -0.11558   0.00000  -0.28820  -0.28820   2.88111
    A1        2.09016  -0.00533   0.00000  -0.01419  -0.01418   2.07598
    A2        2.09617   0.00238   0.00000   0.00667   0.00666   2.10283
    A3        2.09685   0.00295   0.00000   0.00753   0.00752   2.10437
    A4        2.08728  -0.00582   0.00000   0.00408   0.00407   2.09134
    A5        2.09771   0.00290   0.00000  -0.00094  -0.00093   2.09678
    A6        2.09820   0.00291   0.00000  -0.00315  -0.00314   2.09506
    A7        2.10062   0.00431   0.00000   0.00398   0.00395   2.10457
    A8        2.09128  -0.00216   0.00000  -0.00199  -0.00198   2.08931
    A9        2.09128  -0.00216   0.00000  -0.00199  -0.00198   2.08931
   A10        2.08727  -0.00582   0.00000   0.00408   0.00407   2.09134
   A11        2.09821   0.00291   0.00000  -0.00315  -0.00314   2.09507
   A12        2.09771   0.00290   0.00000  -0.00094  -0.00093   2.09678
   A13        2.09016  -0.00533   0.00000  -0.01420  -0.01418   2.07598
   A14        2.09617   0.00238   0.00000   0.00667   0.00666   2.10283
   A15        2.09686   0.00295   0.00000   0.00753   0.00752   2.10438
   A16        2.11088   0.01797   0.00000   0.01624   0.01628   2.12716
    D1        0.00000  -0.00000   0.00000  -0.00000   0.00000   0.00000
    D2        3.14159  -0.00000   0.00000  -0.00000   0.00000   3.14159
    D3        3.14159   0.00000   0.00000   0.00000   0.00000   3.14159
    D4       -0.00000   0.00000   0.00000  -0.00000   0.00000   0.00000
    D5       -0.00000   0.00000   0.00000   0.00000   0.00000   0.00000
    D6        3.14159  -0.00000   0.00000   0.00000   0.00000   3.14159
    D7       -0.00000  -0.00000   0.00000  -0.00000   0.00000   0.00000
    D8        3.14159  -0.00000   0.00000   0.00000   0.00000   3.14159
    D9        3.14159   0.00000   0.00000  -0.00000   0.00000   3.14159
   D10        0.00000  -0.00000   0.00000   0.00000   0.00000   0.00000
   D11        0.00000   0.00000   0.00000   0.00000  -0.00000   0.00000
   D12        3.14159   0.00000   0.00000   0.00000   0.00000   3.14159
   D13        3.14159   0.00000   0.00000   0.00000   0.00000   3.14159
   D14        0.00000   0.00000   0.00000   0.00000  -0.00000   0.00000
   D15       -0.00000  -0.00000   0.00000  -0.00000   0.00000   0.00000
   D16        3.14159  -0.00000   0.00000   0.00000   0.00000   3.14159
   D17        3.14159   0.00000   0.00000  -0.00000   0.00000   3.14159
   D18        0.00000  -0.00000   0.00000   0.00000  -0.00000   0.00000
   D19        0.00000  -0.00000   0.00000  -0.00000   0.00000   0.00000
   D20        3.14159  -0.00000   0.00000  -0.00000   0.00000   3.14159
         Item               Value     Threshold  Converged?
 Maximum Force            0.116661     0.000450     NO 
 RMS     Force            0.030981     0.000300     NO 
 Maximum Displacement     0.245068     0.001800     NO 
 RMS     Displacement     0.065345     0.001200     NO 
 Predicted change in Energy=-1.172850D-01
 GradGradGradGradGradGradGradGradGradGradGradGradGradGradGradGradGradGrad

                          Input orientation:                          
 ---------------------------------------------------------------------
 Center     Atomic      Atomic             Coordinates (Angstroms)
 Number     Number       Type             X           Y           Z
 ---------------------------------------------------------------------
      1          6           0       -3.217905    0.207215   -0.000000
      2          6           0       -2.012091    0.944894   -0.000000
      3          6           0       -0.774367    0.266756   -0.000000
      4          6           0       -0.728431   -1.143818    0.000000
      5          6           0       -1.931239   -1.886402    0.000000
      6          6           0       -3.156290   -1.197101    0.000000
      7          1           0       -4.563331    0.924384   -0.000000
      8         17           0        0.811558   -1.968630    0.000000
      9          1           0       -1.899127   -3.410682    0.000000
     10         17           0       -2.052344    2.691397   -0.000000
     11          1           0        0.523697    1.064507   -0.000000
 ---------------------------------------------------------------------
                    Distance matrix (angstroms):
                    1          2          3          4          5
     1  C    0.000000
     2  C    1.413562   0.000000
     3  C    2.444263   1.411322   0.000000
     4  C    2.832449   2.451632   1.411322   0.000000
     5  C    2.457385   2.832450   2.444267   1.413569   0.000000
     6  C    1.405667   2.428443   2.795789   2.428443   1.405661
     7  H    1.524631   2.551322   3.845610   4.357053   3.850769
     8  Cl   4.579397   4.057292   2.740824   1.746964   2.744030
     9  H    3.850760   4.357041   3.845600   2.551313   1.524619
    10  Cl   2.744029   1.746967   2.740822   4.057292   4.579400
    11  H    3.838559   2.538608   1.523606   2.538607   3.838564
                    6          7          8          9         10
     6  C    0.000000
     7  H    2.545675   0.000000
     8  Cl   4.042162   6.104012   0.000000
     9  H    2.545663   5.088298   3.070395   0.000000
    10  Cl   4.042167   3.070406   5.469716   6.104003   0.000000
    11  H    4.319395   5.088958   3.046766   5.088948   3.046763
                   11
    11  H    0.000000
 Stoichiometry    C6H3Cl2(2)
 Framework group  CS[SG(C6H3Cl2)]
 Deg. of freedom    19
 Full point group                 CS      NOp   2
 Largest Abelian subgroup         CS      NOp   2
 Largest concise Abelian subgroup C1      NOp   1
                         Standard orientation:                         
 ---------------------------------------------------------------------
 Center     Atomic      Atomic             Coordinates (Angstroms)
 Number     Number       Type             X           Y           Z
 ---------------------------------------------------------------------
      1          6           0        1.228694    1.446923    0.000000
      2          6           0        1.225816    0.033364    0.000000
      3          6           0        0.000000   -0.666069    0.000000
      4          6           0       -1.225816    0.033364    0.000000
      5          6           0       -1.228691    1.446930    0.000000
      6          6           0        0.000000    2.129720    0.000000
      7          1           0        2.544155    2.217678    0.000000
      8         17           0       -2.734859   -0.846792    0.000000
      9          1           0       -2.544143    2.217675    0.000000
     10         17           0        2.734857   -0.846800    0.000000
     11          1           0       -0.000001   -2.189675    0.000000
 ---------------------------------------------------------------------
 Rotational constants (GHZ):           2.8909012           0.8306176           0.6452294
 Standard basis: VSTO-6G (5D, 7F)
 There are    27 symmetry adapted cartesian basis functions of A'  symmetry.
 There are     8 symmetry adapted cartesian basis functions of A"  symmetry.
 There are    27 symmetry adapted basis functions of A'  symmetry.
 There are     8 symmetry adapted basis functions of A"  symmetry.
    35 basis functions,   210 primitive gaussians,    35 cartesian basis functions
    21 alpha electrons       20 beta electrons
       nuclear repulsion energy       192.2144659635 Hartrees.
 Integral buffers will be    131072 words long.
 Regular integral format.
 Two-electron integral symmetry is turned off.
 Do NDO integrals.
 One-electron integrals computed using PRISM.
 NBasis=    35 RedAO= T EigKep=  1.00D+00  NBF=    27     8
 NBsUse=    35 1.00D-06 EigRej= -1.00D+00 NBFU=    27     8
 Initial guess from the checkpoint file:  "geometry_chks/_35ClBzNeutralRadical.chk"
 B after Tr=     0.000000   -0.000000    0.000000
         Rot=    1.000000   -0.000000    0.000000    0.000000 Ang=   0.00 deg.
 Initial guess orbital symmetries:
 Alpha Orbitals:
       Occupied  (A') (A') (A') (A') (A') (A') (A') (A') (A') (A')
                 (A") (A') (A") (A') (A") (A') (A') (A') (A') (A")
                 (A")
       Virtual   (A') (A") (A") (A') (A') (A') (A') (A") (A') (A')
                 (A') (A') (A') (A')
 Beta  Orbitals:
       Occupied  (A') (A') (A') (A') (A') (A') (A') (A') (A') (A')
                 (A") (A') (A") (A') (A") (A') (A') (A') (A") (A")
       Virtual   (A') (A") (A') (A") (A') (A') (A') (A') (A") (A')
                 (A') (A') (A') (A') (A')
 Initial guess <Sx>= 0.0000 <Sy>= 0.0000 <Sz>= 0.5000 <S**2>= 1.4975 S= 0.8219
 Keep J ints in memory in canonical form, NReq=862793.
 Overlap will be assumed to be unity.
 Requested convergence on RMS density matrix=1.00D-08 within  32 cycles.
 Requested convergence on MAX density matrix=1.00D-06.
 Requested convergence on             energy=1.00D-06.
 No special actions if energy rises.
 Fock symm off for IB=2 I1=    1 I=   28 J=   18 Cut=1.00D-07 Err=7.53D-03
 Fock matrix is not symmetric: symmetry in diagonalization turned off.
 SCF Done:  E(UAM1) =  0.301845348283     A.U. after   18 cycles
            NFock= 17  Conv=0.49D-08     -V/T= 1.0033
 <Sx>= 0.0000 <Sy>= 0.0000 <Sz>= 0.5000 <S**2>= 1.3729 S= 0.7739
 <L.S>=  0.00000000000    
 Annihilation of the first spin contaminant:
 S**2 before annihilation     1.3729,   after     1.1219
 QCSCF skips out because SCF is already converged.
 Calling FoFJK, ICntrl=      2127 FMM=F ISym2X=1 I1Cent= 0 IOpClX= 1 NMat=1 NMatS=1 NMatT=0.
 ***** Axes restored to original set *****
 -------------------------------------------------------------------
 Center     Atomic                   Forces (Hartrees/Bohr)
 Number     Number              X              Y              Z
 -------------------------------------------------------------------
      1        6          -0.090630865    0.023381528    0.000000000
      2        6          -0.000457654    0.005416931    0.000000000
      3        6           0.076470751    0.046994768   -0.000000000
      4        6           0.004621449   -0.002855588    0.000000000
      5        6          -0.020070379   -0.091418686    0.000000000
      6        6           0.055204893    0.033930929   -0.000000000
      7        1           0.106213831   -0.056519906   -0.000000000
      8       17          -0.027596866    0.014597032   -0.000000000
      9        1          -0.002449053    0.120290333   -0.000000000
     10       17           0.000557288   -0.031215322   -0.000000000
     11        1          -0.101863393   -0.062602020   -0.000000000
 -------------------------------------------------------------------
 Cartesian Forces:  Max     0.120290333 RMS     0.047683061

 GradGradGradGradGradGradGradGradGradGradGradGradGradGradGradGradGradGrad
 Berny optimization.
 Using GEDIIS/GDIIS optimizer.
 FormGI is forming the generalized inverse of G from B-inverse, IUseBI=4.
 Internal  Forces:  Max     0.120315712 RMS     0.033670813
 Search for a local minimum.
 Step number   3 out of a maximum of   57
 All quantities printed in internal units (Hartrees-Bohrs-Radians)
 Mixed Optimization -- RFO/linear search
 Update second derivatives using D2CorX and points    2    3
 DE= -9.96D-02 DEPred=-1.17D-01 R= 8.49D-01
 TightC=F SS=  1.41D+00  RLast= 5.05D-01 DXNew= 8.4853D-01 1.5136D+00
 Trust test= 8.49D-01 RLast= 5.05D-01 DXMaxT set to 8.49D-01
 ITU=  1  1  0
 Use linear search instead of GDIIS.
     Eigenvalues ---   -1.94768   0.00029   0.02011   0.02011   0.02011
     Eigenvalues ---    0.02011   0.02011   0.02011   0.02011   0.02011
     Eigenvalues ---    0.06523   0.06524   0.15998   0.16000   0.16000
     Eigenvalues ---    0.21287   0.23131   0.23482   0.25000   0.25002
     Eigenvalues ---    0.27018   0.29033   0.40125   0.41055   0.44419
     Eigenvalues ---    0.44656   0.44657
 RFO step:  Lambda=-1.95538280D+00 EMin=-1.94768312D+00
 I=     1 Eig=   -1.95D+00 Dot1=  7.33D-02
 I=     1 Stepn=  6.00D-01 RXN=   6.00D-01 EDone=F
 Mixed    1 eigenvectors in step.  Raw Step.Grad=  7.33D-02.
 RFO eigenvector is Hessian eigenvector with negative curvature.
 Taking step of  6.00D-01 in eigenvector direction(s).  Step.Grad= -1.66D-02.
 Skip linear search -- no minimum in search direction.
 Iteration  1 RMS(Cart)=  0.10900994 RMS(Int)=  0.01468596
 Iteration  2 RMS(Cart)=  0.01951324 RMS(Int)=  0.00017680
 Iteration  3 RMS(Cart)=  0.00007464 RMS(Int)=  0.00016675
 Iteration  4 RMS(Cart)=  0.00000001 RMS(Int)=  0.00016675
 ClnCor:  largest displacement from symmetrization is 4.80D-10 for atom     7.
 Variable       Old X    -DE/DX   Delta X   Delta X   Delta X     New X
                                 (Linear)    (Quad)   (Total)
    R1        2.67125  -0.02832   0.00000  -0.24398  -0.24398   2.42727
    R2        2.65633  -0.04853   0.00000  -0.25474  -0.25450   2.40183
    R3        2.88114  -0.12032   0.00000  -0.07005  -0.07005   2.81109
    R4        2.66701  -0.02554   0.00000  -0.21395  -0.21419   2.45282
    R5        3.30129  -0.03122   0.00000  -0.03206  -0.03206   3.26923
    R6        2.66701  -0.02555   0.00000  -0.21396  -0.21420   2.45281
    R7        2.87920  -0.11956   0.00000  -0.04214  -0.04214   2.83705
    R8        2.67126  -0.02833   0.00000  -0.24398  -0.24398   2.42728
    R9        3.30128  -0.03122   0.00000  -0.03206  -0.03206   3.26922
   R10        2.65631  -0.04853   0.00000  -0.25475  -0.25450   2.40181
   R11        2.88111  -0.12032   0.00000  -0.07001  -0.07001   2.81110
    A1        2.07598  -0.00571   0.00000  -0.00458  -0.00439   2.07159
    A2        2.10283   0.00273   0.00000   0.00468   0.00458   2.10741
    A3        2.10437   0.00298   0.00000  -0.00009  -0.00019   2.10418
    A4        2.09134  -0.00370   0.00000   0.02573   0.02547   2.11682
    A5        2.09678   0.00158   0.00000  -0.01691  -0.01678   2.08000
    A6        2.09506   0.00212   0.00000  -0.00882  -0.00869   2.08637
    A7        2.10457   0.00071   0.00000  -0.05011  -0.05061   2.05397
    A8        2.08931  -0.00035   0.00000   0.02506   0.02530   2.11461
    A9        2.08931  -0.00035   0.00000   0.02505   0.02530   2.11461
   A10        2.09134  -0.00370   0.00000   0.02573   0.02547   2.11681
   A11        2.09507   0.00212   0.00000  -0.00882  -0.00869   2.08638
   A12        2.09678   0.00158   0.00000  -0.01691  -0.01678   2.08000
   A13        2.07598  -0.00571   0.00000  -0.00458  -0.00438   2.07160
   A14        2.10283   0.00273   0.00000   0.00467   0.00457   2.10740
   A15        2.10438   0.00298   0.00000  -0.00010  -0.00020   2.10418
   A16        2.12716   0.01813   0.00000   0.00780   0.00842   2.13559
    D1        0.00000   0.00000   0.00000   0.00000   0.00000   0.00000
    D2        3.14159  -0.00000   0.00000  -0.00000   0.00000   3.14159
    D3        3.14159   0.00000   0.00000   0.00000   0.00000   3.14159
    D4        0.00000   0.00000   0.00000   0.00000   0.00000   0.00000
    D5        0.00000   0.00000   0.00000  -0.00000   0.00000   0.00000
    D6        3.14159  -0.00000   0.00000  -0.00000   0.00000   3.14159
    D7        0.00000  -0.00000   0.00000  -0.00000   0.00000   0.00000
    D8        3.14159  -0.00000   0.00000  -0.00000   0.00000   3.14159
    D9        3.14159   0.00000   0.00000   0.00000   0.00000   3.14159
   D10        0.00000   0.00000   0.00000   0.00000   0.00000   0.00000
   D11        0.00000   0.00000   0.00000  -0.00000   0.00000   0.00000
   D12        3.14159  -0.00000   0.00000  -0.00000   0.00000   3.14159
   D13        3.14159   0.00000   0.00000   0.00000   0.00000   3.14159
   D14        0.00000   0.00000   0.00000  -0.00000   0.00000   0.00000
   D15        0.00000  -0.00000   0.00000   0.00000   0.00000   0.00000
   D16        3.14159  -0.00000   0.00000  -0.00000   0.00000   3.14159
   D17        3.14159   0.00000   0.00000   0.00000   0.00000   3.14159
   D18        0.00000  -0.00000   0.00000  -0.00000   0.00000   0.00000
   D19        0.00000  -0.00000   0.00000   0.00000   0.00000   0.00000
   D20        3.14159   0.00000   0.00000   0.00000   0.00000   3.14159
         Item               Value     Threshold  Converged?
 Maximum Force            0.120316     0.000450     NO 
 RMS     Force            0.033671     0.000300     NO 
 Maximum Displacement     0.329186     0.001800     NO 
 RMS     Displacement     0.126778     0.001200     NO 
 Predicted change in Energy=-4.238289D-01
 GradGradGradGradGradGradGradGradGradGradGradGradGradGradGradGradGradGrad

                          Input orientation:                          
 ---------------------------------------------------------------------
 Center     Atomic      Atomic             Coordinates (Angstroms)
 Number     Number       Type             X           Y           Z
 ---------------------------------------------------------------------
      1          6           0       -3.093856    0.148322   -0.000000
      2          6           0       -1.998059    0.818438   -0.000000
      3          6           0       -0.844324    0.223763   -0.000000
      4          6           0       -0.834914   -1.074175   -0.000000
      5          6           0       -1.927750   -1.749120   -0.000000
      6          6           0       -3.032793   -1.121204   -0.000000
      7          1           0       -4.409642    0.842264   -0.000000
      8         17           0        0.676339   -1.916197   -0.000000
      9          1           0       -1.902969   -3.236484   -0.000000
     10         17           0       -2.066643    2.547080   -0.000000
     11          1           0        0.434741    1.009834   -0.000000
 ---------------------------------------------------------------------
                    Distance matrix (angstroms):
                    1          2          3          4          5
     1  C    0.000000
     2  C    1.284456   0.000000
     3  C    2.250796   1.297976   0.000000
     4  C    2.568524   2.221461   1.297971   0.000000
     5  C    2.227126   2.568520   2.250795   1.284461   0.000000
     6  C    1.270994   2.198383   2.568722   2.198382   1.270984
     7  H    1.487565   2.411701   3.618568   4.056035   3.588184
     8  Cl   4.298443   3.825001   2.625232   1.729996   2.609443
     9  H    3.588193   4.056037   3.618569   2.411706   1.487571
    10  Cl   2.609445   1.730002   2.625236   3.825002   4.298444
    11  H    3.632244   2.440316   1.501305   2.440311   3.632243
                    6          7          8          9         10
     6  C    0.000000
     7  H    2.398108   0.000000
     8  Cl   3.793372   5.785872   0.000000
     9  H    2.398106   4.787441   2.897583   0.000000
    10  Cl   3.793383   2.897593   5.238778   5.785880   0.000000
    11  H    4.070026   4.847280   2.935989   4.847279   2.935991
                   11
    11  H    0.000000
 Stoichiometry    C6H3Cl2(2)
 Framework group  CS[SG(C6H3Cl2)]
 Deg. of freedom    19
 Full point group                 CS      NOp   2
 Largest Abelian subgroup         CS      NOp   2
 Largest concise Abelian subgroup C1      NOp   1
                         Standard orientation:                         
 ---------------------------------------------------------------------
 Center     Atomic      Atomic             Coordinates (Angstroms)
 Number     Number       Type             X           Y           Z
 ---------------------------------------------------------------------
      1          6           0        1.113562    1.340737    0.000000
      2          6           0        1.110730    0.056285    0.000000
      3          6           0       -0.000000   -0.615295   -0.000000
      4          6           0       -1.110730    0.056276    0.000000
      5          6           0       -1.113564    1.340734    0.000000
      6          6           0       -0.000008    1.953426    0.000000
      7          1           0        2.393713    2.098406    0.000000
      8         17           0       -2.619386   -0.790390   -0.000000
      9          1           0       -2.393729    2.098393    0.000000
     10         17           0        2.619391   -0.790385   -0.000000
     11          1           0        0.000003   -2.116600   -0.000000
 ---------------------------------------------------------------------
 Rotational constants (GHZ):           3.3570272           0.9175767           0.7206118
 Standard basis: VSTO-6G (5D, 7F)
 There are    27 symmetry adapted cartesian basis functions of A'  symmetry.
 There are     8 symmetry adapted cartesian basis functions of A"  symmetry.
 There are    27 symmetry adapted basis functions of A'  symmetry.
 There are     8 symmetry adapted basis functions of A"  symmetry.
    35 basis functions,   210 primitive gaussians,    35 cartesian basis functions
    21 alpha electrons       20 beta electrons
       nuclear repulsion energy       199.7139538111 Hartrees.
 Integral buffers will be    131072 words long.
 Regular integral format.
 Two-electron integral symmetry is turned off.
 Do NDO integrals.
 One-electron integrals computed using PRISM.
 NBasis=    35 RedAO= T EigKep=  1.00D+00  NBF=    27     8
 NBsUse=    35 1.00D-06 EigRej= -1.00D+00 NBFU=    27     8
 Initial guess from the checkpoint file:  "geometry_chks/_35ClBzNeutralRadical.chk"
 B after Tr=    -0.000000    0.000000    0.000000
         Rot=    1.000000   -0.000000   -0.000000   -0.000002 Ang=  -0.00 deg.
 Initial guess orbital symmetries:
 Alpha Orbitals:
       Occupied  (A') (A') (A') (A') (A') (A') (A') (A') (A') (A')
                 (A") (A') (A") (A') (A') (A") (A') (A') (A') (A")
                 (A")
       Virtual   (A") (A") (A') (A') (A') (A') (A') (A") (A') (A')
                 (A') (A') (A') (A')
 Beta  Orbitals:
       Occupied  (A') (A') (A') (A') (A') (A') (A') (A') (A') (A')
                 (A') (A") (A") (A') (A') (A') (A") (A') (A") (A")
       Virtual   (A') (A") (A") (A') (A') (A') (A') (A') (A") (A')
                 (A') (A') (A') (A') (A')
 Initial guess <Sx>= 0.0000 <Sy>= 0.0000 <Sz>= 0.5000 <S**2>= 1.3729 S= 0.7739
 Keep J ints in memory in canonical form, NReq=862793.
 Overlap will be assumed to be unity.
 Requested convergence on RMS density matrix=1.00D-08 within  32 cycles.
 Requested convergence on MAX density matrix=1.00D-06.
 Requested convergence on             energy=1.00D-06.
 No special actions if energy rises.
 Fock symm off for IB=2 I1=    1 I=   28 J=    4 Cut=1.00D-07 Err=2.24D-03
 Fock matrix is not symmetric: symmetry in diagonalization turned off.
 SCF Done:  E(UAM1) =  0.374799921077     A.U. after   20 cycles
            NFock= 19  Conv=0.29D-08     -V/T= 1.0041
 <Sx>= 0.0000 <Sy>= 0.0000 <Sz>= 0.5000 <S**2>= 0.8381 S= 0.5431
 <L.S>=  0.00000000000    
 Annihilation of the first spin contaminant:
 S**2 before annihilation     0.8381,   after     0.7561
 QCSCF skips out because SCF is already converged.
 Calling FoFJK, ICntrl=      2127 FMM=F ISym2X=1 I1Cent= 0 IOpClX= 1 NMat=1 NMatS=1 NMatT=0.
 ***** Axes restored to original set *****
 -------------------------------------------------------------------
 Center     Atomic                   Forces (Hartrees/Bohr)
 Number     Number              X              Y              Z
 -------------------------------------------------------------------
      1        6          -0.288526235    0.124384617    0.000000000
      2        6           0.014719307    0.214428791   -0.000000000
      3        6           0.233372153    0.143427585    0.000000000
      4        6           0.197948953   -0.083731756   -0.000000000
      5        6          -0.019338281   -0.313602918    0.000000000
      6        6          -0.138165685   -0.084898175    0.000000000
      7        1           0.098167350   -0.052003705    0.000000000
      8       17           0.000754942    0.000590306    0.000000000
      9        1          -0.002054576    0.111072083   -0.000000000
     10       17           0.000867680    0.000404238    0.000000000
     11        1          -0.097745608   -0.060071067   -0.000000000
 -------------------------------------------------------------------
 Cartesian Forces:  Max     0.313602918 RMS     0.114018784

 GradGradGradGradGradGradGradGradGradGradGradGradGradGradGradGradGradGrad
 Berny optimization.
 Using GEDIIS/GDIIS optimizer.
 FormGI is forming the generalized inverse of G from B-inverse, IUseBI=4.
 Internal  Forces:  Max     0.205350474 RMS     0.074594855
 Search for a local minimum.
 Step number   4 out of a maximum of   57
 All quantities printed in internal units (Hartrees-Bohrs-Radians)
 Mixed Optimization -- RFO/linear search
 Update second derivatives using D2CorX and points    2    4    3
 ITU=  0  1  1  0
 Use linear search instead of GDIIS.
     Eigenvalues ---    0.00028   0.02011   0.02011   0.02011   0.02011
     Eigenvalues ---    0.02011   0.02011   0.02011   0.02011   0.06516
     Eigenvalues ---    0.06524   0.15996   0.16000   0.16000   0.21203
     Eigenvalues ---    0.23132   0.23477   0.25000   0.25000   0.26981
     Eigenvalues ---    0.29033   0.39553   0.40388   0.44413   0.44656
     Eigenvalues ---    0.44657   0.94715
 RFO could not converge Lambda in  999 iterations.
 Quartic linear search produced a step of -0.70986.
 Iteration  1 RMS(Cart)=  0.09005266 RMS(Int)=  0.00048937
 Iteration  2 RMS(Cart)=  0.00046447 RMS(Int)=  0.00003531
 Iteration  3 RMS(Cart)=  0.00000036 RMS(Int)=  0.00003531
 ClnCor:  largest displacement from symmetrization is 1.16D-10 for atom    11.
 Variable       Old X    -DE/DX   Delta X   Delta X   Delta X     New X
                                 (Linear)    (Quad)   (Total)
    R1        2.42727   0.20535   0.17319   0.00000   0.17319   2.60046
    R2        2.40183   0.18439   0.18066   0.00000   0.18061   2.58244
    R3        2.81109  -0.11109   0.04972   0.00000   0.04972   2.86081
    R4        2.45282   0.18697   0.15205   0.00000   0.15210   2.60491
    R5        3.26923   0.00037   0.02276   0.00000   0.02276   3.29199
    R6        2.45281   0.18697   0.15205   0.00000   0.15210   2.60491
    R7        2.83705  -0.11473   0.02992   0.00000   0.02992   2.86697
    R8        2.42728   0.20534   0.17319   0.00000   0.17319   2.60047
    R9        3.26922   0.00037   0.02276   0.00000   0.02276   3.29198
   R10        2.40181   0.18440   0.18066   0.00000   0.18061   2.58242
   R11        2.81110  -0.11109   0.04970   0.00000   0.04970   2.86080
    A1        2.07159  -0.00517   0.00311   0.00000   0.00307   2.07466
    A2        2.10741   0.00287  -0.00325   0.00000  -0.00323   2.10418
    A3        2.10418   0.00230   0.00014   0.00000   0.00016   2.10434
    A4        2.11682  -0.01243  -0.01808   0.00000  -0.01803   2.09879
    A5        2.08000   0.00766   0.01191   0.00000   0.01189   2.09188
    A6        2.08637   0.00477   0.00617   0.00000   0.00614   2.09251
    A7        2.05397   0.02129   0.03592   0.00000   0.03603   2.08999
    A8        2.11461  -0.01064  -0.01796   0.00000  -0.01801   2.09660
    A9        2.11461  -0.01064  -0.01796   0.00000  -0.01801   2.09659
   A10        2.11681  -0.01243  -0.01808   0.00000  -0.01803   2.09879
   A11        2.08638   0.00477   0.00617   0.00000   0.00614   2.09252
   A12        2.08000   0.00766   0.01191   0.00000   0.01189   2.09188
   A13        2.07160  -0.00518   0.00311   0.00000   0.00307   2.07466
   A14        2.10740   0.00287  -0.00325   0.00000  -0.00323   2.10418
   A15        2.10418   0.00230   0.00014   0.00000   0.00016   2.10434
   A16        2.13559   0.01393  -0.00598   0.00000  -0.00611   2.12947
    D1        0.00000  -0.00000   0.00000   0.00000   0.00000   0.00000
    D2        3.14159   0.00000   0.00000   0.00000   0.00000   3.14159
    D3        3.14159   0.00000   0.00000   0.00000   0.00000   3.14159
    D4       -0.00000   0.00000   0.00000   0.00000   0.00000   0.00000
    D5        0.00000  -0.00000   0.00000   0.00000   0.00000   0.00000
    D6        3.14159  -0.00000   0.00000   0.00000   0.00000   3.14159
    D7       -0.00000   0.00000   0.00000   0.00000   0.00000   0.00000
    D8        3.14159  -0.00000   0.00000   0.00000   0.00000   3.14159
    D9        3.14159   0.00000   0.00000   0.00000   0.00000   3.14159
   D10        0.00000  -0.00000   0.00000   0.00000   0.00000   0.00000
   D11       -0.00000  -0.00000   0.00000   0.00000   0.00000   0.00000
   D12        3.14159   0.00000   0.00000   0.00000   0.00000   3.14159
   D13        3.14159   0.00000   0.00000   0.00000   0.00000   3.14159
   D14        0.00000   0.00000   0.00000   0.00000   0.00000   0.00000
   D15        0.00000   0.00000   0.00000   0.00000  -0.00000   0.00000
   D16        3.14159   0.00000   0.00000   0.00000   0.00000   3.14159
   D17        3.14159  -0.00000   0.00000   0.00000   0.00000   3.14159
   D18       -0.00000  -0.00000   0.00000   0.00000   0.00000   0.00000
   D19       -0.00000   0.00000   0.00000   0.00000   0.00000   0.00000
   D20        3.14159   0.00000   0.00000   0.00000   0.00000   3.14159
         Item               Value     Threshold  Converged?
 Maximum Force            0.205350     0.000450     NO 
 RMS     Force            0.074595     0.000300     NO 
 Maximum Displacement     0.233790     0.001800     NO 
 RMS     Displacement     0.090011     0.001200     NO 
 Predicted change in Energy=-2.589920D-02
 GradGradGradGradGradGradGradGradGradGradGradGradGradGradGradGradGradGrad

                          Input orientation:                          
 ---------------------------------------------------------------------
 Center     Atomic      Atomic             Coordinates (Angstroms)
 Number     Number       Type             X           Y           Z
 ---------------------------------------------------------------------
      1          6           0       -3.182018    0.190054   -0.000000
      2          6           0       -2.008043    0.907999   -0.000000
      3          6           0       -0.794343    0.254480   -0.000000
      4          6           0       -0.759520   -1.123540    0.000000
      5          6           0       -1.930340   -1.846630    0.000000
      6          6           0       -3.120538   -1.175129    0.000000
      7          1           0       -4.518800    0.900572   -0.000000
      8         17           0        0.772214   -1.953297    0.000000
      9          1           0       -1.900256   -3.360201    0.000000
     10         17           0       -2.056436    2.649371   -0.000000
     11          1           0        0.498209    1.048842   -0.000000
 ---------------------------------------------------------------------
                    Distance matrix (angstroms):
                    1          2          3          4          5
     1  C    0.000000
     2  C    1.376103   0.000000
     3  C    2.388544   1.378461   0.000000
     4  C    2.755725   2.384525   1.378460   0.000000
     5  C    2.390560   2.755724   2.388546   1.376109   0.000000
     6  C    1.366567   2.361581   2.730378   2.361581   1.366559
     7  H    1.513877   2.510767   3.780081   4.269568   3.774552
     8  Cl   4.497767   3.989592   2.707098   1.742041   2.704658
     9  H    3.774549   4.269560   3.780074   2.510762   1.513870
    10  Cl   2.704658   1.742045   2.707099   3.989593   4.497769
    11  H    3.779098   2.510207   1.517136   2.510204   3.779101
                    6          7          8          9         10
     6  C    0.000000
     7  H    2.502733   0.000000
     8  Cl   3.969769   6.011605   0.000000
     9  H    2.502724   5.001096   3.020177   0.000000
    10  Cl   3.969775   3.020188   5.402390   6.011601   0.000000
    11  H    4.247514   5.019199   3.014617   5.019192   3.014615
                   11
    11  H    0.000000
 Stoichiometry    C6H3Cl2(2)
 Framework group  CS[SG(C6H3Cl2)]
 Deg. of freedom    19
 Full point group                 CS      NOp   2
 Largest Abelian subgroup         CS      NOp   2
 Largest concise Abelian subgroup C1      NOp   1
                         Standard orientation:                         
 ---------------------------------------------------------------------
 Center     Atomic      Atomic             Coordinates (Angstroms)
 Number     Number       Type             X           Y           Z
 ---------------------------------------------------------------------
      1          6           0        1.195281    1.416212   -0.000000
      2          6           0        1.192263    0.040112   -0.000000
      3          6           0        0.000000   -0.651744    0.000000
      4          6           0       -1.192263    0.040110    0.000000
      5          6           0       -1.195279    1.416216   -0.000000
      6          6           0       -0.000002    2.078634   -0.000000
      7          1           0        2.500550    2.183086   -0.000000
      8         17           0       -2.701195   -0.830425    0.000000
      9          1           0       -2.500546    2.183080    0.000000
     10         17           0        2.701195   -0.830429   -0.000000
     11          1           0        0.000000   -2.168880    0.000000
 ---------------------------------------------------------------------
 Rotational constants (GHZ):           3.0154217           0.8546840           0.6659334
 Standard basis: VSTO-6G (5D, 7F)
 There are    27 symmetry adapted cartesian basis functions of A'  symmetry.
 There are     8 symmetry adapted cartesian basis functions of A"  symmetry.
 There are    27 symmetry adapted basis functions of A'  symmetry.
 There are     8 symmetry adapted basis functions of A"  symmetry.
    35 basis functions,   210 primitive gaussians,    35 cartesian basis functions
    21 alpha electrons       20 beta electrons
       nuclear repulsion energy       194.2902488112 Hartrees.
 Integral buffers will be    131072 words long.
 Regular integral format.
 Two-electron integral symmetry is turned off.
 Do NDO integrals.
 One-electron integrals computed using PRISM.
 NBasis=    35 RedAO= T EigKep=  1.00D+00  NBF=    27     8
 NBsUse=    35 1.00D-06 EigRej= -1.00D+00 NBFU=    27     8
 Lowest energy guess from the checkpoint file:  "geometry_chks/_35ClBzNeutralRadical.chk"
 B after Tr=     0.000000   -0.000000    0.000000
         Rot=    1.000000    0.000000   -0.000000   -0.000000 Ang=  -0.00 deg.
 B after Tr=     0.000000   -0.000000    0.000000
         Rot=    1.000000   -0.000000    0.000000    0.000001 Ang=   0.00 deg.
 Initial guess orbital symmetries:
 Alpha Orbitals:
       Occupied  (A") (A") (A') (A") (A') (A') (A') (A') (A') (A')
                 (A') (A') (A') (A') (A") (A") (A") (A") (A") (A")
                 (A")
       Virtual   (A") (A") (A') (A") (A') (A') (A') (A') (A') (A')
                 (A') (A') (A') (A')
 Beta  Orbitals:
       Occupied  (A") (A") (A") (A') (A') (A') (A') (A') (A') (A')
                 (A') (A') (A') (A') (A') (A") (A") (A") (A") (A")
[...]
 Variable       Old X    -DE/DX   Delta X   Delta X   Delta X     New X
                                 (Linear)    (Quad)   (Total)
    R1        2.67216  -0.00009  -0.00004  -0.00006  -0.00011   2.67205
    R2        2.58912  -0.00013  -0.00008  -0.00012  -0.00020   2.58891
    R3        2.07275   0.00001   0.00009  -0.00002   0.00007   2.07282
    R4        2.65846  -0.00009  -0.00004  -0.00009  -0.00013   2.65833
    R5        3.19811  -0.00000   0.00002  -0.00007  -0.00005   3.19806
    R6        2.65846  -0.00009  -0.00004  -0.00009  -0.00013   2.65833
    R7        2.08137  -0.00000   0.00008  -0.00008  -0.00000   2.08137
    R8        2.67216  -0.00009  -0.00004  -0.00007  -0.00011   2.67205
    R9        3.19811  -0.00000   0.00002  -0.00007  -0.00005   3.19806
   R10        2.58912  -0.00013  -0.00008  -0.00012  -0.00020   2.58891
   R11        2.07277   0.00001   0.00009  -0.00014  -0.00006   2.07272
    A1        1.99450  -0.00000  -0.00005   0.00002  -0.00003   1.99447
    A2        2.13843  -0.00001   0.00004  -0.00009  -0.00005   2.13837
    A3        2.15026   0.00001   0.00001   0.00007   0.00008   2.15034
    A4        2.10432  -0.00002  -0.00002  -0.00009  -0.00011   2.10421
    A5        2.08980  -0.00001   0.00003  -0.00008  -0.00004   2.08976
    A6        2.08906   0.00004  -0.00002   0.00017   0.00015   2.08921
    A7        2.10252   0.00002   0.00003   0.00011   0.00015   2.10267
    A8        2.09033  -0.00001  -0.00002  -0.00006  -0.00007   2.09026
    A9        2.09033  -0.00001  -0.00002  -0.00006  -0.00007   2.09026
   A10        2.10432  -0.00002  -0.00002  -0.00009  -0.00011   2.10421
   A11        2.08906   0.00004  -0.00002   0.00017   0.00015   2.08921
   A12        2.08980  -0.00001   0.00003  -0.00008  -0.00004   2.08976
   A13        1.99450  -0.00000  -0.00005   0.00002  -0.00003   1.99447
   A14        2.13843  -0.00001   0.00004  -0.00010  -0.00005   2.13837
   A15        2.15026   0.00001   0.00001   0.00007   0.00008   2.15034
   A16        2.26621   0.00003   0.00011   0.00002   0.00013   2.26634
    D1        0.00000  -0.00000   0.00000  -0.00000   0.00000   0.00000
    D2        3.14159  -0.00000  -0.00000  -0.00000   0.00000   3.14159
    D3        3.14159   0.00000  -0.00000   0.00000   0.00000   3.14159
    D4        0.00000   0.00000   0.00000   0.00000   0.00000   0.00000
    D5        0.00000   0.00000   0.00000   0.00000   0.00000   0.00000
    D6        3.14159  -0.00000  -0.00000  -0.00000   0.00000   3.14159
    D7        0.00000  -0.00000   0.00000  -0.00000   0.00000   0.00000
    D8        3.14159  -0.00000  -0.00000  -0.00000   0.00000   3.14159
    D9        3.14159   0.00000  -0.00000   0.00000   0.00000   3.14159
   D10        0.00000  -0.00000   0.00000  -0.00000   0.00000   0.00000
   D11        0.00000   0.00000   0.00000   0.00000   0.00000   0.00000
   D12        3.14159  -0.00000  -0.00000  -0.00000   0.00000   3.14159
   D13        3.14159   0.00000  -0.00000   0.00000   0.00000   3.14159
   D14        0.00000   0.00000   0.00000   0.00000   0.00000   0.00000
   D15        0.00000  -0.00000   0.00000  -0.00000   0.00000   0.00000
   D16        3.14159  -0.00000  -0.00000  -0.00000   0.00000   3.14159
   D17        3.14159   0.00000  -0.00000   0.00000   0.00000   3.14159
   D18        0.00000  -0.00000   0.00000  -0.00000   0.00000   0.00000
   D19        0.00000  -0.00000   0.00000  -0.00000   0.00000   0.00000
   D20        3.14159   0.00000  -0.00000   0.00000   0.00000   3.14159
         Item               Value     Threshold  Converged?
 Maximum Force            0.000134     0.000450     YES
 RMS     Force            0.000040     0.000300     YES
 Maximum Displacement     0.000309     0.001800     YES
 RMS     Displacement     0.000098     0.001200     YES
 Predicted change in Energy=-6.275288D-08
 Optimization completed.
    -- Stationary point found.
                           ----------------------------
                           !   Optimized Parameters   !
                           ! (Angstroms and Degrees)  !
 --------------------------                            --------------------------
 ! Name  Definition              Value          Derivative Info.                !
 --------------------------------------------------------------------------------
 ! R1    R(1,2)                  1.414          -DE/DX =   -0.0001              !
 ! R2    R(1,6)                  1.3701         -DE/DX =   -0.0001              !
 ! R3    R(1,7)                  1.0968         -DE/DX =    0.0                 !
 ! R4    R(2,3)                  1.4068         -DE/DX =   -0.0001              !
 ! R5    R(2,10)                 1.6924         -DE/DX =    0.0                 !
 ! R6    R(3,4)                  1.4068         -DE/DX =   -0.0001              !
 ! R7    R(3,11)                 1.1014         -DE/DX =    0.0                 !
 ! R8    R(4,5)                  1.414          -DE/DX =   -0.0001              !
 ! R9    R(4,8)                  1.6924         -DE/DX =    0.0                 !
 ! R10   R(5,6)                  1.3701         -DE/DX =   -0.0001              !
 ! R11   R(5,9)                  1.0969         -DE/DX =    0.0                 !
 ! A1    A(2,1,6)              114.2764         -DE/DX =    0.0                 !
 ! A2    A(2,1,7)              122.5228         -DE/DX =    0.0                 !
 ! A3    A(6,1,7)              123.2008         -DE/DX =    0.0                 !
 ! A4    A(1,2,3)              120.5685         -DE/DX =    0.0                 !
 ! A5    A(1,2,10)             119.737          -DE/DX =    0.0                 !
 ! A6    A(3,2,10)             119.6946         -DE/DX =    0.0                 !
 ! A7    A(2,3,4)              120.4657         -DE/DX =    0.0                 !
 ! A8    A(2,3,11)             119.7671         -DE/DX =    0.0                 !
 ! A9    A(4,3,11)             119.7672         -DE/DX =    0.0                 !
 ! A10   A(3,4,5)              120.5685         -DE/DX =    0.0                 !
 ! A11   A(3,4,8)              119.6946         -DE/DX =    0.0                 !
 ! A12   A(5,4,8)              119.737          -DE/DX =    0.0                 !
 ! A13   A(4,5,6)              114.2764         -DE/DX =    0.0                 !
 ! A14   A(4,5,9)              122.5228         -DE/DX =    0.0                 !
 ! A15   A(6,5,9)              123.2008         -DE/DX =    0.0                 !
 ! A16   A(1,6,5)              129.8445         -DE/DX =    0.0                 !
 ! D1    D(6,1,2,3)              0.0            -DE/DX =    0.0                 !
 ! D2    D(6,1,2,10)           180.0            -DE/DX =    0.0                 !
 ! D3    D(7,1,2,3)            180.0            -DE/DX =    0.0                 !
 ! D4    D(7,1,2,10)             0.0            -DE/DX =    0.0                 !
 ! D5    D(2,1,6,5)              0.0            -DE/DX =    0.0                 !
 ! D6    D(7,1,6,5)            180.0            -DE/DX =    0.0                 !
 ! D7    D(1,2,3,4)              0.0            -DE/DX =    0.0                 !
 ! D8    D(1,2,3,11)           180.0            -DE/DX =    0.0                 !
 ! D9    D(10,2,3,4)           180.0            -DE/DX =    0.0                 !
 ! D10   D(10,2,3,11)            0.0            -DE/DX =    0.0                 !
 ! D11   D(2,3,4,5)              0.0            -DE/DX =    0.0                 !
 ! D12   D(2,3,4,8)            180.0            -DE/DX =    0.0                 !
 ! D13   D(11,3,4,5)           180.0            -DE/DX =    0.0                 !
 ! D14   D(11,3,4,8)             0.0            -DE/DX =    0.0                 !
 ! D15   D(3,4,5,6)              0.0            -DE/DX =    0.0                 !
 ! D16   D(3,4,5,9)            180.0            -DE/DX =    0.0                 !
 ! D17   D(8,4,5,6)            180.0            -DE/DX =    0.0                 !
 ! D18   D(8,4,5,9)              0.0            -DE/DX =    0.0                 !
 ! D19   D(4,5,6,1)              0.0            -DE/DX =    0.0                 !
 ! D20   D(9,5,6,1)            180.0            -DE/DX =    0.0                 !
 --------------------------------------------------------------------------------
 GradGradGradGradGradGradGradGradGradGradGradGradGradGradGradGradGradGrad

                          Input orientation:                          
 ---------------------------------------------------------------------
 Center     Atomic      Atomic             Coordinates (Angstroms)
 Number     Number       Type             X           Y           Z
 ---------------------------------------------------------------------
      1          6           0       -3.226458    0.216345    0.000000
      2          6           0       -2.011500    0.939808    0.000000
      3          6           0       -0.777053    0.265107    0.000000
      4          6           0       -0.732706   -1.140991    0.000000
      5          6           0       -1.926955   -1.898151    0.000000
      6          6           0       -3.071457   -1.144961    0.000000
      7          1           0       -4.206310    0.709265    0.000000
      8         17           0        0.763115   -1.932591    0.000000
      9          1           0       -1.929787   -2.995011    0.000000
     10         17           0       -2.042078    2.631900    0.000000
     11          1           0        0.161319    0.841801    0.000000
 ---------------------------------------------------------------------
                    Distance matrix (angstroms):
                    1          2          3          4          5
     1  C    0.000000
     2  C    1.414044   0.000000
     3  C    2.449891   1.406798   0.000000
     4  C    2.839218   2.442343   1.406798   0.000000
     5  C    2.481895   2.839218   2.449891   1.414044   0.000000
     6  C    1.370102   2.338754   2.693062   2.338754   1.370102
     7  H    1.096850   2.206884   3.457901   3.935653   3.463246
     8  Cl   4.531514   3.993640   2.683653   1.692368   2.690290
     9  H    3.463259   3.935667   3.457914   2.206896   1.096863
    10  Cl   2.690290   1.692368   2.683653   3.993640   4.531514
    11  H    3.445029   2.175028   1.101416   2.175028   3.445030
                    6          7          8          9         10
     6  C    0.000000
     7  H    2.173947   0.000000
     8  Cl   3.914626   5.628017   0.000000
     9  H    2.173958   4.347898   2.894901   0.000000
    10  Cl   3.914626   2.894896   5.357582   5.628031   0.000000
    11  H    3.794478   4.369639   2.838910   4.369651   2.838910
                   11
    11  H    0.000000
 Stoichiometry    C6H3Cl2(2)
 Framework group  CS[SG(C6H3Cl2)]
 Deg. of freedom    19
 Full point group                 CS      NOp   2
 Largest Abelian subgroup         CS      NOp   2
 Largest concise Abelian subgroup C1      NOp   1
                         Standard orientation:                         
 ---------------------------------------------------------------------
 Center     Atomic      Atomic             Coordinates (Angstroms)
 Number     Number       Type             X           Y           Z
 ---------------------------------------------------------------------
      1          6           0        1.445575   -1.240947    0.000000
      2          6           0        0.031669   -1.221172    0.000000
      3          6           0       -0.666773   -0.000000    0.000000
      4          6           0        0.031669    1.221171    0.000000
      5          6           0        1.445575    1.240947    0.000000
      6          6           0        2.026289   -0.000000    0.000000
      7          1           0        2.022288   -2.173943    0.000000
      8         17           0       -0.828247    2.678791    0.000000
      9          1           0        2.022295    2.173954    0.000000
     10         17           0       -0.828247   -2.678791    0.000000
     11          1           0       -1.768189   -0.000000    0.000000
 ---------------------------------------------------------------------
 Rotational constants (GHZ):           3.0806420           0.8651638           0.6754666

 **********************************************************************

            Population analysis using the SCF Density.

 **********************************************************************

 Orbital symmetries:
 Alpha Orbitals:
       Occupied  (A') (A') (A') (A') (A') (A') (A') (A') (A') (A')
                 (A') (A") (A') (A") (A') (A') (A") (A') (A') (A")
                 (A")
       Virtual   (A") (A") (A') (A') (A") (A') (A') (A') (A') (A')
                 (A') (A') (A') (A')
 Beta  Orbitals:
       Occupied  (A') (A') (A') (A') (A') (A') (A') (A') (A') (A')
                 (A') (A") (A') (A") (A') (A') (A") (A') (A") (A")
       Virtual   (A") (A') (A") (A') (A') (A") (A') (A') (A') (A')
                 (A') (A') (A') (A') (A')
 The electronic state is 2-A'.
 Alpha  occ. eigenvalues --   -1.47371  -1.40591  -1.37907  -1.16694  -1.15453
 Alpha  occ. eigenvalues --   -0.88525  -0.86320  -0.67758  -0.62948  -0.62316
 Alpha  occ. eigenvalues --   -0.57613  -0.55896  -0.51754  -0.50784  -0.49368
 Alpha  occ. eigenvalues --   -0.46620  -0.45727  -0.44315  -0.39540  -0.38126
 Alpha  occ. eigenvalues --   -0.36453
 Alpha virt. eigenvalues --   -0.00467   0.00167   0.02625   0.04044   0.07926
 Alpha virt. eigenvalues --    0.12698   0.12795   0.12881   0.14533   0.15151
 Alpha virt. eigenvalues --    0.17008   0.17132   0.18246   0.18593
  Beta  occ. eigenvalues --   -1.46664  -1.40317  -1.37565  -1.16813  -1.14422
  Beta  occ. eigenvalues --   -0.88130  -0.83882  -0.67060  -0.62043  -0.61777
  Beta  occ. eigenvalues --   -0.57278  -0.55154  -0.50973  -0.49704  -0.49065
  Beta  occ. eigenvalues --   -0.45843  -0.44948  -0.44296  -0.38081  -0.37293
  Beta virt. eigenvalues --   -0.00796  -0.00742   0.01380   0.04448   0.05364
  Beta virt. eigenvalues --    0.08575   0.12049   0.12758   0.13572   0.14654
  Beta virt. eigenvalues --    0.15278   0.16917   0.17030   0.18827   0.20089
          Condensed to atoms (all electrons):
               1          2          3          4          5          6
     1  C    4.112519   0.000000   0.000000   0.000000   0.000000   0.000000
     2  C    0.000000   4.056589   0.000000   0.000000   0.000000   0.000000
     3  C    0.000000   0.000000   4.132320   0.000000   0.000000   0.000000
     4  C    0.000000   0.000000   0.000000   4.056589   0.000000   0.000000
     5  C    0.000000   0.000000   0.000000   0.000000   4.112521   0.000000
     6  C    0.000000   0.000000   0.000000   0.000000   0.000000   4.055960
     7  H    0.000000   0.000000   0.000000   0.000000   0.000000   0.000000
     8  Cl   0.000000   0.000000   0.000000   0.000000   0.000000   0.000000
     9  H    0.000000   0.000000   0.000000   0.000000   0.000000   0.000000
    10  Cl   0.000000   0.000000   0.000000   0.000000   0.000000   0.000000
    11  H    0.000000   0.000000   0.000000   0.000000   0.000000   0.000000
               7          8          9         10         11
     1  C    0.000000   0.000000   0.000000   0.000000   0.000000
     2  C    0.000000   0.000000   0.000000   0.000000   0.000000
     3  C    0.000000   0.000000   0.000000   0.000000   0.000000
     4  C    0.000000   0.000000   0.000000   0.000000   0.000000
     5  C    0.000000   0.000000   0.000000   0.000000   0.000000
     6  C    0.000000   0.000000   0.000000   0.000000   0.000000
     7  H    0.827062   0.000000   0.000000   0.000000   0.000000
     8  Cl   0.000000   6.991681   0.000000   0.000000   0.000000
     9  H    0.000000   0.000000   0.827060   0.000000   0.000000
    10  Cl   0.000000   0.000000   0.000000   6.991681   0.000000
    11  H    0.000000   0.000000   0.000000   0.000000   0.836019
          Atomic-Atomic Spin Densities.
               1          2          3          4          5          6
     1  C   -0.498968   0.000000   0.000000   0.000000   0.000000   0.000000
     2  C    0.000000   0.486936   0.000000   0.000000   0.000000   0.000000
     3  C    0.000000   0.000000  -0.469210   0.000000   0.000000   0.000000
     4  C    0.000000   0.000000   0.000000   0.486936   0.000000   0.000000
     5  C    0.000000   0.000000   0.000000   0.000000  -0.498969   0.000000
     6  C    0.000000   0.000000   0.000000   0.000000   0.000000   1.370748
     7  H    0.000000   0.000000   0.000000   0.000000   0.000000   0.000000
     8  Cl   0.000000   0.000000   0.000000   0.000000   0.000000   0.000000
     9  H    0.000000   0.000000   0.000000   0.000000   0.000000   0.000000
    10  Cl   0.000000   0.000000   0.000000   0.000000   0.000000   0.000000
    11  H    0.000000   0.000000   0.000000   0.000000   0.000000   0.000000
               7          8          9         10         11
     1  C    0.000000   0.000000   0.000000   0.000000   0.000000
     2  C    0.000000   0.000000   0.000000   0.000000   0.000000
     3  C    0.000000   0.000000   0.000000   0.000000   0.000000
     4  C    0.000000   0.000000   0.000000   0.000000   0.000000
     5  C    0.000000   0.000000   0.000000   0.000000   0.000000
     6  C    0.000000   0.000000   0.000000   0.000000   0.000000
     7  H    0.033007   0.000000   0.000000   0.000000   0.000000
     8  Cl   0.000000   0.014546   0.000000   0.000000   0.000000
     9  H    0.000000   0.000000   0.033008   0.000000   0.000000
    10  Cl   0.000000   0.000000   0.000000   0.014546   0.000000
    11  H    0.000000   0.000000   0.000000   0.000000   0.027418
 Mulliken charges and spin densities:
               1          2
     1  C   -0.112519  -0.498968
     2  C   -0.056589   0.486936
     3  C   -0.132320  -0.469210
     4  C   -0.056589   0.486936
     5  C   -0.112521  -0.498969
     6  C   -0.055960   1.370748
     7  H    0.172938   0.033007
     8  Cl   0.008319   0.014546
     9  H    0.172940   0.033008
    10  Cl   0.008319   0.014546
    11  H    0.163981   0.027418
 Sum of Mulliken charges =   0.00000   1.00000
 Mulliken charges and spin densities with hydrogens summed into heavy atoms:
               1          2
     1  C    0.060419  -0.465960
     2  C   -0.056589   0.486936
     3  C    0.031661  -0.441792
     4  C   -0.056589   0.486936
     5  C    0.060419  -0.465960
     6  C   -0.055960   1.370748
     8  Cl   0.008319   0.014546
    10  Cl   0.008319   0.014546
 Charge=              0.0000 electrons
 Dipole moment (field-independent basis, Debye):
    X=              0.0853    Y=              0.0000    Z=              0.0000  Tot=              0.0853
 N-N= 1.963936944820D+02 E-N=-2.717066490349D+02  KE=-9.055713606644D+01
 Symmetry A'   KE=-7.016845715375D+01
 Symmetry A"   KE=-2.038867891269D+01
 Symmetry A'   SP= 1.000000000000D+00
 Symmetry A"   SP= 3.441691376338D-15
 1\1\GINC-SH02-01N45\FOpt\UAM1\ZDO\C6H3Cl2(2)\JLAPIER\09-Dec-2025\0\\# 
 opt am1 SCF=XQC\\Neutral Radical (removed 1) _35\\0,2\C,-3.2264579458,
 0.216344884,0.\C,-2.0115001521,0.9398076847,0.\C,-0.7770527569,0.26510
 744,0.\C,-0.7327064317,-1.140991498,0.\C,-1.9269552285,-1.8981514569,0
 .\C,-3.071456846,-1.1449610919,0.\H,-4.2063095148,0.7092649546,0.\Cl,0
 .7631146274,-1.93259121,0.\H,-1.929786626,-2.9950108015,0.\Cl,-2.04207
 80472,2.6318998439,0.\H,0.1613189174,0.8418012577,0.\\Version=ES64L-G1
 6RevB.01\State=2-A'\HF=0.0948761\S2=1.247184\S2-1=0.\S2A=0.96519\RMSD=
 9.499e-09\RMSF=5.098e-05\Dipole=-0.0285728,-0.0175671,0.\PG=CS [SG(C6H
 3Cl2)]\\@


 IF OTHER PEOPLE ARE GOING TO TALK, CONVERSATION IS SIMPLY IMPOSSIBLE.

                                               -- WHISTLER'S PRINCIPLE
 Job cpu time:       0 days  0 hours  0 minutes 11.8 seconds.
 Elapsed time:       0 days  0 hours  0 minutes 34.2 seconds.
 File lengths (MBytes):  RWF=     10 Int=      0 D2E=      0 Chk=      2 Scr=      1
 Normal termination of Gaussian 16 at Tue Dec  9 08:35:22 2025.
