 Entering Gaussian System, Link 0=g16
 Initial command:
 /share/software/user/restricted/gaussian/g16.B01/l1.exe "/home/users/jlapier/Chloroaromatics/Gau-22218.inp" -scrdir="/home/users/jlapier/Chloroaromatics/"
 Entering Link 1 = /share/software/user/restricted/gaussian/g16.B01/l1.exe PID=     22219.
  
 Copyright (c) 1988-2017, Gaussian, Inc.  All Rights Reserved.
  
 This is part of the Gaussian(R) 16 program.  It is based on
 the Gaussian(R) 09 system (copyright 2009, Gaussian, Inc.),
 the Gaussian(R) 03 system (copyright 2003, Gaussian, Inc.),
 the Gaussian(R) 98 system (copyright 1998, Gaussian, Inc.),
 the Gaussian(R) 94 system (copyright 1995, Gaussian, Inc.),
 the Gaussian 92(TM) system (copyright 1992, Gaussian, Inc.),
 the Gaussian 90(TM) system (copyright 1990, Gaussian, Inc.),
 the Gaussian 88(TM) system (copyright 1988, Gaussian, Inc.),
 the Gaussian 86(TM) system (copyright 1986, Carnegie Mellon
 University), and the Gaussian 82(TM) system (copyright 1983,
 Carnegie Mellon University). Gaussian is a federally registered
 trademark of Gaussian, Inc.
  
 This software contains proprietary and confidential information,
 including trade secrets, belonging to Gaussian, Inc.
  
 This software is provided under written license and may be
 used, copied, transmitted, or stored only in accord with that
 written license.
  
 The following legend is applicable only to US Government
 contracts under FAR:
  
                    RESTRICTED RIGHTS LEGEND
  
 Use, reproduction and disclosure by the US Government is
 subject to restrictions as set forth in subparagraphs (a)
 and (c) of the Commercial Computer Software - Restricted
 Rights clause in FAR 52.227-19.
  
 Gaussian, Inc.
 340 Quinnipiac St., Bldg. 40, Wallingford CT 06492
  
  
 ---------------------------------------------------------------
 Warning -- This program may not be used in any manner that
 competes with the business of Gaussian, Inc. or will provide
 assistance to any competitor of Gaussian, Inc.  The licensee
 of this program is prohibited from giving any competitor of
 Gaussian, Inc. access to this program.  By using this program,
 the user acknowledges that Gaussian, Inc. is engaged in the
 business of creating and licensing software in the field of
 computational chemistry and represents and warrants to the
 licensee that it is not a competitor of Gaussian, Inc. and that
 it will not use this program in any manner prohibited above.
 ---------------------------------------------------------------
  

 Cite this work as:
 Gaussian 16, Revision B.01,
 M. J. Frisch, G. W. Trucks, H. B. Schlegel, G. E. Scuseria, 
 M. A. Robb, J. R. Cheeseman, G. Scalmani, V. Barone, 
 G. A. Petersson, H. Nakatsuji, X. Li, M. Caricato, A. V. Marenich, 
 J. Bloino, B. G. Janesko, R. Gomperts, B. Mennucci, H. P. Hratchian, 
 J. V. Ortiz, A. F. Izmaylov, J. L. Sonnenberg, D. Williams-Young, 
 F. Ding, F. Lipparini, F. Egidi, J. Goings, B. Peng, A. Petrone, 
 T. Henderson, D. Ranasinghe, V. G. Zakrzewski, J. Gao, N. Rega, 
 G. Zheng, W. Liang, M. Hada, M. Ehara, K. Toyota, R. Fukuda, 
 J. Hasegawa, M. Ishida, T. Nakajima, Y. Honda, O. Kitao, H. Nakai, 
 T. Vreven, K. Throssell, J. A. Montgomery, Jr., J. E. Peralta, 
 F. Ogliaro, M. J. Bearpark, J. J. Heyd, E. N. Brothers, K. N. Kudin, 
 V. N. Staroverov, T. A. Keith, R. Kobayashi, J. Normand, 
 K. Raghavachari, A. P. Rendell, J. C. Burant, S. S. Iyengar, 
 J. Tomasi, M. Cossi, J. M. Millam, M. Klene, C. Adamo, R. Cammi, 
 J. W. Ochterski, R. L. Martin, K. Morokuma, O. Farkas, 
 J. B. Foresman, and D. J. Fox, Gaussian, Inc., Wallingford CT, 2016.
 
 ******************************************
 Gaussian 16:  ES64L-G16RevB.01 20-Dec-2017
                 9-Dec-2025 
 ******************************************
 %mem=2GB
 %nprocshare=1
 Will use up to    1 processors via shared memory.
 %chk=geometry_chks/_3ClBzNeutralRadical.chk
 -----------------
 # opt am1 SCF=XQC
 -----------------
 1/18=20,19=15,26=1,38=1/1,3;
 2/9=110,12=2,17=6,18=5,40=1/2;
 3/5=2,25=1,41=700000,71=1/1,2,3;
 4/35=1/1;
 5/5=2,8=3,13=1,35=1,38=5/2,8;
 6/7=2,8=2,9=2,10=2,28=1/1;
 7//1,2,3,16;
 1/18=20,19=15,26=1/3(2);
 2/9=110/2;
 99//99;
 2/9=110/2;
 3/5=2,25=1,41=700000,71=1,135=20/1,2,3;
 4/5=5,16=3,35=1/1;
 5/5=2,8=3,13=1,35=1,38=5/2,8;
 7//1,2,3,16;
 1/18=20,19=15,26=1/3(-5);
 2/9=110/2;
 6/7=2,8=2,9=2,10=2,19=2,28=1/1;
 99/9=1/99;
 ------------------------------
 Neutral Radical (removed 1) _3
 ------------------------------
 Symbolic Z-matrix:
 Charge =  0 Multiplicity = 2
 C                    -3.20928   0.19943   0. 
 C                    -2.0115    0.93555   0. 
 C                    -0.77511   0.2663    0. 
 C                    -0.7365   -1.13907   0. 
 C                    -1.93429  -1.87519   0. 
 C                    -3.17067  -1.20594   0. 
 H                    -4.76193   1.03987   0. 
 Cl                   -2.05998   2.7004    0. 
 H                     0.72905   1.19071   0. 
 H                     0.81614  -1.97951   0. 
 H                    -1.8858   -3.64003   0. 
 
 Add virtual bond connecting atoms H11        and C5         Dist= 3.34D+00.
 Add virtual bond connecting atoms H10        and C4         Dist= 3.34D+00.
 Add virtual bond connecting atoms H9         and C3         Dist= 3.34D+00.
 Add virtual bond connecting atoms H7         and C1         Dist= 3.34D+00.

 GradGradGradGradGradGradGradGradGradGradGradGradGradGradGradGradGradGrad
 Berny optimization.
 Initialization pass.
                           ----------------------------
                           !    Initial Parameters    !
                           ! (Angstroms and Degrees)  !
 --------------------------                            --------------------------
 ! Name  Definition              Value          Derivative Info.                !
 --------------------------------------------------------------------------------
 ! R1    R(1,2)                  1.4059         estimate D2E/DX2                !
 ! R2    R(1,6)                  1.4059         estimate D2E/DX2                !
 ! R3    R(1,7)                  1.7655         estimate D2E/DX2                !
 ! R4    R(2,3)                  1.4059         estimate D2E/DX2                !
 ! R5    R(2,8)                  1.7655         estimate D2E/DX2                !
 ! R6    R(3,4)                  1.4059         estimate D2E/DX2                !
 ! R7    R(3,9)                  1.7655         estimate D2E/DX2                !
 ! R8    R(4,5)                  1.4059         estimate D2E/DX2                !
 ! R9    R(4,10)                 1.7655         estimate D2E/DX2                !
 ! R10   R(5,6)                  1.4059         estimate D2E/DX2                !
 ! R11   R(5,11)                 1.7655         estimate D2E/DX2                !
 ! A1    A(2,1,6)              119.9999         estimate D2E/DX2                !
 ! A2    A(2,1,7)              119.9999         estimate D2E/DX2                !
 ! A3    A(6,1,7)              120.0001         estimate D2E/DX2                !
 ! A4    A(1,2,3)              120.0            estimate D2E/DX2                !
 ! A5    A(1,2,8)              120.0001         estimate D2E/DX2                !
 ! A6    A(3,2,8)              119.9999         estimate D2E/DX2                !
 ! A7    A(2,3,4)              120.0001         estimate D2E/DX2                !
 ! A8    A(2,3,9)              120.0            estimate D2E/DX2                !
 ! A9    A(4,3,9)              119.9999         estimate D2E/DX2                !
 ! A10   A(3,4,5)              119.9997         estimate D2E/DX2                !
 ! A11   A(3,4,10)             120.0003         estimate D2E/DX2                !
 ! A12   A(5,4,10)             120.0            estimate D2E/DX2                !
 ! A13   A(4,5,6)              120.0            estimate D2E/DX2                !
 ! A14   A(4,5,11)             119.9996         estimate D2E/DX2                !
 ! A15   A(6,5,11)             120.0004         estimate D2E/DX2                !
 ! A16   A(1,6,5)              120.0003         estimate D2E/DX2                !
 ! D1    D(6,1,2,3)              0.0            estimate D2E/DX2                !
 ! D2    D(6,1,2,8)            180.0            estimate D2E/DX2                !
 ! D3    D(7,1,2,3)            180.0            estimate D2E/DX2                !
 ! D4    D(7,1,2,8)              0.0            estimate D2E/DX2                !
 ! D5    D(2,1,6,5)              0.0            estimate D2E/DX2                !
 ! D6    D(7,1,6,5)            180.0            estimate D2E/DX2                !
 ! D7    D(1,2,3,4)              0.0            estimate D2E/DX2                !
 ! D8    D(1,2,3,9)            180.0            estimate D2E/DX2                !
 ! D9    D(8,2,3,4)            180.0            estimate D2E/DX2                !
 ! D10   D(8,2,3,9)              0.0            estimate D2E/DX2                !
 ! D11   D(2,3,4,5)              0.0            estimate D2E/DX2                !
 ! D12   D(2,3,4,10)           180.0            estimate D2E/DX2                !
 ! D13   D(9,3,4,5)            180.0            estimate D2E/DX2                !
 ! D14   D(9,3,4,10)             0.0            estimate D2E/DX2                !
 ! D15   D(3,4,5,6)              0.0            estimate D2E/DX2                !
 ! D16   D(3,4,5,11)           180.0            estimate D2E/DX2                !
 ! D17   D(10,4,5,6)           180.0            estimate D2E/DX2                !
 ! D18   D(10,4,5,11)            0.0            estimate D2E/DX2                !
 ! D19   D(4,5,6,1)              0.0            estimate D2E/DX2                !
 ! D20   D(11,5,6,1)           180.0            estimate D2E/DX2                !
 --------------------------------------------------------------------------------
 Trust Radius=3.00D-01 FncErr=1.00D-07 GrdErr=1.00D-07 EigMax=2.50D+02 EigMin=1.00D-04
 Number of steps in this run=     57 maximum allowed number of steps=    100.
 GradGradGradGradGradGradGradGradGradGradGradGradGradGradGradGradGradGrad

                          Input orientation:                          
 ---------------------------------------------------------------------
 Center     Atomic      Atomic             Coordinates (Angstroms)
 Number     Number       Type             X           Y           Z
 ---------------------------------------------------------------------
      1          6           0       -3.209280    0.199430    0.000000
      2          6           0       -2.011500    0.935550    0.000000
      3          6           0       -0.775110    0.266300    0.000000
      4          6           0       -0.736500   -1.139070    0.000000
      5          6           0       -1.934290   -1.875190    0.000000
      6          6           0       -3.170670   -1.205940    0.000000
      7          1           0       -4.761930    1.039870    0.000000
      8         17           0       -2.059980    2.700400    0.000000
      9          1           0        0.729050    1.190710    0.000000
     10          1           0        0.816140   -1.979510    0.000000
     11          1           0       -1.885800   -3.640030    0.000000
 ---------------------------------------------------------------------
                    Distance matrix (angstroms):
                    1          2          3          4          5
     1  C    0.000000
     2  C    1.405898   0.000000
     3  C    2.435088   1.405900   0.000000
     4  C    2.811801   2.435092   1.405900   0.000000
     5  C    2.435087   2.811800   2.435093   1.405907   0.000000
     6  C    1.405900   2.435088   2.811796   2.435088   1.405892
     7  H    1.765520   2.752408   4.061175   4.577321   4.061173
     8  Cl   2.752406   1.765516   2.752405   4.061173   4.577316
     9  H    4.061167   2.752403   1.765512   2.752401   4.061173
    10  H    4.577312   4.061173   2.752406   1.765511   2.752408
    11  H    4.061164   4.577306   4.061163   2.752397   1.765506
                    6          7          8          9         10
     6  C    0.000000
     7  H    2.752412   0.000000
     8  Cl   4.061173   3.171418   0.000000
     9  H    4.577308   5.493051   3.171412   0.000000
    10  H    4.061165   6.342832   5.493052   3.171416   0.000000
    11  H    2.752396   5.493049   6.342822   5.493040   3.171404
                   11
    11  H    0.000000
 Stoichiometry    C6H4Cl(2)
 Framework group  CS[SG(C6H4Cl)]
 Deg. of freedom    19
 Full point group                 CS      NOp   2
 Largest Abelian subgroup         CS      NOp   2
 Largest concise Abelian subgroup C1      NOp   1
                         Standard orientation:                         
 ---------------------------------------------------------------------
 Center     Atomic      Atomic             Coordinates (Angstroms)
 Number     Number       Type             X           Y           Z
 ---------------------------------------------------------------------
      1          6           0       -1.265729   -0.215089    0.000000
      2          6           0       -0.048185    0.487859    0.000000
      3          6           0        1.169359   -0.215094    0.000000
      4          6           0        1.169359   -1.620994    0.000000
      5          6           0       -0.048195   -2.323942    0.000000
      6          6           0       -1.265729   -1.620989    0.000000
      7          1           0       -2.794713    0.667674    0.000000
      8         17           0       -0.048179    2.253374    0.000000
      9          1           0        2.698339    0.667659    0.000000
     10          1           0        2.698333   -2.503757    0.000000
     11          1           0       -0.048191   -4.089448    0.000000
 ---------------------------------------------------------------------
 Rotational constants (GHZ):           5.3945897           1.5167990           1.1839167
 Standard basis: VSTO-6G (5D, 7F)
 There are    25 symmetry adapted cartesian basis functions of A'  symmetry.
 There are     7 symmetry adapted cartesian basis functions of A"  symmetry.
 There are    25 symmetry adapted basis functions of A'  symmetry.
 There are     7 symmetry adapted basis functions of A"  symmetry.
    32 basis functions,   192 primitive gaussians,    32 cartesian basis functions
    18 alpha electrons       17 beta electrons
       nuclear repulsion energy       147.6743324324 Hartrees.
 Integral buffers will be    131072 words long.
 Regular integral format.
 Two-electron integral symmetry is turned off.
 Do NDO integrals.
 One-electron integrals computed using PRISM.
 NBasis=    32 RedAO= T EigKep=  1.00D+00  NBF=    25     7
 NBsUse=    32 1.00D-06 EigRej= -1.00D+00 NBFU=    25     7
 Simple Huckel Guess.
 Initial guess orbital symmetries:
 Alpha Orbitals:
       Occupied  (A') (A') (A') (A') (A') (A') (A') (A') (A") (A')
                 (A') (A') (A") (A') (A") (A') (A") (A')
       Virtual   (A') (A") (A") (A') (A') (A') (A") (A') (A') (A')
                 (A') (A') (A') (A')
 Beta  Orbitals:
       Occupied  (A') (A') (A') (A') (A') (A') (A') (A') (A") (A')
                 (A') (A') (A") (A') (A") (A') (A")
       Virtual   (A') (A') (A") (A") (A') (A') (A') (A") (A') (A')
                 (A') (A') (A') (A') (A')
 The electronic state of the initial guess is 2-A'.
 Initial guess <Sx>= 0.0000 <Sy>= 0.0000 <Sz>= 0.5000 <S**2>= 0.7500 S= 0.5000
 Keep J ints in memory in canonical form, NReq=862079.
 Overlap will be assumed to be unity.
 Requested convergence on RMS density matrix=1.00D-08 within  32 cycles.
 Requested convergence on MAX density matrix=1.00D-06.
 Requested convergence on             energy=1.00D-06.
 No special actions if energy rises.
 Fock symm off for IB=2 I1=    1 I=   26 J=   11 Cut=1.00D-07 Err=5.20D-03
 Fock matrix is not symmetric: symmetry in diagonalization turned off.
 Rare condition: small coef for last iteration:  0.000D+00
 Rare condition: small coef for last iteration:  0.000D+00
 Rare condition: small coef for last iteration:  0.000D+00
 Rare condition: small coef for last iteration:  0.000D+00
 Rare condition: small coef for last iteration:  0.000D+00
 Rare condition: small coef for last iteration:  0.000D+00
 Rare condition: small coef for last iteration:  0.000D+00
 Rare condition: small coef for last iteration:  0.000D+00
 Rare condition: small coef for last iteration:  0.000D+00
 Rare condition: small coef for last iteration:  0.000D+00
 >>>>>>>>>> Convergence criterion not met.
 SCF Done:  E(UAM1) =  0.606649149776     A.U. after   33 cycles
            NFock= 32  Conv=0.57D-04     -V/T= 1.0089
 <Sx>= 0.0000 <Sy>= 0.0000 <Sz>= 0.5000 <S**2>= 1.0661 S= 0.6472
 <L.S>=  0.00000000000    
 Annihilation of the first spin contaminant:
 S**2 before annihilation     1.0661,   after     0.8251
 Keep J ints in memory in canonical form, NReq=862479.
 LinEq1:  Iter=  0 NonCon=     1 RMS=9.34D-05 Max=6.67D-04 NDo=     1
 AX will form     1 AO Fock derivatives at one time.
 LinEq1:  Iter=  1 NonCon=     1 RMS=2.32D-06 Max=1.68D-05 NDo=     1
 LinEq1:  Iter=  2 NonCon=     1 RMS=6.61D-07 Max=4.32D-06 NDo=     1
 LinEq1:  Iter=  3 NonCon=     1 RMS=2.59D-07 Max=1.89D-06 NDo=     1
 LinEq1:  Iter=  4 NonCon=     1 RMS=7.95D-08 Max=7.51D-07 NDo=     1
 LinEq1:  Iter=  5 NonCon=     1 RMS=1.98D-08 Max=1.19D-07 NDo=     1
 LinEq1:  Iter=  6 NonCon=     1 RMS=6.06D-09 Max=4.14D-08 NDo=     1
 LinEq1:  Iter=  7 NonCon=     0 RMS=1.92D-09 Max=1.33D-08 NDo=     1
 Linear equations converged to 2.252D-09 2.252D-08 after     7 iterations.
 Incorrect curvature in search direction -- initial direction reversed.
 LinEq1:  Iter=  0 NonCon=     1 RMS=1.55D-04 Max=8.54D-04 NDo=     1
 LinEq1:  Iter=  1 NonCon=     1 RMS=5.45D-05 Max=3.04D-04 NDo=     1
 LinEq1:  Iter=  2 NonCon=     1 RMS=1.34D-05 Max=7.19D-05 NDo=     1
 LinEq1:  Iter=  3 NonCon=     1 RMS=3.92D-06 Max=2.85D-05 NDo=     1
 LinEq1:  Iter=  4 NonCon=     1 RMS=1.09D-06 Max=6.81D-06 NDo=     1
 LinEq1:  Iter=  5 NonCon=     1 RMS=3.62D-07 Max=2.65D-06 NDo=     1
 LinEq1:  Iter=  6 NonCon=     1 RMS=1.06D-07 Max=7.56D-07 NDo=     1
 LinEq1:  Iter=  7 NonCon=     1 RMS=1.64D-08 Max=8.62D-08 NDo=     1
 LinEq1:  Iter=  8 NonCon=     1 RMS=5.10D-09 Max=2.59D-08 NDo=     1
 LinEq1:  Iter=  9 NonCon=     0 RMS=1.30D-09 Max=1.09D-08 NDo=     1
 Linear equations converged to 2.252D-09 2.252D-08 after     9 iterations.
 Incorrect curvature in search direction -- initial direction reversed.
 LinEq1:  Iter=  0 NonCon=     1 RMS=2.19D-04 Max=1.58D-03 NDo=     1
 LinEq1:  Iter=  1 NonCon=     1 RMS=8.84D-05 Max=5.74D-04 NDo=     1
 LinEq1:  Iter=  2 NonCon=     1 RMS=2.78D-05 Max=2.24D-04 NDo=     1
 LinEq1:  Iter=  3 NonCon=     1 RMS=7.35D-06 Max=5.17D-05 NDo=     1
 LinEq1:  Iter=  4 NonCon=     1 RMS=1.90D-06 Max=1.55D-05 NDo=     1
 LinEq1:  Iter=  5 NonCon=     1 RMS=5.97D-07 Max=4.19D-06 NDo=     1
 LinEq1:  Iter=  6 NonCon=     1 RMS=1.54D-07 Max=1.37D-06 NDo=     1
 LinEq1:  Iter=  7 NonCon=     1 RMS=3.11D-08 Max=1.67D-07 NDo=     1
 LinEq1:  Iter=  8 NonCon=     1 RMS=9.74D-09 Max=4.83D-08 NDo=     1
 LinEq1:  Iter=  9 NonCon=     1 RMS=2.66D-09 Max=1.79D-08 NDo=     1
 LinEq1:  Iter= 10 NonCon=     0 RMS=7.77D-10 Max=4.39D-09 NDo=     1
 Linear equations converged to 2.252D-09 2.252D-08 after    10 iterations.
     Accept linear search using points  1 and  2.
 LinEq1:  Iter=  0 NonCon=     1 RMS=1.35D-04 Max=8.38D-04 NDo=     1
 LinEq1:  Iter=  1 NonCon=     1 RMS=5.46D-05 Max=4.36D-04 NDo=     1
 LinEq1:  Iter=  2 NonCon=     1 RMS=1.63D-05 Max=9.62D-05 NDo=     1
 LinEq1:  Iter=  3 NonCon=     1 RMS=4.47D-06 Max=2.42D-05 NDo=     1
 LinEq1:  Iter=  4 NonCon=     1 RMS=1.04D-06 Max=5.91D-06 NDo=     1
 LinEq1:  Iter=  5 NonCon=     1 RMS=2.31D-07 Max=1.22D-06 NDo=     1
 LinEq1:  Iter=  6 NonCon=     1 RMS=7.98D-08 Max=7.24D-07 NDo=     1
 LinEq1:  Iter=  7 NonCon=     1 RMS=2.13D-08 Max=1.63D-07 NDo=     1
 LinEq1:  Iter=  8 NonCon=     1 RMS=6.97D-09 Max=5.36D-08 NDo=     1
 LinEq1:  Iter=  9 NonCon=     0 RMS=1.86D-09 Max=1.17D-08 NDo=     1
 Linear equations converged to 2.252D-09 2.252D-08 after     9 iterations.
     Minimum is close to point  3 DX= -1.13D-02 DF= -1.41D-08 DXR=  2.30D-02 DFR=  5.31D-04 which will be used.
 LinEq1:  Iter=  0 NonCon=     1 RMS=1.11D-04 Max=7.42D-04 NDo=     1
 LinEq1:  Iter=  1 NonCon=     1 RMS=4.52D-05 Max=4.23D-04 NDo=     1
 LinEq1:  Iter=  2 NonCon=     1 RMS=1.43D-05 Max=1.21D-04 NDo=     1
 LinEq1:  Iter=  3 NonCon=     1 RMS=3.99D-06 Max=3.20D-05 NDo=     1
 LinEq1:  Iter=  4 NonCon=     1 RMS=1.14D-06 Max=7.56D-06 NDo=     1
 LinEq1:  Iter=  5 NonCon=     1 RMS=2.80D-07 Max=1.56D-06 NDo=     1
 LinEq1:  Iter=  6 NonCon=     1 RMS=7.00D-08 Max=4.74D-07 NDo=     1
 LinEq1:  Iter=  7 NonCon=     1 RMS=1.69D-08 Max=1.05D-07 NDo=     1
 LinEq1:  Iter=  8 NonCon=     1 RMS=6.58D-09 Max=4.66D-08 NDo=     1
 LinEq1:  Iter=  9 NonCon=     0 RMS=1.62D-09 Max=1.06D-08 NDo=     1
 Linear equations converged to 2.252D-09 2.252D-08 after     9 iterations.
 Incorrect curvature in search direction -- initial direction reversed.
 Gradient too large for Newton-Raphson -- use scaled steepest descent instead.
     Accept linear search using points  4 and  5.
 Gradient too large for Newton-Raphson -- use scaled steepest descent instead.
 Gradient too large for Newton-Raphson -- use scaled steepest descent instead.
     Minimum is close to point  2 DX= -7.75D-02 DF= -7.27D-07 DXR=  4.25D-02 DFR=  1.81D-03 which will be used.
 Gradient too large for Newton-Raphson -- use scaled steepest descent instead.
 LinEq1:  Iter=  0 NonCon=     1 RMS=8.42D-04 Max=6.97D-03 NDo=     1
 LinEq1:  Iter=  1 NonCon=     1 RMS=4.50D-04 Max=4.04D-03 NDo=     1
 LinEq1:  Iter=  2 NonCon=     1 RMS=3.19D-05 Max=2.24D-04 NDo=     1
 LinEq1:  Iter=  3 NonCon=     1 RMS=9.64D-06 Max=4.90D-05 NDo=     1
 LinEq1:  Iter=  4 NonCon=     1 RMS=1.00D-06 Max=6.72D-06 NDo=     1
 LinEq1:  Iter=  5 NonCon=     1 RMS=3.55D-07 Max=1.90D-06 NDo=     1
 LinEq1:  Iter=  6 NonCon=     1 RMS=7.89D-08 Max=3.88D-07 NDo=     1
 LinEq1:  Iter=  7 NonCon=     1 RMS=1.97D-08 Max=1.63D-07 NDo=     1
 LinEq1:  Iter=  8 NonCon=     1 RMS=4.80D-09 Max=3.58D-08 NDo=     1
 LinEq1:  Iter=  9 NonCon=     0 RMS=1.29D-09 Max=9.87D-09 NDo=     1
 Linear equations converged to 2.252D-09 2.252D-08 after     9 iterations.
 Incorrect curvature in search direction -- initial direction reversed.
 Gradient too large for Newton-Raphson -- use scaled steepest descent instead.
     Minimum is close to point  2 DX= -1.04D-01 DF= -2.34D-06 DXR=  6.14D-02 DFR=  3.79D-03 which will be used.
 Gradient too large for Newton-Raphson -- use scaled steepest descent instead.
     Minimum is close to point  2 DX=  6.12D-02 DF= -5.69D-07 DXR=  3.48D-02 DFR=  1.21D-03 which will be used.
 LinEq1:  Iter=  0 NonCon=     1 RMS=9.05D-04 Max=5.99D-03 NDo=     1
 LinEq1:  Iter=  1 NonCon=     1 RMS=4.45D-04 Max=3.36D-03 NDo=     1
 LinEq1:  Iter=  2 NonCon=     1 RMS=1.34D-05 Max=9.26D-05 NDo=     1
 LinEq1:  Iter=  3 NonCon=     1 RMS=4.65D-06 Max=3.84D-05 NDo=     1
 LinEq1:  Iter=  4 NonCon=     1 RMS=7.23D-07 Max=3.78D-06 NDo=     1
 LinEq1:  Iter=  5 NonCon=     1 RMS=1.68D-07 Max=9.21D-07 NDo=     1
 LinEq1:  Iter=  6 NonCon=     1 RMS=3.90D-08 Max=2.00D-07 NDo=     1
 LinEq1:  Iter=  7 NonCon=     1 RMS=1.17D-08 Max=7.16D-08 NDo=     1
 LinEq1:  Iter=  8 NonCon=     1 RMS=2.47D-09 Max=1.59D-08 NDo=     1
 LinEq1:  Iter=  9 NonCon=     0 RMS=5.46D-10 Max=3.99D-09 NDo=     1
 Linear equations converged to 2.252D-09 2.252D-08 after     9 iterations.
     Accept linear search using points  1 and  2.
 LinEq1:  Iter=  0 NonCon=     1 RMS=6.32D-04 Max=4.03D-03 NDo=     1
 LinEq1:  Iter=  1 NonCon=     1 RMS=1.29D-04 Max=9.59D-04 NDo=     1
 LinEq1:  Iter=  2 NonCon=     1 RMS=3.86D-05 Max=2.42D-04 NDo=     1
 LinEq1:  Iter=  3 NonCon=     1 RMS=1.24D-05 Max=7.81D-05 NDo=     1
 LinEq1:  Iter=  4 NonCon=     1 RMS=1.69D-06 Max=1.12D-05 NDo=     1
 LinEq1:  Iter=  5 NonCon=     1 RMS=2.54D-07 Max=1.44D-06 NDo=     1
 LinEq1:  Iter=  6 NonCon=     1 RMS=5.49D-08 Max=2.87D-07 NDo=     1
 LinEq1:  Iter=  7 NonCon=     1 RMS=1.30D-08 Max=8.91D-08 NDo=     1
 LinEq1:  Iter=  8 NonCon=     1 RMS=2.79D-09 Max=1.50D-08 NDo=     1
 LinEq1:  Iter=  9 NonCon=     0 RMS=6.19D-10 Max=4.06D-09 NDo=     1
 Linear equations converged to 2.252D-09 2.252D-08 after     9 iterations.
 Incorrect curvature in search direction -- initial direction reversed.
 LinEq1:  Iter=  0 NonCon=     1 RMS=8.15D-04 Max=5.43D-03 NDo=     1
 LinEq1:  Iter=  1 NonCon=     1 RMS=1.80D-04 Max=1.71D-03 NDo=     1
 LinEq1:  Iter=  2 NonCon=     1 RMS=4.19D-05 Max=3.11D-04 NDo=     1
 LinEq1:  Iter=  3 NonCon=     1 RMS=1.45D-05 Max=8.80D-05 NDo=     1
 LinEq1:  Iter=  4 NonCon=     1 RMS=2.27D-06 Max=1.23D-05 NDo=     1
 LinEq1:  Iter=  5 NonCon=     1 RMS=3.27D-07 Max=2.11D-06 NDo=     1
 LinEq1:  Iter=  6 NonCon=     1 RMS=6.43D-08 Max=2.92D-07 NDo=     1
 LinEq1:  Iter=  7 NonCon=     1 RMS=1.45D-08 Max=1.15D-07 NDo=     1
 LinEq1:  Iter=  8 NonCon=     1 RMS=2.91D-09 Max=1.69D-08 NDo=     1
 LinEq1:  Iter=  9 NonCon=     0 RMS=5.10D-10 Max=2.73D-09 NDo=     1
 Linear equations converged to 2.252D-09 2.252D-08 after     9 iterations.
 LinEq1:  Iter=  0 NonCon=     1 RMS=3.95D-04 Max=2.43D-03 NDo=     1
 LinEq1:  Iter=  1 NonCon=     1 RMS=9.35D-05 Max=4.69D-04 NDo=     1
 LinEq1:  Iter=  2 NonCon=     1 RMS=1.88D-05 Max=1.26D-04 NDo=     1
 LinEq1:  Iter=  3 NonCon=     1 RMS=2.63D-06 Max=1.54D-05 NDo=     1
 LinEq1:  Iter=  4 NonCon=     1 RMS=4.74D-07 Max=2.81D-06 NDo=     1
 LinEq1:  Iter=  5 NonCon=     1 RMS=1.07D-07 Max=5.88D-07 NDo=     1
 LinEq1:  Iter=  6 NonCon=     1 RMS=2.30D-08 Max=1.71D-07 NDo=     1
 LinEq1:  Iter=  7 NonCon=     1 RMS=3.78D-09 Max=2.56D-08 NDo=     1
 LinEq1:  Iter=  8 NonCon=     0 RMS=7.05D-10 Max=4.21D-09 NDo=     1
 Linear equations converged to 2.252D-09 2.252D-08 after     8 iterations.
     Minimum is close to point  2 DX=  9.72D-02 DF= -1.61D-06 DXR=  8.86D-02 DFR=  7.91D-03 which will be used.
 LinEq1:  Iter=  0 NonCon=     1 RMS=2.54D-05 Max=2.07D-04 NDo=     1
 LinEq1:  Iter=  1 NonCon=     1 RMS=3.36D-06 Max=3.53D-05 NDo=     1
 LinEq1:  Iter=  2 NonCon=     1 RMS=5.22D-07 Max=4.22D-06 NDo=     1
 LinEq1:  Iter=  3 NonCon=     1 RMS=1.25D-07 Max=1.07D-06 NDo=     1
 LinEq1:  Iter=  4 NonCon=     1 RMS=3.06D-08 Max=1.68D-07 NDo=     1
 LinEq1:  Iter=  5 NonCon=     1 RMS=4.84D-09 Max=2.45D-08 NDo=     1
 LinEq1:  Iter=  6 NonCon=     0 RMS=1.30D-09 Max=7.06D-09 NDo=     1
 Linear equations converged to 2.252D-09 2.252D-08 after     6 iterations.
     Minimum is close to point  2 DX=  1.21D-02 DF= -1.73D-10 DXR=  1.20D-02 DFR=  1.44D-04 which will be used.
 LinEq1:  Iter=  0 NonCon=     1 RMS=3.82D-07 Max=2.62D-06 NDo=     1
 LinEq1:  Iter=  1 NonCon=     1 RMS=1.30D-07 Max=7.33D-07 NDo=     1
 LinEq1:  Iter=  2 NonCon=     1 RMS=2.25D-08 Max=1.37D-07 NDo=     1
 LinEq1:  Iter=  3 NonCon=     1 RMS=5.31D-09 Max=3.87D-08 NDo=     1
 LinEq1:  Iter=  4 NonCon=     1 RMS=1.08D-09 Max=9.21D-09 NDo=     1
 LinEq1:  Iter=  5 NonCon=     1 RMS=2.85D-10 Max=2.44D-09 NDo=     1
 LinEq1:  Iter=  6 NonCon=     1 RMS=4.69D-11 Max=2.77D-10 NDo=     1
 LinEq1:  Iter=  7 NonCon=     0 RMS=9.40D-12 Max=5.91D-11 NDo=     1
 Linear equations converged to 4.640D-11 4.640D-10 after     7 iterations.
 SCF Done:  E(UAM1) =  0.590508540070     a.u. after   19 cycles
            Convg  =    0.4622D-07                   152 Fock formations.
              S**2 =  2.4705                  -V/T =  1.0087
 <Sx>= 0.0000 <Sy>= 0.0000 <Sz>= 0.5000 <S**2>= 2.4705 S= 1.1494
 <L.S>=  0.00000000000    
 Annihilation of the first spin contaminant:
 S**2 before annihilation     2.4705,   after     5.5994

 **********************************************************************

            Population analysis using the SCF Density.

 **********************************************************************

 Orbital symmetries:
 Alpha Orbitals:
       Occupied  (A') (A') (A') (A') (A') (A') (A') (A') (A") (A')
                 (A") (A') (A') (A') (A') (A") (A') (A")
       Virtual   (A') (A') (A') (A") (A") (A') (A') (A") (A') (A')
                 (A') (A') (A') (A')
 Beta  Orbitals:
       Occupied  (A') (A') (A') (A') (A') (A') (A') (A') (A") (A')
                 (A") (A') (A') (A') (A') (A") (A")
       Virtual   (A') (A") (A') (A') (A') (A") (A') (A') (A") (A')
                 (A') (A') (A') (A') (A')
 The electronic state is 2-A'.
 Alpha  occ. eigenvalues --   -1.40178  -1.35428  -1.09637  -1.08684  -0.79361
 Alpha  occ. eigenvalues --   -0.78636  -0.59774  -0.57662  -0.51787  -0.47965
 Alpha  occ. eigenvalues --   -0.45386  -0.44633  -0.44450  -0.42542  -0.39417
 Alpha  occ. eigenvalues --   -0.37610  -0.37123  -0.36027
 Alpha virt. eigenvalues --   -0.01147   0.02196   0.02550   0.03433   0.03553
 Alpha virt. eigenvalues --    0.04015   0.05165   0.10653   0.15988   0.16204
 Alpha virt. eigenvalues --    0.18643   0.18845   0.19319   0.20915
  Beta  occ. eigenvalues --   -1.40056  -1.35348  -1.09832  -1.07995  -0.80610
  Beta  occ. eigenvalues --   -0.77385  -0.57747  -0.57466  -0.51328  -0.50970
  Beta  occ. eigenvalues --   -0.44753  -0.44308  -0.43502  -0.40275  -0.38229
  Beta  occ. eigenvalues --   -0.37173  -0.36734
  Beta virt. eigenvalues --   -0.01403   0.02167   0.02404   0.02814   0.03699
  Beta virt. eigenvalues --    0.04257   0.04832   0.06023   0.10817   0.15932
  Beta virt. eigenvalues --    0.16142   0.18229   0.19246   0.19482   0.21477
          Condensed to atoms (all electrons):
               1          2          3          4          5          6
     1  C    4.134896   0.000000   0.000000   0.000000   0.000000   0.000000
     2  C    0.000000   4.030915   0.000000   0.000000   0.000000   0.000000
     3  C    0.000000   0.000000   4.126561   0.000000   0.000000   0.000000
     4  C    0.000000   0.000000   0.000000   4.118013   0.000000   0.000000
     5  C    0.000000   0.000000   0.000000   0.000000   4.129083   0.000000
     6  C    0.000000   0.000000   0.000000   0.000000   0.000000   4.040787
     7  H    0.000000   0.000000   0.000000   0.000000   0.000000   0.000000
     8  Cl   0.000000   0.000000   0.000000   0.000000   0.000000   0.000000
     9  H    0.000000   0.000000   0.000000   0.000000   0.000000   0.000000
    10  H    0.000000   0.000000   0.000000   0.000000   0.000000   0.000000
    11  H    0.000000   0.000000   0.000000   0.000000   0.000000   0.000000
               7          8          9         10         11
     1  C    0.000000   0.000000   0.000000   0.000000   0.000000
     2  C    0.000000   0.000000   0.000000   0.000000   0.000000
     3  C    0.000000   0.000000   0.000000   0.000000   0.000000
     4  C    0.000000   0.000000   0.000000   0.000000   0.000000
     5  C    0.000000   0.000000   0.000000   0.000000   0.000000
     6  C    0.000000   0.000000   0.000000   0.000000   0.000000
     7  H    0.828593   0.000000   0.000000   0.000000   0.000000
     8  Cl   0.000000   7.037047   0.000000   0.000000   0.000000
     9  H    0.000000   0.000000   0.842240   0.000000   0.000000
    10  H    0.000000   0.000000   0.000000   0.858280   0.000000
    11  H    0.000000   0.000000   0.000000   0.000000   0.853585
          Atomic-Atomic Spin Densities.
               1          2          3          4          5          6
     1  C   -1.024934   0.000000   0.000000   0.000000   0.000000   0.000000
     2  C    0.000000   0.620268   0.000000   0.000000   0.000000   0.000000
     3  C    0.000000   0.000000  -1.035109   0.000000   0.000000   0.000000
     4  C    0.000000   0.000000   0.000000   1.056977   0.000000   0.000000
     5  C    0.000000   0.000000   0.000000   0.000000  -1.059639   0.000000
     6  C    0.000000   0.000000   0.000000   0.000000   0.000000   1.517371
     7  H    0.000000   0.000000   0.000000   0.000000   0.000000   0.000000
     8  Cl   0.000000   0.000000   0.000000   0.000000   0.000000   0.000000
     9  H    0.000000   0.000000   0.000000   0.000000   0.000000   0.000000
    10  H    0.000000   0.000000   0.000000   0.000000   0.000000   0.000000
    11  H    0.000000   0.000000   0.000000   0.000000   0.000000   0.000000
               7          8          9         10         11
     1  C    0.000000   0.000000   0.000000   0.000000   0.000000
     2  C    0.000000   0.000000   0.000000   0.000000   0.000000
     3  C    0.000000   0.000000   0.000000   0.000000   0.000000
     4  C    0.000000   0.000000   0.000000   0.000000   0.000000
     5  C    0.000000   0.000000   0.000000   0.000000   0.000000
     6  C    0.000000   0.000000   0.000000   0.000000   0.000000
     7  H    0.451014   0.000000   0.000000   0.000000   0.000000
     8  Cl   0.000000   0.000237   0.000000   0.000000   0.000000
     9  H    0.000000   0.000000   0.466994   0.000000   0.000000
    10  H    0.000000   0.000000   0.000000  -0.474635   0.000000
    11  H    0.000000   0.000000   0.000000   0.000000   0.481455
 Mulliken charges and spin densities:
               1          2
     1  C   -0.134896  -1.024934
     2  C   -0.030915   0.620268
     3  C   -0.126561  -1.035109
     4  C   -0.118013   1.056977
     5  C   -0.129083  -1.059639
     6  C   -0.040787   1.517371
     7  H    0.171407   0.451014
     8  Cl  -0.037047   0.000237
     9  H    0.157760   0.466994
    10  H    0.141720  -0.474635
    11  H    0.146415   0.481455
 Sum of Mulliken charges =  -0.00000   1.00000
 Mulliken charges and spin densities with hydrogens summed into heavy atoms:
               1          2
     1  C    0.036511  -0.573920
     2  C   -0.030915   0.620268
     3  C    0.031199  -0.568115
     4  C    0.023708   0.582343
     5  C    0.017331  -0.578184
     6  C   -0.040787   1.517371
     8  Cl  -0.037047   0.000237
 Charge=             -0.0000 electrons
 Dipole moment (field-independent basis, Debye):
    X=              1.1332    Y=             -1.0233    Z=              0.0000  Tot=              1.5268
 N-N= 1.476743324324D+02 E-N=-2.027687983223D+02  KE=-6.789872727537D+01
 Symmetry A'   KE=-5.312208578284D+01
 Symmetry A"   KE=-1.477664149253D+01
 Symmetry A'   SP= 1.000000000000D+00
 Symmetry A"   SP=-2.220446049250D-16
 Calling FoFJK, ICntrl=      2127 FMM=F ISym2X=1 I1Cent= 0 IOpClX= 1 NMat=1 NMatS=1 NMatT=0.
 ***** Axes restored to original set *****
 -------------------------------------------------------------------
 Center     Atomic                   Forces (Hartrees/Bohr)
 Number     Number              X              Y              Z
 -------------------------------------------------------------------
      1        6          -0.072876642    0.004285601    0.000000000
      2        6          -0.000509729    0.027114346    0.000000000
      3        6           0.062276524    0.013134747    0.000000000
      4        6           0.047359941   -0.025404865    0.000000000
      5        6          -0.008611159   -0.059826611    0.000000000
      6        6           0.056354183    0.034263576    0.000000000
      7        1           0.086332039   -0.046529493   -0.000000000
      8       17           0.000660518   -0.038212636    0.000000000
      9        1          -0.082869745   -0.050224333   -0.000000000
     10        1          -0.085076273    0.045831416   -0.000000000
     11        1          -0.003039656    0.095568252   -0.000000000
 -------------------------------------------------------------------
 Cartesian Forces:  Max     0.095568252 RMS     0.042624859

 GradGradGradGradGradGradGradGradGradGradGradGradGradGradGradGradGradGrad
 Berny optimization.
 FormGI is forming the generalized inverse of G from B-inverse, IUseBI=4.
 Internal  Forces:  Max     0.098072337 RMS     0.032231729
 Search for a local minimum.
 Step number   1 out of a maximum of   57
 All quantities printed in internal units (Hartrees-Bohrs-Radians)
 Mixed Optimization -- RFO/linear search
 Second derivative matrix not updated -- first step.
 ITU=  0
     Eigenvalues ---    0.02011   0.02011   0.02011   0.02011   0.02011
     Eigenvalues ---    0.02011   0.02011   0.02011   0.06524   0.06524
     Eigenvalues ---    0.06524   0.06524   0.16000   0.16000   0.16000
     Eigenvalues ---    0.16000   0.22000   0.23188   0.23485   0.25000
     Eigenvalues ---    0.29033   0.40816   0.41378   0.44656   0.44657
     Eigenvalues ---    0.44657   0.44657
 RFO step:  Lambda=-1.75271076D-01 EMin= 2.01065650D-02
 Linear search not attempted -- first point.
 Maximum step size (   0.300) exceeded in Quadratic search.
    -- Step size scaled by   0.363
 Iteration  1 RMS(Cart)=  0.04941124 RMS(Int)=  0.00005948
 Iteration  2 RMS(Cart)=  0.00011406 RMS(Int)=  0.00001056
 Iteration  3 RMS(Cart)=  0.00000001 RMS(Int)=  0.00001056
 ClnCor:  largest displacement from symmetrization is 2.24D-12 for atom    10.
 Variable       Old X    -DE/DX   Delta X   Delta X   Delta X     New X
                                 (Linear)    (Quad)   (Total)
    R1        2.65676  -0.02259   0.00000  -0.01287  -0.01288   2.64389
    R2        2.65677  -0.05101   0.00000  -0.02992  -0.02991   2.62686
    R3        3.33635  -0.09807   0.00000  -0.14815  -0.14815   3.18820
    R4        2.65677  -0.01959   0.00000  -0.01101  -0.01102   2.64574
    R5        3.33634  -0.03822   0.00000  -0.02982  -0.02982   3.30652
    R6        2.65677  -0.03920   0.00000  -0.02279  -0.02280   2.63397
    R7        3.33633  -0.09690   0.00000  -0.14638  -0.14638   3.18996
    R8        2.65678  -0.04150   0.00000  -0.02457  -0.02457   2.63221
    R9        3.33633  -0.09664   0.00000  -0.14598  -0.14598   3.19036
   R10        2.65675  -0.05101   0.00000  -0.03025  -0.03023   2.62652
   R11        3.33632  -0.09562   0.00000  -0.14444  -0.14444   3.19189
    A1        2.09439  -0.00476   0.00000  -0.00392  -0.00391   2.09048
    A2        2.09439   0.00209   0.00000   0.00164   0.00163   2.09603
    A3        2.09440   0.00268   0.00000   0.00228   0.00228   2.09667
    A4        2.09439  -0.01090   0.00000  -0.00805  -0.00807   2.08633
    A5        2.09440   0.00480   0.00000   0.00347   0.00348   2.09788
    A6        2.09439   0.00610   0.00000   0.00458   0.00459   2.09898
    A7        2.09440   0.00254   0.00000   0.00336   0.00333   2.09772
    A8        2.09440  -0.00227   0.00000  -0.00276  -0.00275   2.09165
    A9        2.09439  -0.00027   0.00000  -0.00059  -0.00058   2.09382
   A10        2.09439   0.00115   0.00000   0.00084   0.00083   2.09522
   A11        2.09440  -0.00025   0.00000  -0.00007  -0.00007   2.09433
   A12        2.09440  -0.00090   0.00000  -0.00077  -0.00077   2.09363
   A13        2.09439  -0.00432   0.00000  -0.00508  -0.00507   2.08933
   A14        2.09439   0.00285   0.00000   0.00329   0.00328   2.09767
   A15        2.09440   0.00147   0.00000   0.00179   0.00179   2.09619
   A16        2.09440   0.01630   0.00000   0.01285   0.01289   2.10729
    D1        0.00000   0.00000   0.00000   0.00000   0.00000   0.00000
    D2        3.14159  -0.00000   0.00000  -0.00000   0.00000   3.14159
    D3        3.14159   0.00000   0.00000   0.00000   0.00000   3.14159
    D4        0.00000   0.00000   0.00000   0.00000   0.00000   0.00000
    D5        0.00000  -0.00000   0.00000  -0.00000   0.00000   0.00000
    D6        3.14159  -0.00000   0.00000  -0.00000   0.00000   3.14159
    D7        0.00000  -0.00000   0.00000  -0.00000   0.00000   0.00000
    D8        3.14159  -0.00000   0.00000  -0.00000   0.00000   3.14159
    D9        3.14159   0.00000   0.00000   0.00000   0.00000   3.14159
   D10        0.00000  -0.00000   0.00000  -0.00000   0.00000   0.00000
   D11        0.00000  -0.00000   0.00000  -0.00000   0.00000   0.00000
   D12        3.14159  -0.00000   0.00000  -0.00000   0.00000   3.14159
   D13        3.14159   0.00000   0.00000   0.00000   0.00000   3.14159
   D14        0.00000   0.00000   0.00000   0.00000   0.00000   0.00000
   D15        0.00000   0.00000   0.00000   0.00000   0.00000   0.00000
   D16        3.14159  -0.00000   0.00000  -0.00000   0.00000   3.14159
   D17        3.14159   0.00000   0.00000   0.00000   0.00000   3.14159
   D18        0.00000  -0.00000   0.00000   0.00000   0.00000   0.00000
   D19        0.00000  -0.00000   0.00000  -0.00000   0.00000   0.00000
   D20        3.14159   0.00000   0.00000   0.00000   0.00000   3.14159
         Item               Value     Threshold  Converged?
 Maximum Force            0.098072     0.000450     NO 
 RMS     Force            0.032232     0.000300     NO 
 Maximum Displacement     0.163488     0.001800     NO 
 RMS     Displacement     0.049426     0.001200     NO 
 Predicted change in Energy=-5.999789D-02
 GradGradGradGradGradGradGradGradGradGradGradGradGradGradGradGradGradGrad

                          Input orientation:                          
 ---------------------------------------------------------------------
 Center     Atomic      Atomic             Coordinates (Angstroms)
 Number     Number       Type             X           Y           Z
 ---------------------------------------------------------------------
      1          6           0       -3.194140    0.191981    0.000000
      2          6           0       -2.005103    0.929293    0.000000
      3          6           0       -0.776566    0.257813    0.000000
      4          6           0       -0.739325   -1.135525    0.000000
      5          6           0       -1.925977   -1.864939    0.000000
      6          6           0       -3.144978   -1.197225    0.000000
      7          1           0       -4.682346    0.986732    0.000000
      8         17           0       -2.054056    2.678344    0.000000
      9          1           0        0.662769    1.139764    0.000000
     10          1           0        0.744834   -1.940202    0.000000
     11          1           0       -1.884982   -3.553516    0.000000
 ---------------------------------------------------------------------
                    Distance matrix (angstroms):
                    1          2          3          4          5
     1  C    0.000000
     2  C    1.399085   0.000000
     3  C    2.418471   1.400068   0.000000
     4  C    2.790769   2.421914   1.393836   0.000000
     5  C    2.416435   2.795353   2.413964   1.392906   0.000000
     6  C    1.390075   2.412756   2.779660   2.406444   1.389895
     7  H    1.687124   2.677859   3.973216   4.477878   3.966056
     8  Cl   2.735286   1.749735   2.736960   4.034119   4.545088
     9  H    3.971655   2.676162   1.688053   2.672603   3.966087
    10  H    4.479032   3.974438   2.673187   1.688264   2.671872
    11  H    3.967700   4.484418   3.969233   2.675670   1.689074
                    6          7          8          9         10
     6  C    0.000000
     7  H    2.670799   0.000000
     8  Cl   4.026182   3.125613   0.000000
     9  H    4.467713   5.347306   3.122238   0.000000
    10  H    3.960133   6.166136   5.400440   3.081059   0.000000
    11  H    2.672021   5.332832   6.234152   5.340216   3.085242
                   11
    11  H    0.000000
 Stoichiometry    C6H4Cl(2)
 Framework group  CS[SG(C6H4Cl)]
 Deg. of freedom    19
 Full point group                 CS      NOp   2
 Largest Abelian subgroup         CS      NOp   2
 Largest concise Abelian subgroup C1      NOp   1
                         Standard orientation:                         
 ---------------------------------------------------------------------
 Center     Atomic      Atomic             Coordinates (Angstroms)
 Number     Number       Type             X           Y           Z
 ---------------------------------------------------------------------
      1          6           0       -1.271952   -0.092623   -0.000000
      2          6           0        0.000000    0.490110    0.000000
      3          6           0        1.134859   -0.329819   -0.000000
      4          6           0        0.997458   -1.716867   -0.000000
      5          6           0       -0.271138   -2.292062   -0.000000
      6          6           0       -1.397007   -1.477061   -0.000000
      7          1           0       -2.649013    0.882101    0.000000
      8         17           0        0.170291    2.231539    0.000000
      9          1           0        2.673240    0.365095    0.000000
     10          1           0        2.369264   -2.700932   -0.000000
     11          1           0       -0.441758   -3.972496   -0.000000
 ---------------------------------------------------------------------
 Rotational constants (GHZ):           5.5448231           1.5418994           1.2064194
 Standard basis: VSTO-6G (5D, 7F)
 There are    25 symmetry adapted cartesian basis functions of A'  symmetry.
 There are     7 symmetry adapted cartesian basis functions of A"  symmetry.
 There are    25 symmetry adapted basis functions of A'  symmetry.
 There are     7 symmetry adapted basis functions of A"  symmetry.
    32 basis functions,   192 primitive gaussians,    32 cartesian basis functions
    18 alpha electrons       17 beta electrons
       nuclear repulsion energy       148.7083080586 Hartrees.
 Integral buffers will be    131072 words long.
 Regular integral format.
 Two-electron integral symmetry is turned off.
 Do NDO integrals.
 One-electron integrals computed using PRISM.
 NBasis=    32 RedAO= T EigKep=  1.00D+00  NBF=    25     7
 NBsUse=    32 1.00D-06 EigRej= -1.00D+00 NBFU=    25     7
 Initial guess from the checkpoint file:  "geometry_chks/_3ClBzNeutralRadical.chk"
 B after Tr=    -0.000000   -0.000000    0.000000
         Rot=    0.998809    0.000000    0.000000    0.048799 Ang=   5.59 deg.
 Initial guess orbital symmetries:
 Alpha Orbitals:
       Occupied  (A') (A') (A') (A') (A') (A') (A') (A') (A") (A')
                 (A") (A') (A') (A') (A') (A") (A') (A")
       Virtual   (A') (A') (A') (A") (A") (A') (A') (A") (A') (A')
                 (A') (A') (A') (A')
 Beta  Orbitals:
       Occupied  (A') (A') (A') (A') (A') (A') (A') (A') (A") (A')
                 (A") (A') (A') (A') (A') (A") (A")
       Virtual   (A') (A") (A') (A') (A') (A") (A') (A') (A") (A')
                 (A') (A') (A') (A') (A')
 Initial guess <Sx>= 0.0000 <Sy>= 0.0000 <Sz>= 0.5000 <S**2>= 2.4705 S= 1.1494
 Keep J ints in memory in canonical form, NReq=862079.
 Overlap will be assumed to be unity.
 Requested convergence on RMS density matrix=1.00D-08 within  32 cycles.
 Requested convergence on MAX density matrix=1.00D-06.
 Requested convergence on             energy=1.00D-06.
 No special actions if energy rises.
 Fock symm off for IB=2 I1=    1 I=   26 J=   11 Cut=1.00D-07 Err=1.32D-03
 Fock matrix is not symmetric: symmetry in diagonalization turned off.
 SCF Done:  E(UAM1) =  0.522599975166     A.U. after   22 cycles
            NFock= 21  Conv=0.99D-08     -V/T= 1.0077
 <Sx>= 0.0000 <Sy>= 0.0000 <Sz>= 0.5000 <S**2>= 1.6670 S= 0.8846
 <L.S>=  0.00000000000    
 Annihilation of the first spin contaminant:
 S**2 before annihilation     1.6670,   after     1.9317
 QCSCF skips out because SCF is already converged.
 Calling FoFJK, ICntrl=      2127 FMM=F ISym2X=1 I1Cent= 0 IOpClX= 1 NMat=1 NMatS=1 NMatT=0.
 ***** Axes restored to original set *****
 -------------------------------------------------------------------
 Center     Atomic                   Forces (Hartrees/Bohr)
 Number     Number              X              Y              Z
 -------------------------------------------------------------------
      1        6          -0.098366934    0.025944371    0.000000000
      2        6           0.000308347    0.026564652   -0.000000000
      3        6           0.086185095    0.035788250    0.000000000
      4        6           0.081127161   -0.041632303   -0.000000000
      5        6          -0.007139644   -0.097763482    0.000000000
      6        6           0.039681400    0.025562662   -0.000000000
      7        1           0.100733034   -0.053568468   -0.000000000
      8       17           0.000546091   -0.029913786    0.000000000
      9        1          -0.097658966   -0.058968197    0.000000000
     10        1          -0.102166670    0.055266480   -0.000000000
     11        1          -0.003248913    0.112719821    0.000000000
 -------------------------------------------------------------------
 Cartesian Forces:  Max     0.112719821 RMS     0.053100909

 GradGradGradGradGradGradGradGradGradGradGradGradGradGradGradGradGradGrad
 Berny optimization.
 Using GEDIIS/GDIIS optimizer.
 FormGI is forming the generalized inverse of G from B-inverse, IUseBI=4.
 Internal  Forces:  Max     0.116156791 RMS     0.034755399
 Search for a local minimum.
 Step number   2 out of a maximum of   57
 All quantities printed in internal units (Hartrees-Bohrs-Radians)
 Mixed Optimization -- RFO/linear search
 Update second derivatives using D2CorX and points    1    2
 DE= -6.79D-02 DEPred=-6.00D-02 R= 1.13D+00
 TightC=F SS=  1.41D+00  RLast= 3.00D-01 DXNew= 5.0454D-01 9.0000D-01
 Trust test= 1.13D+00 RLast= 3.00D-01 DXMaxT set to 5.05D-01
 ITU=  1  0
 Use linear search instead of GDIIS.
     Eigenvalues ---   -0.19416   0.02011   0.02011   0.02011   0.02011
     Eigenvalues ---    0.02011   0.02011   0.02011   0.02011   0.06447
     Eigenvalues ---    0.06524   0.06524   0.14728   0.15999   0.16000
     Eigenvalues ---    0.16000   0.16008   0.22000   0.23158   0.23634
     Eigenvalues ---    0.25002   0.30761   0.40856   0.41469   0.44639
     Eigenvalues ---    0.44657   0.44657
 RFO step:  Lambda=-3.22796265D-01 EMin=-1.94160293D-01
 Skip linear search -- no minimum in search direction.
 Maximum step size (   0.505) exceeded in Quadratic search.
    -- Step size scaled by   0.482
 Iteration  1 RMS(Cart)=  0.05125827 RMS(Int)=  0.01488379
 Iteration  2 RMS(Cart)=  0.01461107 RMS(Int)=  0.00000951
 Iteration  3 RMS(Cart)=  0.00000345 RMS(Int)=  0.00000934
 Iteration  4 RMS(Cart)=  0.00000000 RMS(Int)=  0.00000934
 ClnCor:  largest displacement from symmetrization is 6.22D-10 for atom    10.
 Variable       Old X    -DE/DX   Delta X   Delta X   Delta X     New X
                                 (Linear)    (Quad)   (Total)
    R1        2.64389  -0.01130   0.00000   0.01739   0.01738   2.66127
    R2        2.62686  -0.03211   0.00000   0.01609   0.01609   2.64295
    R3        3.18820  -0.11409   0.00000  -0.24371  -0.24371   2.94449
    R4        2.64574  -0.00913   0.00000   0.01764   0.01762   2.66337
    R5        3.30652  -0.02992   0.00000  -0.00962  -0.00962   3.29690
    R6        2.63397  -0.02173   0.00000   0.02316   0.02316   2.65713
    R7        3.18996  -0.11408   0.00000  -0.24890  -0.24890   2.94106
    R8        2.63221  -0.02241   0.00000   0.02665   0.02666   2.65887
    R9        3.19036  -0.11616   0.00000  -0.26253  -0.26253   2.92783
   R10        2.62652  -0.03110   0.00000   0.01988   0.01990   2.64642
   R11        3.19189  -0.11277   0.00000  -0.24679  -0.24679   2.94510
    A1        2.09048  -0.00523   0.00000  -0.00875  -0.00876   2.08172
    A2        2.09603   0.00230   0.00000   0.00385   0.00386   2.09988
    A3        2.09667   0.00293   0.00000   0.00490   0.00491   2.10158
    A4        2.08633  -0.00777   0.00000   0.00048   0.00045   2.08677
    A5        2.09788   0.00340   0.00000  -0.00028  -0.00027   2.09761
    A6        2.09898   0.00436   0.00000  -0.00020  -0.00018   2.09880
    A7        2.09772   0.00281   0.00000   0.00482   0.00481   2.10253
    A8        2.09165  -0.00259   0.00000  -0.00476  -0.00475   2.08690
    A9        2.09382  -0.00022   0.00000  -0.00007  -0.00006   2.09376
   A10        2.09522   0.00061   0.00000  -0.00042  -0.00041   2.09481
   A11        2.09433  -0.00013   0.00000  -0.00010  -0.00011   2.09423
   A12        2.09363  -0.00048   0.00000   0.00053   0.00052   2.09415
   A13        2.08933  -0.00620   0.00000  -0.01402  -0.01399   2.07534
   A14        2.09767   0.00392   0.00000   0.00863   0.00861   2.10628
   A15        2.09619   0.00228   0.00000   0.00539   0.00538   2.10157
   A16        2.10729   0.01577   0.00000   0.01789   0.01791   2.12520
    D1        0.00000  -0.00000   0.00000  -0.00000  -0.00000   0.00000
    D2        3.14159   0.00000   0.00000   0.00000   0.00000   3.14159
    D3        3.14159   0.00000   0.00000  -0.00000   0.00000   3.14159
    D4       -0.00000   0.00000   0.00000   0.00000   0.00000   0.00000
    D5       -0.00000   0.00000   0.00000   0.00000   0.00000   0.00000
    D6        3.14159  -0.00000   0.00000   0.00000   0.00000   3.14159
    D7       -0.00000   0.00000   0.00000   0.00000   0.00000   0.00000
    D8        3.14159  -0.00000   0.00000   0.00000   0.00000   3.14159
    D9        3.14159  -0.00000   0.00000  -0.00000   0.00000   3.14159
   D10        0.00000  -0.00000   0.00000   0.00000  -0.00000   0.00000
   D11       -0.00000  -0.00000   0.00000  -0.00000   0.00000   0.00000
   D12        3.14159  -0.00000   0.00000   0.00000   0.00000   3.14159
   D13        3.14159  -0.00000   0.00000  -0.00000   0.00000   3.14159
   D14        0.00000  -0.00000   0.00000  -0.00000   0.00000   0.00000
   D15        0.00000   0.00000   0.00000   0.00000   0.00000   0.00000
   D16        3.14159   0.00000   0.00000   0.00000   0.00000   3.14159
   D17        3.14159   0.00000   0.00000  -0.00000   0.00000   3.14159
   D18       -0.00000   0.00000   0.00000   0.00000   0.00000   0.00000
   D19        0.00000  -0.00000   0.00000  -0.00000  -0.00000   0.00000
   D20        3.14159  -0.00000   0.00000  -0.00000   0.00000   3.14159
         Item               Value     Threshold  Converged?
 Maximum Force            0.116157     0.000450     NO 
 RMS     Force            0.034755     0.000300     NO 
 Maximum Displacement     0.211540     0.001800     NO 
 RMS     Displacement     0.065562     0.001200     NO 
 Predicted change in Energy=-1.336671D-01
 GradGradGradGradGradGradGradGradGradGradGradGradGradGradGradGradGradGrad

                          Input orientation:                          
 ---------------------------------------------------------------------
 Center     Atomic      Atomic             Coordinates (Angstroms)
 Number     Number       Type             X           Y           Z
 ---------------------------------------------------------------------
      1          6           0       -3.194092    0.193568   -0.000000
      2          6           0       -1.996271    0.934164    0.000000
      3          6           0       -0.760129    0.257152    0.000000
      4          6           0       -0.717010   -1.148278    0.000000
      5          6           0       -1.913069   -1.889316   -0.000000
      6          6           0       -3.134205   -1.203739   -0.000000
      7          1           0       -4.570404    0.924061   -0.000000
      8         17           0       -2.043271    2.678176    0.000000
      9          1           0        0.563726    1.075448    0.000000
     10          1           0        0.648007   -1.881206    0.000000
     11          1           0       -1.883153   -3.447509   -0.000000
 ---------------------------------------------------------------------
                    Distance matrix (angstroms):
                    1          2          3          4          5
     1  C    0.000000
     2  C    1.408281   0.000000
     3  C    2.434793   1.409394   0.000000
     4  C    2.817177   2.443987   1.406091   0.000000
     5  C    2.445286   2.824705   2.436512   1.407015   0.000000
     6  C    1.398590   2.421884   2.787550   2.417831   1.400424
     7  H    1.558157   2.574153   3.868199   4.375298   3.869951
     8  Cl   2.738187   1.744646   2.740039   4.049781   4.569347
     9  H    3.859910   2.563892   1.556342   2.566173   3.863202
    10  H    4.366510   3.862449   2.560356   1.549340   2.561088
    11  H    3.869884   4.383132   3.871135   2.578051   1.558480
                    6          7          8          9         10
     6  C    0.000000
     7  H    2.567139   0.000000
     8  Cl   4.032295   3.076252   0.000000
     9  H    4.343890   5.136361   3.060256   0.000000
    10  H    3.842406   5.924638   5.294426   2.957855   0.000000
    11  H    2.568975   5.131465   6.127777   5.142407   2.976587
                   11
    11  H    0.000000
 Stoichiometry    C6H4Cl(2)
 Framework group  CS[SG(C6H4Cl)]
 Deg. of freedom    19
 Full point group                 CS      NOp   2
 Largest Abelian subgroup         CS      NOp   2
 Largest concise Abelian subgroup C1      NOp   1
                         Standard orientation:                         
 ---------------------------------------------------------------------
 Center     Atomic      Atomic             Coordinates (Angstroms)
 Number     Number       Type             X           Y           Z
 ---------------------------------------------------------------------
      1          6           0       -1.280391   -0.088051   -0.000000
      2          6           0        0.000000    0.498339    0.000000
      3          6           0        1.142678   -0.326693    0.000000
      4          6           0        1.011236   -1.726627    0.000000
      5          6           0       -0.267462   -2.313674   -0.000000
      6          6           0       -1.394189   -1.482004   -0.000000
      7          1           0       -2.555529    0.807426   -0.000000
      8         17           0        0.169565    2.234726    0.000000
      9          1           0        2.557764    0.321175    0.000000
     10          1           0        2.274863   -2.623120    0.000000
     11          1           0       -0.430943   -3.863556   -0.000000
 ---------------------------------------------------------------------
 Rotational constants (GHZ):           5.5974854           1.5376998           1.2063110
 Standard basis: VSTO-6G (5D, 7F)
 There are    25 symmetry adapted cartesian basis functions of A'  symmetry.
 There are     7 symmetry adapted cartesian basis functions of A"  symmetry.
 There are    25 symmetry adapted basis functions of A'  symmetry.
 There are     7 symmetry adapted basis functions of A"  symmetry.
    32 basis functions,   192 primitive gaussians,    32 cartesian basis functions
    18 alpha electrons       17 beta electrons
       nuclear repulsion energy       149.0613565080 Hartrees.
 Integral buffers will be    131072 words long.
 Regular integral format.
 Two-electron integral symmetry is turned off.
 Do NDO integrals.
 One-electron integrals computed using PRISM.
 NBasis=    32 RedAO= T EigKep=  1.00D+00  NBF=    25     7
 NBsUse=    32 1.00D-06 EigRej= -1.00D+00 NBFU=    25     7
 Initial guess from the checkpoint file:  "geometry_chks/_3ClBzNeutralRadical.chk"
 B after Tr=     0.000000   -0.000000   -0.000000
         Rot=    1.000000   -0.000000   -0.000000   -0.000512 Ang=  -0.06 deg.
 Initial guess orbital symmetries:
 Alpha Orbitals:
       Occupied  (A') (A') (A') (A') (A') (A') (A') (A') (A") (A')
                 (A") (A') (A') (A') (A') (A") (A') (A")
       Virtual   (A') (A') (A") (A') (A") (A') (A') (A") (A') (A')
                 (A') (A') (A') (A')
 Beta  Orbitals:
       Occupied  (A') (A') (A') (A') (A') (A') (A') (A') (A") (A')
                 (A") (A') (A') (A') (A') (A") (A")
       Virtual   (A') (A") (A') (A') (A') (A") (A') (A') (A") (A')
                 (A') (A') (A') (A') (A')
 Initial guess <Sx>= 0.0000 <Sy>= 0.0000 <Sz>= 0.5000 <S**2>= 1.6670 S= 0.8846
 Keep J ints in memory in canonical form, NReq=862079.
 Overlap will be assumed to be unity.
 Requested convergence on RMS density matrix=1.00D-08 within  32 cycles.
 Requested convergence on MAX density matrix=1.00D-06.
 Requested convergence on             energy=1.00D-06.
 No special actions if energy rises.
 Fock symm off for IB=2 I1=    1 I=   26 J=   17 Cut=1.00D-07 Err=4.05D-04
 Fock matrix is not symmetric: symmetry in diagonalization turned off.
 SCF Done:  E(UAM1) =  0.405080465791     A.U. after   21 cycles
            NFock= 20  Conv=0.49D-08     -V/T= 1.0059
 <Sx>= 0.0000 <Sy>= 0.0000 <Sz>= 0.5000 <S**2>= 1.3501 S= 0.7649
 <L.S>=  0.00000000000    
 Annihilation of the first spin contaminant:
 S**2 before annihilation     1.3501,   after     1.1049
 QCSCF skips out because SCF is already converged.
 Calling FoFJK, ICntrl=      2127 FMM=F ISym2X=1 I1Cent= 0 IOpClX= 1 NMat=1 NMatS=1 NMatT=0.
 ***** Axes restored to original set *****
 -------------------------------------------------------------------
 Center     Atomic                   Forces (Hartrees/Bohr)
 Number     Number              X              Y              Z
 -------------------------------------------------------------------
      1        6          -0.095710981    0.027067300    0.000000000
      2        6           0.001213397    0.009560573   -0.000000000
      3        6           0.083852380    0.035723727    0.000000000
      4        6           0.074763914   -0.038979581    0.000000000
      5        6          -0.005914713   -0.093567929    0.000000000
      6        6           0.048197211    0.029151237   -0.000000000
      7        1           0.106967377   -0.056657245   -0.000000000
      8       17           0.000532396   -0.028489462   -0.000000000
      9        1          -0.103372869   -0.063327912   -0.000000000
     10        1          -0.107862803    0.057835672   -0.000000000
     11        1          -0.002665308    0.121683619   -0.000000000
 -------------------------------------------------------------------
 Cartesian Forces:  Max     0.121683619 RMS     0.054305253

 GradGradGradGradGradGradGradGradGradGradGradGradGradGradGradGradGradGrad
 Berny optimization.
 Using GEDIIS/GDIIS optimizer.
 FormGI is forming the generalized inverse of G from B-inverse, IUseBI=4.
 Internal  Forces:  Max     0.122390131 RMS     0.037805901
 Search for a local minimum.
 Step number   3 out of a maximum of   57
 All quantities printed in internal units (Hartrees-Bohrs-Radians)
 Mixed Optimization -- RFO/linear search
 Update second derivatives using D2CorX and points    2    3
 DE= -1.18D-01 DEPred=-1.34D-01 R= 8.79D-01
 TightC=F SS=  1.41D+00  RLast= 5.05D-01 DXNew= 8.4853D-01 1.5136D+00
 Trust test= 8.79D-01 RLast= 5.05D-01 DXMaxT set to 8.49D-01
 ITU=  1  1  0
 Use linear search instead of GDIIS.
     Eigenvalues ---   -0.05263   0.02011   0.02011   0.02011   0.02011
     Eigenvalues ---    0.02011   0.02011   0.02011   0.02011   0.06048
     Eigenvalues ---    0.06506   0.06524   0.09178   0.15996   0.16000
     Eigenvalues ---    0.16000   0.16004   0.21996   0.22938   0.23260
     Eigenvalues ---    0.24999   0.28749   0.40593   0.40935   0.44521
     Eigenvalues ---    0.44656   0.44657
 RFO step:  Lambda=-2.86070332D-01 EMin=-5.26258098D-02
 Skip linear search -- no minimum in search direction.
 Maximum step size (   0.849) exceeded in Quadratic search.
    -- Step size scaled by   0.846
 Iteration  1 RMS(Cart)=  0.10132800 RMS(Int)=  0.05772630
 Iteration  2 RMS(Cart)=  0.05653788 RMS(Int)=  0.00137870
 Iteration  3 RMS(Cart)=  0.00130968 RMS(Int)=  0.00013960
 Iteration  4 RMS(Cart)=  0.00000003 RMS(Int)=  0.00013960
 ClnCor:  largest displacement from symmetrization is 9.17D-09 for atom     7.
 Variable       Old X    -DE/DX   Delta X   Delta X   Delta X     New X
                                 (Linear)    (Quad)   (Total)
    R1        2.66127  -0.02272   0.00000  -0.08804  -0.08817   2.57310
    R2        2.64295  -0.04178   0.00000  -0.12970  -0.12959   2.51337
    R3        2.94449  -0.12105   0.00000  -0.39553  -0.39553   2.54896
    R4        2.66337  -0.02121   0.00000  -0.08638  -0.08661   2.57676
    R5        3.29690  -0.02849   0.00000  -0.07532  -0.07532   3.22158
    R6        2.65713  -0.03400   0.00000  -0.11856  -0.11867   2.53846
    R7        2.94106  -0.12123   0.00000  -0.39577  -0.39577   2.54529
    R8        2.65887  -0.03510   0.00000  -0.12329  -0.12316   2.53571
    R9        2.92783  -0.12239   0.00000  -0.38992  -0.38992   2.53791
   R10        2.64642  -0.04168   0.00000  -0.13294  -0.13271   2.51371
   R11        2.94510  -0.12171   0.00000  -0.40935  -0.40935   2.53575
    A1        2.08172  -0.00667   0.00000  -0.02456  -0.02461   2.05711
    A2        2.09988   0.00318   0.00000   0.01273   0.01276   2.11264
    A3        2.10158   0.00349   0.00000   0.01183   0.01185   2.11343
    A4        2.08677  -0.00556   0.00000  -0.00523  -0.00561   2.08116
    A5        2.09761   0.00239   0.00000   0.00185   0.00204   2.09965
    A6        2.09880   0.00317   0.00000   0.00338   0.00357   2.10237
    A7        2.10253   0.00143   0.00000  -0.00117  -0.00152   2.10101
    A8        2.08690  -0.00143   0.00000   0.00113   0.00131   2.08821
    A9        2.09376  -0.00001   0.00000   0.00003   0.00021   2.09397
   A10        2.09481   0.00126   0.00000   0.00597   0.00597   2.10078
   A11        2.09423  -0.00052   0.00000  -0.00295  -0.00295   2.09127
   A12        2.09415  -0.00073   0.00000  -0.00302  -0.00302   2.09113
   A13        2.07534  -0.00538   0.00000  -0.01282  -0.01249   2.06285
   A14        2.10628   0.00317   0.00000   0.00598   0.00582   2.11210
   A15        2.10157   0.00220   0.00000   0.00684   0.00667   2.10824
   A16        2.12520   0.01491   0.00000   0.03781   0.03825   2.16346
    D1        0.00000  -0.00000   0.00000  -0.00000   0.00000   0.00000
    D2        3.14159  -0.00000   0.00000  -0.00000   0.00000   3.14159
    D3        3.14159   0.00000   0.00000   0.00000   0.00000   3.14159
    D4       -0.00000   0.00000   0.00000   0.00000   0.00000   0.00000
    D5       -0.00000   0.00000   0.00000  -0.00000   0.00000   0.00000
    D6        3.14159  -0.00000   0.00000  -0.00000   0.00000   3.14159
    D7       -0.00000   0.00000   0.00000   0.00000   0.00000   0.00000
    D8        3.14159  -0.00000   0.00000  -0.00000   0.00000   3.14159
    D9        3.14159   0.00000   0.00000   0.00000   0.00000   3.14159
   D10       -0.00000  -0.00000   0.00000  -0.00000   0.00000   0.00000
   D11       -0.00000   0.00000   0.00000   0.00000   0.00000   0.00000
   D12        3.14159  -0.00000   0.00000  -0.00000   0.00000   3.14159
   D13        3.14159   0.00000   0.00000   0.00000   0.00000   3.14159
   D14        0.00000   0.00000   0.00000   0.00000   0.00000   0.00000
   D15       -0.00000  -0.00000   0.00000  -0.00000   0.00000   0.00000
   D16        3.14159  -0.00000   0.00000  -0.00000   0.00000   3.14159
   D17        3.14159   0.00000   0.00000   0.00000   0.00000   3.14159
   D18        0.00000  -0.00000   0.00000  -0.00000  -0.00000   0.00000
   D19        0.00000  -0.00000   0.00000   0.00000  -0.00000   0.00000
   D20        3.14159   0.00000   0.00000   0.00000   0.00000   3.14159
         Item               Value     Threshold  Converged?
 Maximum Force            0.122390     0.000450     NO 
 RMS     Force            0.037806     0.000300     NO 
 Maximum Displacement     0.520698     0.001800     NO 
 RMS     Displacement     0.154032     0.001200     NO 
 Predicted change in Energy=-2.383069D-01
 GradGradGradGradGradGradGradGradGradGradGradGradGradGradGradGradGradGrad

                          Input orientation:                          
 ---------------------------------------------------------------------
 Center     Atomic      Atomic             Coordinates (Angstroms)
 Number     Number       Type             X           Y           Z
 ---------------------------------------------------------------------
      1          6           0       -3.133354    0.161472   -0.000000
      2          6           0       -1.976512    0.879619    0.000000
      3          6           0       -0.783071    0.220076    0.000000
      4          6           0       -0.749023   -1.122788    0.000000
      5          6           0       -1.889219   -1.830240   -0.000000
      6          6           0       -3.041328   -1.165356   -0.000000
      7          1           0       -4.333870    0.776424   -0.000000
      8         17           0       -2.022041    2.583799    0.000000
      9          1           0        0.366247    0.922388    0.000000
     10          1           0        0.432696   -1.760909    0.000000
     11          1           0       -1.870395   -3.171967   -0.000000
 ---------------------------------------------------------------------
                    Distance matrix (angstroms):
                    1          2          3          4          5
     1  C    0.000000
     2  C    1.361624   0.000000
     3  C    2.351014   1.363561   0.000000
     4  C    2.708202   2.348694   1.343296   0.000000
     5  C    2.348359   2.711265   2.329669   1.341840   0.000000
     6  C    1.330016   2.305593   2.649368   2.292700   1.330197
     7  H    1.348853   2.359616   3.594120   4.056862   3.573656
     8  Cl   2.665086   1.704788   2.668751   3.919102   4.416037
     9  H    3.581368   2.343149   1.346912   2.329500   3.558663
    10  H    4.051205   3.574447   2.324304   1.343003   2.322949
    11  H    3.564672   4.052976   3.562055   2.335939   1.341860
                    6          7          8          9         10
     6  C    0.000000
     7  H    2.332633   0.000000
     8  Cl   3.885243   2.934478   0.000000
     9  H    3.996278   4.702383   2.909330   0.000000
    10  H    3.524701   5.399834   4.990212   2.684120   0.000000
    11  H    2.323267   4.653869   5.757764   4.665438   2.700984
                   11
    11  H    0.000000
 Stoichiometry    C6H4Cl(2)
 Framework group  CS[SG(C6H4Cl)]
 Deg. of freedom    19
 Full point group                 CS      NOp   2
 Largest Abelian subgroup         CS      NOp   2
 Largest concise Abelian subgroup C1      NOp   1
                         Standard orientation:                         
 ---------------------------------------------------------------------
 Center     Atomic      Atomic             Coordinates (Angstroms)
 Number     Number       Type             X           Y           Z
 ---------------------------------------------------------------------
      1          6           0       -1.239546   -0.093100    0.000000
      2          6           0        0.000000    0.470411   -0.000000
      3          6           0        1.098778   -0.337045    0.000000
      4          6           0        0.959955   -1.673148    0.000000
      5          6           0       -0.261708   -2.228193    0.000000
      6          6           0       -1.318810   -1.420752    0.000000
      7          1           0       -2.351071    0.671044   -0.000000
      8         17           0        0.173874    2.166309   -0.000000
      9          1           0        2.328826    0.211729   -0.000000
     10          1           0        2.049861   -2.457855    0.000000
     11          1           0       -0.415482   -3.561212    0.000000
 ---------------------------------------------------------------------
 Rotational constants (GHZ):           6.2351670           1.6535556           1.3069537
 Standard basis: VSTO-6G (5D, 7F)
 There are    25 symmetry adapted cartesian basis functions of A'  symmetry.
 There are     7 symmetry adapted cartesian basis functions of A"  symmetry.
 There are    25 symmetry adapted basis functions of A'  symmetry.
 There are     7 symmetry adapted basis functions of A"  symmetry.
    32 basis functions,   192 primitive gaussians,    32 cartesian basis functions
    18 alpha electrons       17 beta electrons
       nuclear repulsion energy       153.5068724801 Hartrees.
 Integral buffers will be    131072 words long.
 Regular integral format.
 Two-electron integral symmetry is turned off.
 Do NDO integrals.
 One-electron integrals computed using PRISM.
 NBasis=    32 RedAO= T EigKep=  1.00D+00  NBF=    25     7
 NBsUse=    32 1.00D-06 EigRej= -1.00D+00 NBFU=    25     7
 Initial guess from the checkpoint file:  "geometry_chks/_3ClBzNeutralRadical.chk"
 B after Tr=    -0.000000    0.000000    0.000000
         Rot=    0.999998    0.000000    0.000000    0.002001 Ang=   0.23 deg.
 Initial guess orbital symmetries:
 Alpha Orbitals:
       Occupied  (A') (A') (A') (A') (A') (A') (A') (A') (A") (A')
                 (A') (A") (A') (A') (A') (A') (A") (A")
       Virtual   (A") (A") (A') (A') (A') (A') (A') (A") (A') (A')
                 (A') (A') (A') (A')
 Beta  Orbitals:
       Occupied  (A') (A') (A') (A') (A') (A') (A') (A') (A') (A")
                 (A') (A") (A') (A') (A') (A") (A")
       Virtual   (A') (A") (A") (A') (A') (A') (A') (A') (A") (A')
                 (A') (A') (A') (A') (A')
 Initial guess <Sx>= 0.0000 <Sy>= 0.0000 <Sz>= 0.5000 <S**2>= 1.3501 S= 0.7649
 Keep J ints in memory in canonical form, NReq=862079.
 Overlap will be assumed to be unity.
 Requested convergence on RMS density matrix=1.00D-08 within  32 cycles.
 Requested convergence on MAX density matrix=1.00D-06.
 Requested convergence on             energy=1.00D-06.
 No special actions if energy rises.
 Fock symm off for IB=2 I1=    1 I=   26 J=    5 Cut=1.00D-07 Err=5.02D-03
 Fock matrix is not symmetric: symmetry in diagonalization turned off.
 SCF Done:  E(UAM1) =  0.232372689220     A.U. after   18 cycles
            NFock= 17  Conv=0.69D-08     -V/T= 1.0034
 <Sx>= 0.0000 <Sy>= 0.0000 <Sz>= 0.5000 <S**2>= 0.9507 S= 0.5957
 <L.S>=  0.00000000000    
 Annihilation of the first spin contaminant:
 S**2 before annihilation     0.9507,   after     0.7808
 QCSCF skips out because SCF is already converged.
 Calling FoFJK, ICntrl=      2127 FMM=F ISym2X=1 I1Cent= 0 IOpClX= 1 NMat=1 NMatS=1 NMatT=0.
 ***** Axes restored to original set *****
 -------------------------------------------------------------------
 Center     Atomic                   Forces (Hartrees/Bohr)
 Number     Number              X              Y              Z
 -------------------------------------------------------------------
      1        6          -0.151110474    0.073526746    0.000000000
      2        6           0.002405061    0.064614009    0.000000000
      3        6           0.130188688    0.089237826    0.000000000
      4        6           0.150075410   -0.073111675    0.000000000
      5        6          -0.009046139   -0.180313199    0.000000000
      6        6          -0.040077895   -0.021341274    0.000000000
      7        1           0.086929488   -0.044315972   -0.000000000
      8       17          -0.000071807   -0.000008511   -0.000000000
      9        1          -0.083009932   -0.050223748   -0.000000000
     10        1          -0.084703226    0.045799322   -0.000000000
     11        1          -0.001579173    0.096136476   -0.000000000
 -------------------------------------------------------------------
 Cartesian Forces:  Max     0.180313199 RMS     0.069042973

 GradGradGradGradGradGradGradGradGradGradGradGradGradGradGradGradGradGrad
 Berny optimization.
 Using GEDIIS/GDIIS optimizer.
 FormGI is forming the generalized inverse of G from B-inverse, IUseBI=4.
 Internal  Forces:  Max     0.097573590 RMS     0.036903109
 Search for a local minimum.
 Step number   4 out of a maximum of   57
 All quantities printed in internal units (Hartrees-Bohrs-Radians)
 Mixed Optimization -- RFO/linear search
 Update second derivatives using D2CorX and points    3    4
 DE= -1.73D-01 DEPred=-2.38D-01 R= 7.25D-01
 TightC=F SS=  1.41D+00  RLast= 8.49D-01 DXNew= 1.4270D+00 2.5456D+00
 Trust test= 7.25D-01 RLast= 8.49D-01 DXMaxT set to 1.43D+00
 ITU=  1  1  1  0
 Use linear search instead of GDIIS.
     Eigenvalues ---    0.02011   0.02011   0.02011   0.02011   0.02011
     Eigenvalues ---    0.02011   0.02011   0.02011   0.02088   0.06509
     Eigenvalues ---    0.06524   0.06559   0.15990   0.16000   0.16000
     Eigenvalues ---    0.16000   0.21996   0.23002   0.23276   0.24999
     Eigenvalues ---    0.28204   0.40012   0.40679   0.44519   0.44647
     Eigenvalues ---    0.44657   0.64494
 RFO step:  Lambda=-2.08729414D-01 EMin= 2.01065641D-02
 Quartic linear search produced a step of  0.55463.
 Iteration  1 RMS(Cart)=  0.05016788 RMS(Int)=  0.09615684
 Iteration  2 RMS(Cart)=  0.05772173 RMS(Int)=  0.03787588
 Iteration  3 RMS(Cart)=  0.03734434 RMS(Int)=  0.00019175
 Iteration  4 RMS(Cart)=  0.00001104 RMS(Int)=  0.00019142
 Iteration  5 RMS(Cart)=  0.00000000 RMS(Int)=  0.00019142
 ClnCor:  largest displacement from symmetrization is 2.29D-09 for atom     9.
 Variable       Old X    -DE/DX   Delta X   Delta X   Delta X     New X
                                 (Linear)    (Quad)   (Total)
    R1        2.57310   0.06325  -0.04890   0.15241   0.10325   2.67635
    R2        2.51337   0.06236  -0.07187   0.17717   0.10533   2.61870
    R3        2.54896  -0.09757  -0.21937  -0.30476  -0.52413   2.02484
    R4        2.57676   0.06087  -0.04804   0.14794   0.09963   2.67638
    R5        3.22158  -0.00001  -0.04178   0.03575  -0.00603   3.21555
    R6        2.53846   0.07111  -0.06582   0.19195   0.12611   2.66457
    R7        2.54529  -0.09702  -0.21950  -0.30917  -0.52868   2.01662
    R8        2.53571   0.07460  -0.06831   0.20587   0.13781   2.67352
    R9        2.53791  -0.09629  -0.21626  -0.32914  -0.54540   1.99251
   R10        2.51371   0.06359  -0.07360   0.18721   0.11387   2.62758
   R11        2.53575  -0.09615  -0.22704  -0.29202  -0.51906   2.01669
    A1        2.05711  -0.00231  -0.01365  -0.00504  -0.01896   2.03815
    A2        2.11264   0.00091   0.00708   0.00102   0.00823   2.12087
    A3        2.11343   0.00140   0.00657   0.00402   0.01073   2.12417
    A4        2.08116  -0.00071  -0.00311   0.00544   0.00175   2.08291
    A5        2.09965   0.00024   0.00113  -0.00233  -0.00092   2.09873
    A6        2.10237   0.00047   0.00198  -0.00310  -0.00083   2.10154
    A7        2.10101   0.00386  -0.00084   0.01438   0.01321   2.11422
    A8        2.08821  -0.00247   0.00073  -0.01188  -0.01099   2.07722
    A9        2.09397  -0.00138   0.00011  -0.00250  -0.00222   2.09174
   A10        2.10078  -0.00144   0.00331  -0.00582  -0.00229   2.09849
   A11        2.09127   0.00065  -0.00164   0.00216   0.00042   2.09169
   A12        2.09113   0.00079  -0.00167   0.00366   0.00187   2.09300
   A13        2.06285  -0.00997  -0.00693  -0.03180  -0.03819   2.02466
   A14        2.11210   0.00528   0.00323   0.01897   0.02193   2.13403
   A15        2.10824   0.00469   0.00370   0.01283   0.01627   2.12450
   A16        2.16346   0.01057   0.02122   0.02285   0.04448   2.20793
    D1        0.00000  -0.00000   0.00000   0.00000  -0.00000   0.00000
    D2        3.14159  -0.00000   0.00000   0.00000   0.00000   3.14159
    D3        3.14159   0.00000   0.00000  -0.00000   0.00000   3.14159
    D4       -0.00000   0.00000   0.00000   0.00000   0.00000   0.00000
    D5       -0.00000   0.00000   0.00000   0.00000   0.00000   0.00000
    D6        3.14159  -0.00000   0.00000   0.00000   0.00000   3.14159
    D7       -0.00000  -0.00000   0.00000  -0.00000   0.00000   0.00000
    D8        3.14159  -0.00000   0.00000   0.00000   0.00000   3.14159
    D9        3.14159   0.00000   0.00000  -0.00000   0.00000   3.14159
   D10        0.00000  -0.00000   0.00000   0.00000   0.00000   0.00000
   D11        0.00000   0.00000   0.00000  -0.00000  -0.00000   0.00000
   D12        3.14159  -0.00000   0.00000   0.00000   0.00000   3.14159
   D13        3.14159   0.00000   0.00000  -0.00000   0.00000   3.14159
   D14        0.00000   0.00000   0.00000  -0.00000   0.00000   0.00000
   D15       -0.00000   0.00000   0.00000   0.00000   0.00000   0.00000
   D16        3.14159  -0.00000   0.00000   0.00000   0.00000   3.14159
   D17        3.14159   0.00000   0.00000  -0.00000   0.00000   3.14159
   D18       -0.00000  -0.00000   0.00000   0.00000   0.00000   0.00000
   D19        0.00000  -0.00000   0.00000  -0.00000  -0.00000   0.00000
   D20        3.14159   0.00000   0.00000  -0.00000   0.00000   3.14159
         Item               Value     Threshold  Converged?
[...]
 DidBck=F Rises=F RFO-DIIS coefs:    0.93653    0.02553    0.02164    0.01630
 Iteration  1 RMS(Cart)=  0.00003843 RMS(Int)=  0.00000000
 Iteration  2 RMS(Cart)=  0.00000000 RMS(Int)=  0.00000000
 ClnCor:  largest displacement from symmetrization is 2.46D-13 for atom    11.
 Variable       Old X    -DE/DX   Delta X   Delta X   Delta X     New X
                                 (Linear)    (Quad)   (Total)
    R1        2.67065  -0.00002  -0.00001  -0.00003  -0.00004   2.67061
    R2        2.58911  -0.00003  -0.00001  -0.00005  -0.00006   2.58904
    R3        2.07248  -0.00000  -0.00003   0.00003   0.00000   2.07248
    R4        2.65969  -0.00002   0.00000  -0.00004  -0.00003   2.65965
    R5        3.20127  -0.00002  -0.00002  -0.00003  -0.00005   3.20121
    R6        2.64800   0.00000   0.00001   0.00002   0.00002   2.64803
    R7        2.07986  -0.00001   0.00001  -0.00006  -0.00005   2.07981
    R8        2.66192  -0.00001   0.00000   0.00000   0.00000   2.66192
    R9        2.07658  -0.00001  -0.00004  -0.00000  -0.00004   2.07654
   R10        2.59090  -0.00001  -0.00001   0.00000  -0.00001   2.59090
   R11        2.07142  -0.00001   0.00001  -0.00003  -0.00003   2.07139
    A1        1.99581   0.00000  -0.00001   0.00002   0.00001   1.99582
    A2        2.13798  -0.00001   0.00001  -0.00008  -0.00007   2.13792
    A3        2.14939   0.00001   0.00000   0.00006   0.00006   2.14945
    A4        2.09968   0.00001   0.00001   0.00001   0.00002   2.09970
    A5        2.08966  -0.00001  -0.00001  -0.00004  -0.00005   2.08961
    A6        2.09384   0.00001  -0.00000   0.00003   0.00003   2.09387
    A7        2.11044  -0.00000  -0.00001  -0.00001  -0.00001   2.11043
    A8        2.08713   0.00000   0.00000   0.00001   0.00002   2.08715
    A9        2.08561   0.00000   0.00000  -0.00001  -0.00000   2.08561
   A10        2.09785  -0.00001  -0.00000  -0.00002  -0.00002   2.09783
   A11        2.09230   0.00001   0.00000   0.00002   0.00002   2.09232
   A12        2.09304   0.00000   0.00000  -0.00001  -0.00001   2.09304
   A13        2.00349  -0.00000  -0.00001   0.00001   0.00000   2.00349
   A14        2.13402  -0.00001   0.00000  -0.00005  -0.00005   2.13397
   A15        2.14568   0.00001   0.00000   0.00004   0.00004   2.14573
   A16        2.25910   0.00000   0.00002  -0.00002   0.00000   2.25910
    D1        0.00000  -0.00000   0.00000  -0.00000   0.00000   0.00000
    D2        3.14159  -0.00000   0.00000  -0.00000   0.00000   3.14159
    D3        3.14159   0.00000   0.00000   0.00000   0.00000   3.14159
    D4       -0.00000   0.00000   0.00000   0.00000   0.00000   0.00000
    D5       -0.00000   0.00000   0.00000   0.00000   0.00000   0.00000
    D6        3.14159  -0.00000   0.00000  -0.00000   0.00000   3.14159
    D7       -0.00000  -0.00000   0.00000  -0.00000   0.00000   0.00000
    D8        3.14159  -0.00000   0.00000  -0.00000   0.00000   3.14159
    D9        3.14159   0.00000   0.00000   0.00000   0.00000   3.14159
   D10        0.00000  -0.00000   0.00000  -0.00000   0.00000   0.00000
   D11        0.00000   0.00000   0.00000   0.00000  -0.00000   0.00000
   D12        3.14159  -0.00000   0.00000  -0.00000   0.00000   3.14159
   D13        3.14159   0.00000   0.00000   0.00000   0.00000   3.14159
   D14       -0.00000   0.00000   0.00000   0.00000   0.00000   0.00000
   D15       -0.00000  -0.00000   0.00000  -0.00000   0.00000   0.00000
   D16        3.14159  -0.00000   0.00000  -0.00000   0.00000   3.14159
   D17        3.14159   0.00000   0.00000   0.00000   0.00000   3.14159
   D18        0.00000   0.00000   0.00000   0.00000  -0.00000   0.00000
   D19        0.00000  -0.00000   0.00000  -0.00000  -0.00000   0.00000
   D20        3.14159   0.00000   0.00000   0.00000   0.00000   3.14159
         Item               Value     Threshold  Converged?
 Maximum Force            0.000031     0.000450     YES
 RMS     Force            0.000008     0.000300     YES
 Maximum Displacement     0.000136     0.001800     YES
 RMS     Displacement     0.000038     0.001200     YES
 Predicted change in Energy=-4.779798D-09
 Optimization completed.
    -- Stationary point found.
                           ----------------------------
                           !   Optimized Parameters   !
                           ! (Angstroms and Degrees)  !
 --------------------------                            --------------------------
 ! Name  Definition              Value          Derivative Info.                !
 --------------------------------------------------------------------------------
 ! R1    R(1,2)                  1.4132         -DE/DX =    0.0                 !
 ! R2    R(1,6)                  1.3701         -DE/DX =    0.0                 !
 ! R3    R(1,7)                  1.0967         -DE/DX =    0.0                 !
 ! R4    R(2,3)                  1.4074         -DE/DX =    0.0                 !
 ! R5    R(2,8)                  1.694          -DE/DX =    0.0                 !
 ! R6    R(3,4)                  1.4013         -DE/DX =    0.0                 !
 ! R7    R(3,9)                  1.1006         -DE/DX =    0.0                 !
 ! R8    R(4,5)                  1.4086         -DE/DX =    0.0                 !
 ! R9    R(4,10)                 1.0989         -DE/DX =    0.0                 !
 ! R10   R(5,6)                  1.371          -DE/DX =    0.0                 !
 ! R11   R(5,11)                 1.0961         -DE/DX =    0.0                 !
 ! A1    A(2,1,6)              114.3517         -DE/DX =    0.0                 !
 ! A2    A(2,1,7)              122.4975         -DE/DX =    0.0                 !
 ! A3    A(6,1,7)              123.1508         -DE/DX =    0.0                 !
 ! A4    A(1,2,3)              120.3031         -DE/DX =    0.0                 !
 ! A5    A(1,2,8)              119.7287         -DE/DX =    0.0                 !
 ! A6    A(3,2,8)              119.9683         -DE/DX =    0.0                 !
 ! A7    A(2,3,4)              120.9194         -DE/DX =    0.0                 !
 ! A8    A(2,3,9)              119.5837         -DE/DX =    0.0                 !
 ! A9    A(4,3,9)              119.4969         -DE/DX =    0.0                 !
 ! A10   A(3,4,5)              120.1979         -DE/DX =    0.0                 !
 ! A11   A(3,4,10)             119.8797         -DE/DX =    0.0                 !
 ! A12   A(5,4,10)             119.9224         -DE/DX =    0.0                 !
 ! A13   A(4,5,6)              114.7913         -DE/DX =    0.0                 !
 ! A14   A(4,5,11)             122.2701         -DE/DX =    0.0                 !
 ! A15   A(6,5,11)             122.9386         -DE/DX =    0.0                 !
 ! A16   A(1,6,5)              129.4367         -DE/DX =    0.0                 !
 ! D1    D(6,1,2,3)              0.0            -DE/DX =    0.0                 !
 ! D2    D(6,1,2,8)            180.0            -DE/DX =    0.0                 !
 ! D3    D(7,1,2,3)            180.0            -DE/DX =    0.0                 !
 ! D4    D(7,1,2,8)              0.0            -DE/DX =    0.0                 !
 ! D5    D(2,1,6,5)              0.0            -DE/DX =    0.0                 !
 ! D6    D(7,1,6,5)            180.0            -DE/DX =    0.0                 !
 ! D7    D(1,2,3,4)              0.0            -DE/DX =    0.0                 !
 ! D8    D(1,2,3,9)            180.0            -DE/DX =    0.0                 !
 ! D9    D(8,2,3,4)            180.0            -DE/DX =    0.0                 !
 ! D10   D(8,2,3,9)              0.0            -DE/DX =    0.0                 !
 ! D11   D(2,3,4,5)              0.0            -DE/DX =    0.0                 !
 ! D12   D(2,3,4,10)           180.0            -DE/DX =    0.0                 !
 ! D13   D(9,3,4,5)            180.0            -DE/DX =    0.0                 !
 ! D14   D(9,3,4,10)             0.0            -DE/DX =    0.0                 !
 ! D15   D(3,4,5,6)              0.0            -DE/DX =    0.0                 !
 ! D16   D(3,4,5,11)           180.0            -DE/DX =    0.0                 !
 ! D17   D(10,4,5,6)           180.0            -DE/DX =    0.0                 !
 ! D18   D(10,4,5,11)            0.0            -DE/DX =    0.0                 !
 ! D19   D(4,5,6,1)              0.0            -DE/DX =    0.0                 !
 ! D20   D(11,5,6,1)           180.0            -DE/DX =    0.0                 !
 --------------------------------------------------------------------------------
 GradGradGradGradGradGradGradGradGradGradGradGradGradGradGradGradGradGrad

                          Input orientation:                          
 ---------------------------------------------------------------------
 Center     Atomic      Atomic             Coordinates (Angstroms)
 Number     Number       Type             X           Y           Z
 ---------------------------------------------------------------------
      1          6           0       -3.180456    0.186763   -0.000000
      2          6           0       -1.968460    0.913634    0.000000
      3          6           0       -0.734451    0.236786    0.000000
      4          6           0       -0.681274   -1.163468    0.000000
      5          6           0       -1.870976   -1.917682   -0.000000
      6          6           0       -3.022965   -1.174251   -0.000000
      7          1           0       -4.161510    0.676970   -0.000000
      8         17           0       -2.004639    2.607285    0.000000
      9          1           0        0.202250    0.814666    0.000000
     10          1           0        0.291623   -1.674356    0.000000
     11          1           0       -1.869012   -3.013828   -0.000000
 ---------------------------------------------------------------------
                    Distance matrix (angstroms):
                    1          2          3          4          5
     1  C    0.000000
     2  C    1.413250   0.000000
     3  C    2.446516   1.407445   0.000000
     4  C    2.840605   2.443604   1.401264   0.000000
     5  C    2.478594   2.832994   2.435862   1.408627   0.000000
     6  C    1.370096   2.339069   2.688554   2.341716   1.371047
     7  H    1.096709   2.205782   3.455212   3.936909   3.461036
     8  Cl   2.690998   1.694037   2.689357   3.996232   4.526941
     9  H    3.440488   2.172965   1.100615   2.166478   3.429867
    10  H    3.939428   3.435937   2.169168   1.098878   2.176244
    11  H    3.458853   3.928720   3.442923   2.198762   1.096147
                    6          7          8          9         10
     6  C    0.000000
     7  H    2.173317   0.000000
     8  Cl   3.916248   2.894513   0.000000
     9  H    3.789169   4.365931   2.843209   0.000000
    10  H    3.352103   5.035784   4.858525   2.490626   0.000000
    11  H    2.171555   4.344829   5.622749   4.352871   2.542150
                   11
    11  H    0.000000
 Stoichiometry    C6H4Cl(2)
 Framework group  CS[SG(C6H4Cl)]
 Deg. of freedom    19
 Full point group                 CS      NOp   2
 Largest Abelian subgroup         CS      NOp   2
 Largest concise Abelian subgroup C1      NOp   1
                         Standard orientation:                         
 ---------------------------------------------------------------------
 Center     Atomic      Atomic             Coordinates (Angstroms)
 Number     Number       Type             X           Y           Z
 ---------------------------------------------------------------------
      1          6           0       -1.298215   -0.054694   -0.000000
      2          6           0        0.000000    0.503797    0.000000
      3          6           0        1.132557   -0.331796    0.000000
      4          6           0        0.998247   -1.726608    0.000000
      5          6           0       -0.281526   -2.315174   -0.000000
      6          6           0       -1.323906   -1.424549   -0.000000
      7          1           0       -2.205010    0.562147   -0.000000
      8         17           0        0.190341    2.187107    0.000000
      9          1           0        2.138045    0.115806    0.000000
     10          1           0        1.894196   -2.362854    0.000000
     11          1           0       -0.425976   -3.401762   -0.000000
 ---------------------------------------------------------------------
 Rotational constants (GHZ):           6.0956667           1.6069820           1.2717219

 **********************************************************************

            Population analysis using the SCF Density.

 **********************************************************************

 Orbital symmetries:
 Alpha Orbitals:
       Occupied  (A') (A') (A') (A') (A') (A') (A') (A') (A') (A')
                 (A") (A') (A') (A") (A') (A') (A") (A")
       Virtual   (A") (A") (A') (A") (A') (A') (A') (A') (A') (A')
                 (A') (A') (A') (A')
 Beta  Orbitals:
       Occupied  (A') (A') (A') (A') (A') (A') (A') (A') (A') (A')
                 (A") (A') (A') (A") (A') (A") (A")
       Virtual   (A") (A') (A") (A') (A") (A') (A') (A') (A') (A')
                 (A') (A') (A') (A') (A')
 The electronic state is 2-A'.
 Alpha  occ. eigenvalues --   -1.46023  -1.38410  -1.16888  -1.14440  -0.87355
 Alpha  occ. eigenvalues --   -0.84848  -0.66411  -0.61294  -0.59950  -0.55151
 Alpha  occ. eigenvalues --   -0.53862  -0.50587  -0.47538  -0.46806  -0.44681
 Alpha  occ. eigenvalues --   -0.38588  -0.38256  -0.36194
 Alpha virt. eigenvalues --    0.00529   0.01154   0.04070   0.09040   0.12991
 Alpha virt. eigenvalues --    0.13607   0.13869   0.14552   0.16020   0.16682
 Alpha virt. eigenvalues --    0.17902   0.18659   0.19208   0.19941
  Beta  occ. eigenvalues --   -1.45275  -1.38097  -1.16762  -1.13304  -0.86945
  Beta  occ. eigenvalues --   -0.82480  -0.65965  -0.60100  -0.59396  -0.54774
  Beta  occ. eigenvalues --   -0.53123  -0.49443  -0.47164  -0.46042  -0.44242
  Beta  occ. eigenvalues --   -0.37878  -0.36607
  Beta virt. eigenvalues --    0.00335   0.00507   0.02494   0.05600   0.09731
  Beta virt. eigenvalues --    0.12869   0.13523   0.14249   0.14871   0.16294
  Beta virt. eigenvalues --    0.16915   0.18138   0.18566   0.20122   0.21137
          Condensed to atoms (all electrons):
               1          2          3          4          5          6
     1  C    4.114582   0.000000   0.000000   0.000000   0.000000   0.000000
     2  C    0.000000   4.061523   0.000000   0.000000   0.000000   0.000000
     3  C    0.000000   0.000000   4.138211   0.000000   0.000000   0.000000
     4  C    0.000000   0.000000   0.000000   4.116356   0.000000   0.000000
     5  C    0.000000   0.000000   0.000000   0.000000   4.121158   0.000000
     6  C    0.000000   0.000000   0.000000   0.000000   0.000000   4.066201
     7  H    0.000000   0.000000   0.000000   0.000000   0.000000   0.000000
     8  Cl   0.000000   0.000000   0.000000   0.000000   0.000000   0.000000
     9  H    0.000000   0.000000   0.000000   0.000000   0.000000   0.000000
    10  H    0.000000   0.000000   0.000000   0.000000   0.000000   0.000000
    11  H    0.000000   0.000000   0.000000   0.000000   0.000000   0.000000
               7          8          9         10         11
     1  C    0.000000   0.000000   0.000000   0.000000   0.000000
     2  C    0.000000   0.000000   0.000000   0.000000   0.000000
     3  C    0.000000   0.000000   0.000000   0.000000   0.000000
     4  C    0.000000   0.000000   0.000000   0.000000   0.000000
     5  C    0.000000   0.000000   0.000000   0.000000   0.000000
     6  C    0.000000   0.000000   0.000000   0.000000   0.000000
     7  H    0.831238   0.000000   0.000000   0.000000   0.000000
     8  Cl   0.000000   7.002827   0.000000   0.000000   0.000000
     9  H    0.000000   0.000000   0.850404   0.000000   0.000000
    10  H    0.000000   0.000000   0.000000   0.856561   0.000000
    11  H    0.000000   0.000000   0.000000   0.000000   0.840940
          Atomic-Atomic Spin Densities.
               1          2          3          4          5          6
     1  C   -0.476822   0.000000   0.000000   0.000000   0.000000   0.000000
     2  C    0.000000   0.473532   0.000000   0.000000   0.000000   0.000000
     3  C    0.000000   0.000000  -0.445329   0.000000   0.000000   0.000000
     4  C    0.000000   0.000000   0.000000   0.474081   0.000000   0.000000
     5  C    0.000000   0.000000   0.000000   0.000000  -0.469854   0.000000
     6  C    0.000000   0.000000   0.000000   0.000000   0.000000   1.359531
     7  H    0.000000   0.000000   0.000000   0.000000   0.000000   0.000000
     8  Cl   0.000000   0.000000   0.000000   0.000000   0.000000   0.000000
     9  H    0.000000   0.000000   0.000000   0.000000   0.000000   0.000000
    10  H    0.000000   0.000000   0.000000   0.000000   0.000000   0.000000
    11  H    0.000000   0.000000   0.000000   0.000000   0.000000   0.000000
               7          8          9         10         11
     1  C    0.000000   0.000000   0.000000   0.000000   0.000000
     2  C    0.000000   0.000000   0.000000   0.000000   0.000000
     3  C    0.000000   0.000000   0.000000   0.000000   0.000000
     4  C    0.000000   0.000000   0.000000   0.000000   0.000000
     5  C    0.000000   0.000000   0.000000   0.000000   0.000000
     6  C    0.000000   0.000000   0.000000   0.000000   0.000000
     7  H    0.032059   0.000000   0.000000   0.000000   0.000000
     8  Cl   0.000000   0.012801   0.000000   0.000000   0.000000
     9  H    0.000000   0.000000   0.026561   0.000000   0.000000
    10  H    0.000000   0.000000   0.000000  -0.017854   0.000000
    11  H    0.000000   0.000000   0.000000   0.000000   0.031294
 Mulliken charges and spin densities:
               1          2
     1  C   -0.114582  -0.476822
     2  C   -0.061523   0.473532
     3  C   -0.138211  -0.445329
     4  C   -0.116356   0.474081
     5  C   -0.121158  -0.469854
     6  C   -0.066201   1.359531
     7  H    0.168762   0.032059
     8  Cl  -0.002827   0.012801
     9  H    0.149596   0.026561
    10  H    0.143439  -0.017854
    11  H    0.159060   0.031294
 Sum of Mulliken charges =   0.00000   1.00000
 Mulliken charges and spin densities with hydrogens summed into heavy atoms:
               1          2
     1  C    0.054180  -0.444764
     2  C   -0.061523   0.473532
     3  C    0.011385  -0.418768
     4  C    0.027083   0.456228
     5  C    0.037902  -0.438560
     6  C   -0.066201   1.359531
     8  Cl  -0.002827   0.012801
 Charge=             -0.0000 electrons
 Dipole moment (field-independent basis, Debye):
    X=              0.8119    Y=             -0.7734    Z=              0.0000  Tot=              1.1213
 N-N= 1.532268720395D+02 E-N=-2.121845630137D+02  KE=-6.881003586497D+01
 Symmetry A'   KE=-5.400696817715D+01
 Symmetry A"   KE=-1.480306768782D+01
 Symmetry A'   SP= 1.000000000000D+00
 Symmetry A"   SP= 1.609823385706D-15
 1\1\GINC-SH04-01N24\FOpt\UAM1\ZDO\C6H4Cl1(2)\JLAPIER\09-Dec-2025\0\\# 
 opt am1 SCF=XQC\\Neutral Radical (removed 1) _3\\0,2\C,-3.1804558598,0
 .1867630731,0.\C,-1.9684601558,0.9136338301,0.\C,-0.7344510822,0.23678
 62043,0.\C,-0.6812737657,-1.1634681525,0.\C,-1.8709755145,-1.917682094
 6,0.\C,-3.0229650196,-1.1742510721,0.\H,-4.1615096575,0.6769704377,0.\
 Cl,-2.0046390248,2.6072848905,0.\H,0.2022495337,0.8146661601,0.\H,0.29
 16226299,-1.6743555651,0.\H,-1.8690120836,-3.0138277113,0.\\Version=ES
 64L-G16RevB.01\State=2-A'\HF=0.1051855\S2=1.198058\S2-1=0.\S2A=0.92085
 \RMSD=4.138e-09\RMSF=1.092e-05\Dipole=0.3571834,-0.2588911,0.\PG=CS [S
 G(C6H4Cl1)]\\@


 THE ATTENTION SPAN OF A COMPUTER IS AS LONG
 AS ITS EXTENSION CORD.
 Job cpu time:       0 days  0 hours  0 minutes  4.0 seconds.
 Elapsed time:       0 days  0 hours  0 minutes 20.0 seconds.
 File lengths (MBytes):  RWF=     10 Int=      0 D2E=      0 Chk=      2 Scr=      1
 Normal termination of Gaussian 16 at Tue Dec  9 09:59:02 2025.
