 Entering Gaussian System, Link 0=g16
 Initial command:
 /share/software/user/restricted/gaussian/g16.B01/l1.exe "/home/users/jlapier/Chloroaromatics/Gau-24713.inp" -scrdir="/home/users/jlapier/Chloroaromatics/"
 Entering Link 1 = /share/software/user/restricted/gaussian/g16.B01/l1.exe PID=     24714.
  
 Copyright (c) 1988-2017, Gaussian, Inc.  All Rights Reserved.
  
 This is part of the Gaussian(R) 16 program.  It is based on
 the Gaussian(R) 09 system (copyright 2009, Gaussian, Inc.),
 the Gaussian(R) 03 system (copyright 2003, Gaussian, Inc.),
 the Gaussian(R) 98 system (copyright 1998, Gaussian, Inc.),
 the Gaussian(R) 94 system (copyright 1995, Gaussian, Inc.),
 the Gaussian 92(TM) system (copyright 1992, Gaussian, Inc.),
 the Gaussian 90(TM) system (copyright 1990, Gaussian, Inc.),
 the Gaussian 88(TM) system (copyright 1988, Gaussian, Inc.),
 the Gaussian 86(TM) system (copyright 1986, Carnegie Mellon
 University), and the Gaussian 82(TM) system (copyright 1983,
 Carnegie Mellon University). Gaussian is a federally registered
 trademark of Gaussian, Inc.
  
 This software contains proprietary and confidential information,
 including trade secrets, belonging to Gaussian, Inc.
  
 This software is provided under written license and may be
 used, copied, transmitted, or stored only in accord with that
 written license.
  
 The following legend is applicable only to US Government
 contracts under FAR:
  
                    RESTRICTED RIGHTS LEGEND
  
 Use, reproduction and disclosure by the US Government is
 subject to restrictions as set forth in subparagraphs (a)
 and (c) of the Commercial Computer Software - Restricted
 Rights clause in FAR 52.227-19.
  
 Gaussian, Inc.
 340 Quinnipiac St., Bldg. 40, Wallingford CT 06492
  
  
 ---------------------------------------------------------------
 Warning -- This program may not be used in any manner that
 competes with the business of Gaussian, Inc. or will provide
 assistance to any competitor of Gaussian, Inc.  The licensee
 of this program is prohibited from giving any competitor of
 Gaussian, Inc. access to this program.  By using this program,
 the user acknowledges that Gaussian, Inc. is engaged in the
 business of creating and licensing software in the field of
 computational chemistry and represents and warrants to the
 licensee that it is not a competitor of Gaussian, Inc. and that
 it will not use this program in any manner prohibited above.
 ---------------------------------------------------------------
  

 Cite this work as:
 Gaussian 16, Revision B.01,
 M. J. Frisch, G. W. Trucks, H. B. Schlegel, G. E. Scuseria, 
 M. A. Robb, J. R. Cheeseman, G. Scalmani, V. Barone, 
 G. A. Petersson, H. Nakatsuji, X. Li, M. Caricato, A. V. Marenich, 
 J. Bloino, B. G. Janesko, R. Gomperts, B. Mennucci, H. P. Hratchian, 
 J. V. Ortiz, A. F. Izmaylov, J. L. Sonnenberg, D. Williams-Young, 
 F. Ding, F. Lipparini, F. Egidi, J. Goings, B. Peng, A. Petrone, 
 T. Henderson, D. Ranasinghe, V. G. Zakrzewski, J. Gao, N. Rega, 
 G. Zheng, W. Liang, M. Hada, M. Ehara, K. Toyota, R. Fukuda, 
 J. Hasegawa, M. Ishida, T. Nakajima, Y. Honda, O. Kitao, H. Nakai, 
 T. Vreven, K. Throssell, J. A. Montgomery, Jr., J. E. Peralta, 
 F. Ogliaro, M. J. Bearpark, J. J. Heyd, E. N. Brothers, K. N. Kudin, 
 V. N. Staroverov, T. A. Keith, R. Kobayashi, J. Normand, 
 K. Raghavachari, A. P. Rendell, J. C. Burant, S. S. Iyengar, 
 J. Tomasi, M. Cossi, J. M. Millam, M. Klene, C. Adamo, R. Cammi, 
 J. W. Ochterski, R. L. Martin, K. Morokuma, O. Farkas, 
 J. B. Foresman, and D. J. Fox, Gaussian, Inc., Wallingford CT, 2016.
 
 ******************************************
 Gaussian 16:  ES64L-G16RevB.01 20-Dec-2017
                 9-Dec-2025 
 ******************************************
 %mem=2GB
 %nprocshare=1
 Will use up to    1 processors via shared memory.
 %chk=geometry_chks/_3ClBzNeutralRadical.chk
 -----------------
 # opt am1 SCF=XQC
 -----------------
 1/18=20,19=15,26=1,38=1/1,3;
 2/9=110,12=2,17=6,18=5,40=1/2;
 3/5=2,25=1,41=700000,71=1/1,2,3;
 4/35=1/1;
 5/5=2,8=3,13=1,35=1,38=5/2,8;
 6/7=2,8=2,9=2,10=2,28=1/1;
 7//1,2,3,16;
 1/18=20,19=15,26=1/3(2);
 2/9=110/2;
 99//99;
 2/9=110/2;
 3/5=2,25=1,41=700000,71=1,135=20/1,2,3;
 4/5=5,16=3,35=1/1;
 5/5=2,8=3,13=1,35=1,38=5/2,8;
 7//1,2,3,16;
 1/18=20,19=15,26=1/3(-5);
 2/9=110/2;
 6/7=2,8=2,9=2,10=2,19=2,28=1/1;
 99/9=1/99;
 ------------------------------
 Neutral Radical (removed 1) _3
 ------------------------------
 Symbolic Z-matrix:
 Charge =  0 Multiplicity = 2
 C                    -3.20928   0.19943   0. 
 C                    -2.0115    0.93555   0. 
 C                    -0.77511   0.2663    0. 
 C                    -0.7365   -1.13907   0. 
 C                    -1.93429  -1.87519   0. 
 C                    -3.17067  -1.20594   0. 
 H                    -4.76193   1.03987   0. 
 Cl                    0.81614  -1.97951   0. 
 H                    -1.8858   -3.64003   0. 
 H                    -2.05998   2.7004    0. 
 H                     0.72905   1.19071   0. 
 
 Add virtual bond connecting atoms H9         and C5         Dist= 3.34D+00.
 Add virtual bond connecting atoms H11        and C3         Dist= 3.34D+00.
 Add virtual bond connecting atoms H10        and C2         Dist= 3.34D+00.
 Add virtual bond connecting atoms H7         and C1         Dist= 3.34D+00.

 GradGradGradGradGradGradGradGradGradGradGradGradGradGradGradGradGradGrad
 Berny optimization.
 Initialization pass.
                           ----------------------------
                           !    Initial Parameters    !
                           ! (Angstroms and Degrees)  !
 --------------------------                            --------------------------
 ! Name  Definition              Value          Derivative Info.                !
 --------------------------------------------------------------------------------
 ! R1    R(1,2)                  1.4059         estimate D2E/DX2                !
 ! R2    R(1,6)                  1.4059         estimate D2E/DX2                !
 ! R3    R(1,7)                  1.7655         estimate D2E/DX2                !
 ! R4    R(2,3)                  1.4059         estimate D2E/DX2                !
 ! R5    R(2,10)                 1.7655         estimate D2E/DX2                !
 ! R6    R(3,4)                  1.4059         estimate D2E/DX2                !
 ! R7    R(3,11)                 1.7655         estimate D2E/DX2                !
 ! R8    R(4,5)                  1.4059         estimate D2E/DX2                !
 ! R9    R(4,8)                  1.7655         estimate D2E/DX2                !
 ! R10   R(5,6)                  1.4059         estimate D2E/DX2                !
 ! R11   R(5,9)                  1.7655         estimate D2E/DX2                !
 ! A1    A(2,1,6)              119.9999         estimate D2E/DX2                !
 ! A2    A(2,1,7)              119.9999         estimate D2E/DX2                !
 ! A3    A(6,1,7)              120.0001         estimate D2E/DX2                !
 ! A4    A(1,2,3)              120.0            estimate D2E/DX2                !
 ! A5    A(1,2,10)             120.0001         estimate D2E/DX2                !
 ! A6    A(3,2,10)             119.9999         estimate D2E/DX2                !
 ! A7    A(2,3,4)              120.0001         estimate D2E/DX2                !
 ! A8    A(2,3,11)             120.0            estimate D2E/DX2                !
 ! A9    A(4,3,11)             119.9999         estimate D2E/DX2                !
 ! A10   A(3,4,5)              119.9997         estimate D2E/DX2                !
 ! A11   A(3,4,8)              120.0003         estimate D2E/DX2                !
 ! A12   A(5,4,8)              120.0            estimate D2E/DX2                !
 ! A13   A(4,5,6)              120.0            estimate D2E/DX2                !
 ! A14   A(4,5,9)              119.9996         estimate D2E/DX2                !
 ! A15   A(6,5,9)              120.0004         estimate D2E/DX2                !
 ! A16   A(1,6,5)              120.0003         estimate D2E/DX2                !
 ! D1    D(6,1,2,3)              0.0            estimate D2E/DX2                !
 ! D2    D(6,1,2,10)           180.0            estimate D2E/DX2                !
 ! D3    D(7,1,2,3)            180.0            estimate D2E/DX2                !
 ! D4    D(7,1,2,10)             0.0            estimate D2E/DX2                !
 ! D5    D(2,1,6,5)              0.0            estimate D2E/DX2                !
 ! D6    D(7,1,6,5)            180.0            estimate D2E/DX2                !
 ! D7    D(1,2,3,4)              0.0            estimate D2E/DX2                !
 ! D8    D(1,2,3,11)           180.0            estimate D2E/DX2                !
 ! D9    D(10,2,3,4)           180.0            estimate D2E/DX2                !
 ! D10   D(10,2,3,11)            0.0            estimate D2E/DX2                !
 ! D11   D(2,3,4,5)              0.0            estimate D2E/DX2                !
 ! D12   D(2,3,4,8)            180.0            estimate D2E/DX2                !
 ! D13   D(11,3,4,5)           180.0            estimate D2E/DX2                !
 ! D14   D(11,3,4,8)             0.0            estimate D2E/DX2                !
 ! D15   D(3,4,5,6)              0.0            estimate D2E/DX2                !
 ! D16   D(3,4,5,9)            180.0            estimate D2E/DX2                !
 ! D17   D(8,4,5,6)            180.0            estimate D2E/DX2                !
 ! D18   D(8,4,5,9)              0.0            estimate D2E/DX2                !
 ! D19   D(4,5,6,1)              0.0            estimate D2E/DX2                !
 ! D20   D(9,5,6,1)            180.0            estimate D2E/DX2                !
 --------------------------------------------------------------------------------
 Trust Radius=3.00D-01 FncErr=1.00D-07 GrdErr=1.00D-07 EigMax=2.50D+02 EigMin=1.00D-04
 Number of steps in this run=     57 maximum allowed number of steps=    100.
 GradGradGradGradGradGradGradGradGradGradGradGradGradGradGradGradGradGrad

                          Input orientation:                          
 ---------------------------------------------------------------------
 Center     Atomic      Atomic             Coordinates (Angstroms)
 Number     Number       Type             X           Y           Z
 ---------------------------------------------------------------------
      1          6           0       -3.209280    0.199430    0.000000
      2          6           0       -2.011500    0.935550    0.000000
      3          6           0       -0.775110    0.266300    0.000000
      4          6           0       -0.736500   -1.139070    0.000000
      5          6           0       -1.934290   -1.875190    0.000000
      6          6           0       -3.170670   -1.205940    0.000000
      7          1           0       -4.761930    1.039870    0.000000
      8         17           0        0.816140   -1.979510    0.000000
      9          1           0       -1.885800   -3.640030    0.000000
     10          1           0       -2.059980    2.700400    0.000000
     11          1           0        0.729050    1.190710    0.000000
 ---------------------------------------------------------------------
                    Distance matrix (angstroms):
                    1          2          3          4          5
     1  C    0.000000
     2  C    1.405898   0.000000
     3  C    2.435088   1.405900   0.000000
     4  C    2.811801   2.435092   1.405900   0.000000
     5  C    2.435087   2.811800   2.435093   1.405907   0.000000
     6  C    1.405900   2.435088   2.811796   2.435088   1.405892
     7  H    1.765520   2.752408   4.061175   4.577321   4.061173
     8  Cl   4.577312   4.061173   2.752406   1.765511   2.752408
     9  H    4.061164   4.577306   4.061163   2.752397   1.765506
    10  H    2.752406   1.765516   2.752405   4.061173   4.577316
    11  H    4.061167   2.752403   1.765512   2.752401   4.061173
                    6          7          8          9         10
     6  C    0.000000
     7  H    2.752412   0.000000
     8  Cl   4.061165   6.342832   0.000000
     9  H    2.752396   5.493049   3.171404   0.000000
    10  H    4.061173   3.171418   5.493052   6.342822   0.000000
    11  H    4.577308   5.493051   3.171416   5.493040   3.171412
                   11
    11  H    0.000000
 Stoichiometry    C6H4Cl(2)
 Framework group  CS[SG(C6H4Cl)]
 Deg. of freedom    19
 Full point group                 CS      NOp   2
 Largest Abelian subgroup         CS      NOp   2
 Largest concise Abelian subgroup C1      NOp   1
                         Standard orientation:                         
 ---------------------------------------------------------------------
 Center     Atomic      Atomic             Coordinates (Angstroms)
 Number     Number       Type             X           Y           Z
 ---------------------------------------------------------------------
      1          6           0       -0.048183   -2.323939    0.000000
      2          6           0        1.169361   -1.620991    0.000000
      3          6           0        1.169361   -0.215091    0.000000
      4          6           0       -0.048183    0.487861   -0.000000
      5          6           0       -1.265732   -0.215096    0.000000
      6          6           0       -1.265727   -1.620987    0.000000
      7          1           0       -0.048182   -4.089460    0.000000
      8         17           0       -0.048188    2.253373   -0.000000
      9          1           0       -2.794701    0.667664   -0.000000
     10          1           0        2.698344   -2.503747    0.000000
     11          1           0        2.698339    0.667665   -0.000000
 ---------------------------------------------------------------------
 Rotational constants (GHZ):           5.3945853           1.5168011           1.1839177
 Standard basis: VSTO-6G (5D, 7F)
 There are    25 symmetry adapted cartesian basis functions of A'  symmetry.
 There are     7 symmetry adapted cartesian basis functions of A"  symmetry.
 There are    25 symmetry adapted basis functions of A'  symmetry.
 There are     7 symmetry adapted basis functions of A"  symmetry.
    32 basis functions,   192 primitive gaussians,    32 cartesian basis functions
    18 alpha electrons       17 beta electrons
       nuclear repulsion energy       147.6743521324 Hartrees.
 Integral buffers will be    131072 words long.
 Regular integral format.
 Two-electron integral symmetry is turned off.
 Do NDO integrals.
 One-electron integrals computed using PRISM.
 NBasis=    32 RedAO= T EigKep=  1.00D+00  NBF=    25     7
 NBsUse=    32 1.00D-06 EigRej= -1.00D+00 NBFU=    25     7
 Simple Huckel Guess.
 Initial guess orbital symmetries:
 Alpha Orbitals:
       Occupied  (A') (A') (A') (A') (A') (A') (A') (A') (A") (A')
                 (A') (A') (A") (A') (A") (A') (A") (A')
       Virtual   (A') (A") (A") (A') (A') (A') (A") (A') (A') (A')
                 (A') (A') (A') (A')
 Beta  Orbitals:
       Occupied  (A') (A') (A') (A') (A') (A') (A') (A') (A") (A')
                 (A') (A') (A") (A') (A") (A') (A")
       Virtual   (A') (A') (A") (A") (A') (A') (A') (A") (A') (A')
                 (A') (A') (A') (A') (A')
 The electronic state of the initial guess is 2-A'.
 Initial guess <Sx>= 0.0000 <Sy>= 0.0000 <Sz>= 0.5000 <S**2>= 0.7500 S= 0.5000
 Keep J ints in memory in canonical form, NReq=862079.
 Overlap will be assumed to be unity.
 Requested convergence on RMS density matrix=1.00D-08 within  32 cycles.
 Requested convergence on MAX density matrix=1.00D-06.
 Requested convergence on             energy=1.00D-06.
 No special actions if energy rises.
 Fock symm off for IB=2 I1=    1 I=   26 J=   11 Cut=1.00D-07 Err=5.20D-03
 Fock matrix is not symmetric: symmetry in diagonalization turned off.
 Rare condition: small coef for last iteration:  0.000D+00
 Rare condition: small coef for last iteration:  0.000D+00
 Rare condition: small coef for last iteration:  0.000D+00
 Rare condition: small coef for last iteration:  0.000D+00
 Rare condition: small coef for last iteration:  0.000D+00
 Rare condition: small coef for last iteration:  0.000D+00
 Rare condition: small coef for last iteration:  0.000D+00
 Rare condition: small coef for last iteration:  0.000D+00
 Rare condition: small coef for last iteration:  0.000D+00
 Rare condition: small coef for last iteration:  0.000D+00
 >>>>>>>>>> Convergence criterion not met.
 SCF Done:  E(UAM1) =  0.606651283916     A.U. after   33 cycles
            NFock= 32  Conv=0.79D-04     -V/T= 1.0089
 <Sx>= 0.0000 <Sy>= 0.0000 <Sz>= 0.5000 <S**2>= 1.0652 S= 0.6468
 <L.S>=  0.00000000000    
 Annihilation of the first spin contaminant:
 S**2 before annihilation     1.0652,   after     0.8249
 Keep J ints in memory in canonical form, NReq=862479.
 LinEq1:  Iter=  0 NonCon=     1 RMS=9.45D-05 Max=6.65D-04 NDo=     1
 AX will form     1 AO Fock derivatives at one time.
 LinEq1:  Iter=  1 NonCon=     1 RMS=1.84D-06 Max=1.28D-05 NDo=     1
 LinEq1:  Iter=  2 NonCon=     1 RMS=4.43D-07 Max=2.17D-06 NDo=     1
 LinEq1:  Iter=  3 NonCon=     1 RMS=1.81D-07 Max=2.03D-06 NDo=     1
 LinEq1:  Iter=  4 NonCon=     1 RMS=5.75D-08 Max=4.21D-07 NDo=     1
 LinEq1:  Iter=  5 NonCon=     1 RMS=1.18D-08 Max=8.33D-08 NDo=     1
 LinEq1:  Iter=  6 NonCon=     1 RMS=2.99D-09 Max=2.07D-08 NDo=     1
 LinEq1:  Iter=  7 NonCon=     0 RMS=6.89D-10 Max=4.17D-09 NDo=     1
 Linear equations converged to 2.252D-09 2.252D-08 after     7 iterations.
 Incorrect curvature in search direction -- initial direction reversed.
 LinEq1:  Iter=  0 NonCon=     1 RMS=1.97D-04 Max=1.56D-03 NDo=     1
 LinEq1:  Iter=  1 NonCon=     1 RMS=7.27D-05 Max=4.22D-04 NDo=     1
 LinEq1:  Iter=  2 NonCon=     1 RMS=2.16D-05 Max=1.53D-04 NDo=     1
 LinEq1:  Iter=  3 NonCon=     1 RMS=5.67D-06 Max=3.60D-05 NDo=     1
 LinEq1:  Iter=  4 NonCon=     1 RMS=1.58D-06 Max=8.78D-06 NDo=     1
 LinEq1:  Iter=  5 NonCon=     1 RMS=4.58D-07 Max=3.28D-06 NDo=     1
 LinEq1:  Iter=  6 NonCon=     1 RMS=1.51D-07 Max=8.83D-07 NDo=     1
 LinEq1:  Iter=  7 NonCon=     1 RMS=3.55D-08 Max=1.69D-07 NDo=     1
 LinEq1:  Iter=  8 NonCon=     1 RMS=8.19D-09 Max=5.56D-08 NDo=     1
 LinEq1:  Iter=  9 NonCon=     1 RMS=2.97D-09 Max=2.30D-08 NDo=     1
 LinEq1:  Iter= 10 NonCon=     0 RMS=9.28D-10 Max=7.48D-09 NDo=     1
 Linear equations converged to 2.252D-09 2.252D-08 after    10 iterations.
 LinEq1:  Iter=  0 NonCon=     1 RMS=2.48D-04 Max=1.87D-03 NDo=     1
 LinEq1:  Iter=  1 NonCon=     1 RMS=9.80D-05 Max=1.49D-03 NDo=     1
 LinEq1:  Iter=  2 NonCon=     1 RMS=2.97D-05 Max=2.04D-04 NDo=     1
 LinEq1:  Iter=  3 NonCon=     1 RMS=8.18D-06 Max=4.93D-05 NDo=     1
 LinEq1:  Iter=  4 NonCon=     1 RMS=2.13D-06 Max=1.85D-05 NDo=     1
 LinEq1:  Iter=  5 NonCon=     1 RMS=3.37D-07 Max=3.14D-06 NDo=     1
 LinEq1:  Iter=  6 NonCon=     1 RMS=1.08D-07 Max=1.21D-06 NDo=     1
 LinEq1:  Iter=  7 NonCon=     1 RMS=3.48D-08 Max=3.07D-07 NDo=     1
 LinEq1:  Iter=  8 NonCon=     1 RMS=9.70D-09 Max=7.47D-08 NDo=     1
 LinEq1:  Iter=  9 NonCon=     0 RMS=1.90D-09 Max=1.12D-08 NDo=     1
 Linear equations converged to 2.252D-09 2.252D-08 after     9 iterations.
     Accept linear search using points  1 and  2.
 LinEq1:  Iter=  0 NonCon=     1 RMS=8.31D-05 Max=7.54D-04 NDo=     1
 LinEq1:  Iter=  1 NonCon=     1 RMS=2.94D-05 Max=4.19D-04 NDo=     1
 LinEq1:  Iter=  2 NonCon=     1 RMS=9.42D-06 Max=7.85D-05 NDo=     1
 LinEq1:  Iter=  3 NonCon=     1 RMS=2.70D-06 Max=1.63D-05 NDo=     1
 LinEq1:  Iter=  4 NonCon=     1 RMS=7.82D-07 Max=6.87D-06 NDo=     1
 LinEq1:  Iter=  5 NonCon=     1 RMS=1.12D-07 Max=8.32D-07 NDo=     1
 LinEq1:  Iter=  6 NonCon=     1 RMS=4.11D-08 Max=3.38D-07 NDo=     1
 LinEq1:  Iter=  7 NonCon=     1 RMS=1.29D-08 Max=8.13D-08 NDo=     1
 LinEq1:  Iter=  8 NonCon=     1 RMS=3.06D-09 Max=1.80D-08 NDo=     1
 LinEq1:  Iter=  9 NonCon=     0 RMS=7.42D-10 Max=4.83D-09 NDo=     1
 Linear equations converged to 2.252D-09 2.252D-08 after     9 iterations.
 Incorrect curvature in search direction -- initial direction reversed.
 LinEq1:  Iter=  0 NonCon=     1 RMS=3.25D-04 Max=2.38D-03 NDo=     1
 LinEq1:  Iter=  1 NonCon=     1 RMS=1.15D-04 Max=1.26D-03 NDo=     1
 LinEq1:  Iter=  2 NonCon=     1 RMS=3.55D-05 Max=2.20D-04 NDo=     1
 LinEq1:  Iter=  3 NonCon=     1 RMS=9.59D-06 Max=7.31D-05 NDo=     1
 LinEq1:  Iter=  4 NonCon=     1 RMS=2.89D-06 Max=2.08D-05 NDo=     1
 LinEq1:  Iter=  5 NonCon=     1 RMS=4.92D-07 Max=3.32D-06 NDo=     1
 LinEq1:  Iter=  6 NonCon=     1 RMS=1.76D-07 Max=1.35D-06 NDo=     1
 LinEq1:  Iter=  7 NonCon=     1 RMS=4.29D-08 Max=3.07D-07 NDo=     1
 LinEq1:  Iter=  8 NonCon=     1 RMS=9.94D-09 Max=8.85D-08 NDo=     1
 LinEq1:  Iter=  9 NonCon=     1 RMS=3.05D-09 Max=2.15D-08 NDo=     1
 LinEq1:  Iter= 10 NonCon=     0 RMS=6.51D-10 Max=4.17D-09 NDo=     1
 Linear equations converged to 2.252D-09 2.252D-08 after    10 iterations.
 Incorrect curvature in search direction -- initial direction reversed.
 LinEq1:  Iter=  0 NonCon=     1 RMS=6.47D-04 Max=4.01D-03 NDo=     1
 LinEq1:  Iter=  1 NonCon=     1 RMS=2.14D-04 Max=2.10D-03 NDo=     1
 LinEq1:  Iter=  2 NonCon=     1 RMS=6.64D-05 Max=3.66D-04 NDo=     1
 LinEq1:  Iter=  3 NonCon=     1 RMS=1.72D-05 Max=1.26D-04 NDo=     1
 LinEq1:  Iter=  4 NonCon=     1 RMS=5.31D-06 Max=3.51D-05 NDo=     1
 LinEq1:  Iter=  5 NonCon=     1 RMS=1.12D-06 Max=6.64D-06 NDo=     1
 LinEq1:  Iter=  6 NonCon=     1 RMS=3.30D-07 Max=2.49D-06 NDo=     1
 LinEq1:  Iter=  7 NonCon=     1 RMS=8.22D-08 Max=5.57D-07 NDo=     1
 LinEq1:  Iter=  8 NonCon=     1 RMS=1.88D-08 Max=1.67D-07 NDo=     1
 LinEq1:  Iter=  9 NonCon=     1 RMS=5.43D-09 Max=4.56D-08 NDo=     1
 LinEq1:  Iter= 10 NonCon=     0 RMS=1.42D-09 Max=7.95D-09 NDo=     1
 Linear equations converged to 2.252D-09 2.252D-08 after    10 iterations.
 LinEq1:  Iter=  0 NonCon=     1 RMS=6.22D-04 Max=3.77D-03 NDo=     1
 LinEq1:  Iter=  1 NonCon=     1 RMS=2.03D-04 Max=1.99D-03 NDo=     1
 LinEq1:  Iter=  2 NonCon=     1 RMS=6.17D-05 Max=3.59D-04 NDo=     1
 LinEq1:  Iter=  3 NonCon=     1 RMS=1.56D-05 Max=1.12D-04 NDo=     1
 LinEq1:  Iter=  4 NonCon=     1 RMS=4.76D-06 Max=3.34D-05 NDo=     1
 LinEq1:  Iter=  5 NonCon=     1 RMS=1.03D-06 Max=5.57D-06 NDo=     1
 LinEq1:  Iter=  6 NonCon=     1 RMS=3.00D-07 Max=2.25D-06 NDo=     1
 LinEq1:  Iter=  7 NonCon=     1 RMS=7.42D-08 Max=5.27D-07 NDo=     1
 LinEq1:  Iter=  8 NonCon=     1 RMS=1.69D-08 Max=1.47D-07 NDo=     1
 LinEq1:  Iter=  9 NonCon=     1 RMS=4.79D-09 Max=4.06D-08 NDo=     1
 LinEq1:  Iter= 10 NonCon=     0 RMS=1.28D-09 Max=6.75D-09 NDo=     1
 Linear equations converged to 2.252D-09 2.252D-08 after    10 iterations.
 LinEq1:  Iter=  0 NonCon=     1 RMS=3.21D-04 Max=1.74D-03 NDo=     1
 LinEq1:  Iter=  1 NonCon=     1 RMS=9.47D-05 Max=9.70D-04 NDo=     1
 LinEq1:  Iter=  2 NonCon=     1 RMS=2.79D-05 Max=1.80D-04 NDo=     1
 LinEq1:  Iter=  3 NonCon=     1 RMS=6.24D-06 Max=4.03D-05 NDo=     1
 LinEq1:  Iter=  4 NonCon=     1 RMS=1.56D-06 Max=1.55D-05 NDo=     1
 LinEq1:  Iter=  5 NonCon=     1 RMS=3.58D-07 Max=1.68D-06 NDo=     1
 LinEq1:  Iter=  6 NonCon=     1 RMS=1.05D-07 Max=6.74D-07 NDo=     1
 LinEq1:  Iter=  7 NonCon=     1 RMS=2.73D-08 Max=2.04D-07 NDo=     1
 LinEq1:  Iter=  8 NonCon=     1 RMS=6.36D-09 Max=3.39D-08 NDo=     1
 LinEq1:  Iter=  9 NonCon=     0 RMS=1.63D-09 Max=1.09D-08 NDo=     1
 Linear equations converged to 2.252D-09 2.252D-08 after     9 iterations.
     Minimum is close to point  2 DX=  1.40D-02 DF= -1.26D-08 DXR=  1.38D-02 DFR=  1.90D-04 which will be used.
 LinEq1:  Iter=  0 NonCon=     1 RMS=6.64D-06 Max=4.18D-05 NDo=     1
 LinEq1:  Iter=  1 NonCon=     1 RMS=2.49D-06 Max=2.00D-05 NDo=     1
 LinEq1:  Iter=  2 NonCon=     1 RMS=5.08D-07 Max=4.28D-06 NDo=     1
 LinEq1:  Iter=  3 NonCon=     1 RMS=1.28D-07 Max=9.53D-07 NDo=     1
 LinEq1:  Iter=  4 NonCon=     1 RMS=3.91D-08 Max=2.31D-07 NDo=     1
 LinEq1:  Iter=  5 NonCon=     1 RMS=9.09D-09 Max=4.93D-08 NDo=     1
 LinEq1:  Iter=  6 NonCon=     1 RMS=1.60D-09 Max=8.66D-09 NDo=     1
 LinEq1:  Iter=  7 NonCon=     0 RMS=3.22D-10 Max=1.72D-09 NDo=     1
 Linear equations converged to 7.914D-10 7.914D-09 after     7 iterations.
 LinEq1:  Iter=  0 NonCon=     1 RMS=2.75D-07 Max=1.50D-06 NDo=     1
 LinEq1:  Iter=  1 NonCon=     1 RMS=9.63D-08 Max=5.81D-07 NDo=     1
 LinEq1:  Iter=  2 NonCon=     1 RMS=2.77D-08 Max=1.73D-07 NDo=     1
 LinEq1:  Iter=  3 NonCon=     1 RMS=7.17D-09 Max=3.86D-08 NDo=     1
 LinEq1:  Iter=  4 NonCon=     1 RMS=1.58D-09 Max=8.25D-09 NDo=     1
 LinEq1:  Iter=  5 NonCon=     1 RMS=2.86D-10 Max=1.68D-09 NDo=     1
 LinEq1:  Iter=  6 NonCon=     1 RMS=7.34D-11 Max=5.92D-10 NDo=     1
 LinEq1:  Iter=  7 NonCon=     0 RMS=2.49D-11 Max=1.55D-10 NDo=     1
 Linear equations converged to 4.030D-11 4.030D-10 after     7 iterations.
 SCF Done:  E(UAM1) =  0.605398235223     a.u. after   11 cycles
            Convg  =    0.1782D-06                   114 Fock formations.
              S**2 =  1.8453                  -V/T =  1.0089
 <Sx>= 0.0000 <Sy>= 0.0000 <Sz>= 0.5000 <S**2>= 1.8453 S= 0.9475
 <L.S>=  0.00000000000    
 Annihilation of the first spin contaminant:
 S**2 before annihilation     1.8453,   after     2.6055

 **********************************************************************

            Population analysis using the SCF Density.

 **********************************************************************

 Orbital symmetries:
 Alpha Orbitals:
       Occupied  (A') (A') (A') (A') (A') (A') (A') (A') (A") (A')
                 (A") (A') (A') (A') (A') (A") (A') (A")
       Virtual   (A") (A') (A') (A") (A') (A') (A') (A") (A') (A')
                 (A') (A') (A') (A')
 Beta  Orbitals:
       Occupied  (A') (A') (A') (A') (A') (A') (A') (A') (A") (A')
                 (A") (A') (A') (A') (A') (A") (A")
       Virtual   (A') (A') (A") (A') (A') (A") (A') (A') (A") (A')
                 (A') (A') (A') (A') (A')
 The electronic state is 2-A'.
 Alpha  occ. eigenvalues --   -1.40498  -1.35524  -1.10377  -1.08986  -0.80995
 Alpha  occ. eigenvalues --   -0.79072  -0.58815  -0.57851  -0.51390  -0.50536
 Alpha  occ. eigenvalues --   -0.44847  -0.44434  -0.44213  -0.42756  -0.38435
 Alpha  occ. eigenvalues --   -0.36805  -0.36288  -0.35609
 Alpha virt. eigenvalues --    0.00988   0.01043   0.02009   0.02475   0.03293
 Alpha virt. eigenvalues --    0.03735   0.05608   0.10029   0.15562   0.15709
 Alpha virt. eigenvalues --    0.17824   0.18161   0.18876   0.20627
  Beta  occ. eigenvalues --   -1.39680  -1.34980  -1.09200  -1.06521  -0.79017
  Beta  occ. eigenvalues --   -0.76926  -0.57937  -0.56868  -0.51334  -0.47446
  Beta  occ. eigenvalues --   -0.44649  -0.44278  -0.42984  -0.40318  -0.38067
  Beta  occ. eigenvalues --   -0.35949  -0.34418
  Beta virt. eigenvalues --   -0.02807  -0.00445   0.02285   0.02298   0.02805
  Beta virt. eigenvalues --    0.03582   0.05023   0.05696   0.11193   0.16297
  Beta virt. eigenvalues --    0.16573   0.19124   0.19520   0.19883   0.22356
          Condensed to atoms (all electrons):
               1          2          3          4          5          6
     1  C    4.145539   0.000000   0.000000   0.000000   0.000000   0.000000
     2  C    0.000000   4.112645   0.000000   0.000000   0.000000   0.000000
     3  C    0.000000   0.000000   4.140147   0.000000   0.000000   0.000000
     4  C    0.000000   0.000000   0.000000   4.039887   0.000000   0.000000
     5  C    0.000000   0.000000   0.000000   0.000000   4.163887   0.000000
     6  C    0.000000   0.000000   0.000000   0.000000   0.000000   4.013656
     7  H    0.000000   0.000000   0.000000   0.000000   0.000000   0.000000
     8  Cl   0.000000   0.000000   0.000000   0.000000   0.000000   0.000000
     9  H    0.000000   0.000000   0.000000   0.000000   0.000000   0.000000
    10  H    0.000000   0.000000   0.000000   0.000000   0.000000   0.000000
    11  H    0.000000   0.000000   0.000000   0.000000   0.000000   0.000000
               7          8          9         10         11
     1  C    0.000000   0.000000   0.000000   0.000000   0.000000
     2  C    0.000000   0.000000   0.000000   0.000000   0.000000
     3  C    0.000000   0.000000   0.000000   0.000000   0.000000
     4  C    0.000000   0.000000   0.000000   0.000000   0.000000
     5  C    0.000000   0.000000   0.000000   0.000000   0.000000
     6  C    0.000000   0.000000   0.000000   0.000000   0.000000
     7  H    0.839106   0.000000   0.000000   0.000000   0.000000
     8  Cl   0.000000   7.042673   0.000000   0.000000   0.000000
     9  H    0.000000   0.000000   0.803054   0.000000   0.000000
    10  H    0.000000   0.000000   0.000000   0.868979   0.000000
    11  H    0.000000   0.000000   0.000000   0.000000   0.830427
          Atomic-Atomic Spin Densities.
               1          2          3          4          5          6
     1  C    0.788870   0.000000   0.000000   0.000000   0.000000   0.000000
     2  C    0.000000  -0.879980   0.000000   0.000000   0.000000   0.000000
     3  C    0.000000   0.000000   0.825784   0.000000   0.000000   0.000000
     4  C    0.000000   0.000000   0.000000  -0.419596   0.000000   0.000000
     5  C    0.000000   0.000000   0.000000   0.000000   0.704795   0.000000
     6  C    0.000000   0.000000   0.000000   0.000000   0.000000   0.566817
     7  H    0.000000   0.000000   0.000000   0.000000   0.000000   0.000000
     8  Cl   0.000000   0.000000   0.000000   0.000000   0.000000   0.000000
     9  H    0.000000   0.000000   0.000000   0.000000   0.000000   0.000000
    10  H    0.000000   0.000000   0.000000   0.000000   0.000000   0.000000
    11  H    0.000000   0.000000   0.000000   0.000000   0.000000   0.000000
               7          8          9         10         11
     1  C    0.000000   0.000000   0.000000   0.000000   0.000000
     2  C    0.000000   0.000000   0.000000   0.000000   0.000000
     3  C    0.000000   0.000000   0.000000   0.000000   0.000000
     4  C    0.000000   0.000000   0.000000   0.000000   0.000000
     5  C    0.000000   0.000000   0.000000   0.000000   0.000000
     6  C    0.000000   0.000000   0.000000   0.000000   0.000000
     7  H   -0.396016   0.000000   0.000000   0.000000   0.000000
     8  Cl   0.000000   0.015818   0.000000   0.000000   0.000000
     9  H    0.000000   0.000000  -0.320544   0.000000   0.000000
    10  H    0.000000   0.000000   0.000000   0.513294   0.000000
    11  H    0.000000   0.000000   0.000000   0.000000  -0.399242
 Mulliken charges and spin densities:
               1          2
     1  C   -0.145539   0.788870
     2  C   -0.112645  -0.879980
     3  C   -0.140147   0.825784
     4  C   -0.039887  -0.419596
     5  C   -0.163887   0.704795
     6  C   -0.013656   0.566817
     7  H    0.160894  -0.396016
     8  Cl  -0.042673   0.015818
     9  H    0.196946  -0.320544
    10  H    0.131021   0.513294
    11  H    0.169573  -0.399242
 Sum of Mulliken charges =  -0.00000   1.00000
 Mulliken charges and spin densities with hydrogens summed into heavy atoms:
               1          2
     1  C    0.015354   0.392854
     2  C    0.018376  -0.366687
     3  C    0.029426   0.426542
     4  C   -0.039887  -0.419596
     5  C    0.033059   0.384252
     6  C   -0.013656   0.566817
     8  Cl  -0.042673   0.015818
 Charge=             -0.0000 electrons
 Dipole moment (field-independent basis, Debye):
    X=              1.0075    Y=             -0.9379    Z=             -0.0000  Tot=              1.3765
 N-N= 1.476743521324D+02 E-N=-2.027385612889D+02  KE=-6.801932470862D+01
 Symmetry A'   KE=-5.320961084444D+01
 Symmetry A"   KE=-1.480971386418D+01
 Symmetry A'   SP= 1.000000000000D+00
 Symmetry A"   SP= 0.000000000000D+00
 Calling FoFJK, ICntrl=      2127 FMM=F ISym2X=1 I1Cent= 0 IOpClX= 1 NMat=1 NMatS=1 NMatT=0.
 ***** Axes restored to original set *****
 -------------------------------------------------------------------
 Center     Atomic                   Forces (Hartrees/Bohr)
 Number     Number              X              Y              Z
 -------------------------------------------------------------------
      1        6          -0.064626503    0.027181351   -0.000000000
      2        6           0.000462433    0.041984362   -0.000000000
      3        6           0.042277426    0.050195175   -0.000000000
      4        6           0.019367528   -0.007660687   -0.000000000
      5        6          -0.026009501   -0.075926972   -0.000000000
      6        6           0.058463756    0.035071392    0.000000000
      7        1           0.090298655   -0.049223819    0.000000000
      8       17          -0.032789252    0.017355491   -0.000000000
      9        1          -0.002744767    0.107722455    0.000000000
     10        1           0.002522947   -0.092353200    0.000000000
     11        1          -0.087222720   -0.054345548    0.000000000
 -------------------------------------------------------------------
 Cartesian Forces:  Max     0.107722455 RMS     0.044439270

 GradGradGradGradGradGradGradGradGradGradGradGradGradGradGradGradGradGrad
 Berny optimization.
 FormGI is forming the generalized inverse of G from B-inverse, IUseBI=4.
 Internal  Forces:  Max     0.107757204 RMS     0.033783320
 Search for a local minimum.
 Step number   1 out of a maximum of   57
 All quantities printed in internal units (Hartrees-Bohrs-Radians)
 Mixed Optimization -- RFO/linear search
 Second derivative matrix not updated -- first step.
 ITU=  0
     Eigenvalues ---    0.02011   0.02011   0.02011   0.02011   0.02011
     Eigenvalues ---    0.02011   0.02011   0.02011   0.06524   0.06524
     Eigenvalues ---    0.06524   0.06524   0.16000   0.16000   0.16000
     Eigenvalues ---    0.16000   0.22000   0.23188   0.23485   0.25000
     Eigenvalues ---    0.29033   0.40816   0.41378   0.44656   0.44657
     Eigenvalues ---    0.44657   0.44657
 RFO step:  Lambda=-1.85419266D-01 EMin= 2.01065650D-02
 Linear search not attempted -- first point.
 Maximum step size (   0.300) exceeded in Quadratic search.
    -- Step size scaled by   0.361
 Iteration  1 RMS(Cart)=  0.04976139 RMS(Int)=  0.00005671
 Iteration  2 RMS(Cart)=  0.00010833 RMS(Int)=  0.00000909
 Iteration  3 RMS(Cart)=  0.00000001 RMS(Int)=  0.00000909
 ClnCor:  largest displacement from symmetrization is 1.11D-10 for atom    11.
 Variable       Old X    -DE/DX   Delta X   Delta X   Delta X     New X
                                 (Linear)    (Quad)   (Total)
    R1        2.65676  -0.04469   0.00000  -0.02579  -0.02579   2.63097
    R2        2.65677  -0.05074   0.00000  -0.02928  -0.02926   2.62750
    R3        3.33635  -0.10284   0.00000  -0.14792  -0.14792   3.18843
    R4        2.65677  -0.04329   0.00000  -0.02466  -0.02467   2.63209
    R5        3.33634  -0.09239   0.00000  -0.13289  -0.13289   3.20346
    R6        2.65677  -0.02534   0.00000  -0.01413  -0.01414   2.64263
    R7        3.33633  -0.10277   0.00000  -0.14781  -0.14781   3.18852
    R8        2.65678  -0.02597   0.00000  -0.01451  -0.01452   2.64226
    R9        3.33633  -0.03710   0.00000  -0.02811  -0.02811   3.30822
   R10        2.65675  -0.05110   0.00000  -0.02918  -0.02917   2.62758
   R11        3.33632  -0.10776   0.00000  -0.15499  -0.15499   3.18133
    A1        2.09439  -0.00752   0.00000  -0.00758  -0.00756   2.08683
    A2        2.09439   0.00427   0.00000   0.00432   0.00431   2.09870
    A3        2.09440   0.00325   0.00000   0.00326   0.00325   2.09765
    A4        2.09439   0.00370   0.00000   0.00297   0.00297   2.09736
    A5        2.09440  -0.00188   0.00000  -0.00151  -0.00151   2.09289
    A6        2.09439  -0.00183   0.00000  -0.00146  -0.00146   2.09293
    A7        2.09440   0.00279   0.00000   0.00316   0.00314   2.09753
    A8        2.09440  -0.00034   0.00000  -0.00048  -0.00047   2.09393
    A9        2.09439  -0.00245   0.00000  -0.00268  -0.00267   2.09173
   A10        2.09439  -0.01031   0.00000  -0.00750  -0.00752   2.08687
   A11        2.09440   0.00573   0.00000   0.00423   0.00424   2.09864
   A12        2.09440   0.00458   0.00000   0.00327   0.00328   2.09768
   A13        2.09439  -0.00546   0.00000  -0.00432  -0.00431   2.09008
   A14        2.09439   0.00237   0.00000   0.00178   0.00178   2.09617
   A15        2.09440   0.00309   0.00000   0.00253   0.00253   2.09693
   A16        2.09440   0.01680   0.00000   0.01326   0.01329   2.10769
    D1        0.00000   0.00000   0.00000   0.00000   0.00000   0.00000
    D2        3.14159   0.00000   0.00000   0.00000   0.00000   3.14159
    D3        3.14159  -0.00000   0.00000  -0.00000   0.00000   3.14159
    D4        0.00000  -0.00000   0.00000  -0.00000   0.00000   0.00000
    D5       -0.00000  -0.00000   0.00000  -0.00000   0.00000   0.00000
    D6        3.14159   0.00000   0.00000   0.00000   0.00000   3.14159
    D7       -0.00000   0.00000   0.00000   0.00000   0.00000   0.00000
    D8        3.14159   0.00000   0.00000   0.00000   0.00000   3.14159
    D9        3.14159  -0.00000   0.00000  -0.00000   0.00000   3.14159
   D10        0.00000  -0.00000   0.00000  -0.00000  -0.00000   0.00000
   D11        0.00000  -0.00000   0.00000  -0.00000  -0.00000   0.00000
   D12        3.14159   0.00000   0.00000   0.00000   0.00000   3.14159
   D13        3.14159  -0.00000   0.00000  -0.00000   0.00000   3.14159
   D14        0.00000   0.00000   0.00000   0.00000   0.00000   0.00000
   D15        0.00000  -0.00000   0.00000  -0.00000   0.00000   0.00000
   D16        3.14159   0.00000   0.00000   0.00000   0.00000   3.14159
   D17        3.14159  -0.00000   0.00000  -0.00000   0.00000   3.14159
   D18       -0.00000   0.00000   0.00000   0.00000   0.00000   0.00000
   D19        0.00000   0.00000   0.00000   0.00000   0.00000   0.00000
   D20        3.14159  -0.00000   0.00000  -0.00000   0.00000   3.14159
         Item               Value     Threshold  Converged?
 Maximum Force            0.107757     0.000450     NO 
 RMS     Force            0.033783     0.000300     NO 
 Maximum Displacement     0.185458     0.001800     NO 
 RMS     Displacement     0.049776     0.001200     NO 
 Predicted change in Energy=-6.314273D-02
 GradGradGradGradGradGradGradGradGradGradGradGradGradGradGradGradGradGrad

                          Input orientation:                          
 ---------------------------------------------------------------------
 Center     Atomic      Atomic             Coordinates (Angstroms)
 Number     Number       Type             X           Y           Z
 ---------------------------------------------------------------------
      1          6           0       -3.197429    0.201975   -0.000000
      2          6           0       -2.009930    0.928756   -0.000000
      3          6           0       -0.784280    0.267093   -0.000000
      4          6           0       -0.739926   -1.130621    0.000000
      5          6           0       -1.933554   -1.858824   -0.000000
      6          6           0       -3.151305   -1.187674   -0.000000
      7          1           0       -4.683211    1.001498   -0.000000
      8         17           0        0.799646   -1.963951    0.000000
      9          1           0       -1.895813   -3.541890    0.000000
     10          1           0       -2.055902    2.623328   -0.000000
     11          1           0        0.651835    1.152831    0.000000
 ---------------------------------------------------------------------
                    Distance matrix (angstroms):
                    1          2          3          4          5
     1  C    0.000000
     2  C    1.392252   0.000000
     3  C    2.414028   1.392844   0.000000
     4  C    2.795556   2.419492   1.398417   0.000000
     5  C    2.417493   2.788626   2.416683   1.398224   0.000000
     6  C    1.390415   2.404582   2.778337   2.412054   1.390453
     7  H    1.687242   2.674271   3.967495   4.482793   3.967626
     8  Cl   4.546190   4.032551   2.736125   1.750635   2.735222
     9  H    3.963676   4.472101   3.967853   2.674003   1.683488
    10  H    2.676945   1.695196   2.677474   3.977930   4.483822
    11  H    3.964966   2.671179   1.687293   2.674163   3.969169
                    6          7          8          9         10
     6  C    0.000000
     7  H    2.671930   0.000000
     8  Cl   4.026490   6.233427   0.000000
     9  H    2.668069   5.330287   3.123362   0.000000
    10  H    3.965305   3.087570   5.403451   6.167296   0.000000
    11  H    4.465628   5.337192   3.120285   5.341433   3.081266
                   11
    11  H    0.000000
 Stoichiometry    C6H4Cl(2)
 Framework group  CS[SG(C6H4Cl)]
 Deg. of freedom    19
 Full point group                 CS      NOp   2
 Largest Abelian subgroup         CS      NOp   2
 Largest concise Abelian subgroup C1      NOp   1
                         Standard orientation:                         
 ---------------------------------------------------------------------
 Center     Atomic      Atomic             Coordinates (Angstroms)
 Number     Number       Type             X           Y           Z
 ---------------------------------------------------------------------
      1          6           0       -0.271847   -2.292935   -0.000000
      2          6           0        0.995221   -1.715957   -0.000000
      3          6           0        1.133248   -0.329969   -0.000000
      4          6           0       -0.000000    0.489372    0.000000
      5          6           0       -1.271679   -0.091887    0.000000
      6          6           0       -1.397423   -1.476643    0.000000
      7          1           0       -0.441300   -3.971646   -0.000000
      8         17           0        0.171559    2.231580    0.000000
      9          1           0       -2.645059    0.881745    0.000000
     10          1           0        2.373526   -2.702852   -0.000000
     11          1           0        2.671222    0.363999   -0.000000
 ---------------------------------------------------------------------
 Rotational constants (GHZ):           5.5512000           1.5418266           1.2066764
 Standard basis: VSTO-6G (5D, 7F)
 There are    25 symmetry adapted cartesian basis functions of A'  symmetry.
 There are     7 symmetry adapted cartesian basis functions of A"  symmetry.
 There are    25 symmetry adapted basis functions of A'  symmetry.
 There are     7 symmetry adapted basis functions of A"  symmetry.
    32 basis functions,   192 primitive gaussians,    32 cartesian basis functions
    18 alpha electrons       17 beta electrons
       nuclear repulsion energy       148.7266753440 Hartrees.
 Integral buffers will be    131072 words long.
 Regular integral format.
 Two-electron integral symmetry is turned off.
 Do NDO integrals.
 One-electron integrals computed using PRISM.
 NBasis=    32 RedAO= T EigKep=  1.00D+00  NBF=    25     7
 NBsUse=    32 1.00D-06 EigRej= -1.00D+00 NBFU=    25     7
 Initial guess from the checkpoint file:  "geometry_chks/_3ClBzNeutralRadical.chk"
 B after Tr=    -0.000000   -0.000000    0.000000
         Rot=    0.998799   -0.000000    0.000000    0.048990 Ang=   5.62 deg.
 Initial guess orbital symmetries:
 Alpha Orbitals:
       Occupied  (A') (A') (A') (A') (A') (A') (A') (A') (A") (A')
                 (A") (A') (A') (A') (A') (A") (A') (A")
       Virtual   (A") (A') (A') (A") (A') (A') (A') (A") (A') (A')
                 (A') (A') (A') (A')
 Beta  Orbitals:
       Occupied  (A') (A') (A') (A') (A') (A') (A') (A') (A") (A')
                 (A") (A') (A') (A') (A') (A") (A")
       Virtual   (A') (A') (A") (A') (A') (A") (A') (A') (A") (A')
                 (A') (A') (A') (A') (A')
 Initial guess <Sx>= 0.0000 <Sy>= 0.0000 <Sz>= 0.5000 <S**2>= 1.8453 S= 0.9475
 Keep J ints in memory in canonical form, NReq=862079.
 Overlap will be assumed to be unity.
 Requested convergence on RMS density matrix=1.00D-08 within  32 cycles.
 Requested convergence on MAX density matrix=1.00D-06.
 Requested convergence on             energy=1.00D-06.
 No special actions if energy rises.
 Fock symm off for IB=2 I1=    1 I=   26 J=    9 Cut=1.00D-07 Err=9.00D-04
 Fock matrix is not symmetric: symmetry in diagonalization turned off.
 Rare condition: small coef for last iteration:  0.000D+00
 Rare condition: small coef for last iteration:  0.000D+00
 Rare condition: small coef for last iteration:  0.000D+00
 Rare condition: small coef for last iteration:  0.000D+00
 Rare condition: small coef for last iteration:  0.000D+00
 Rare condition: small coef for last iteration:  0.000D+00
 Rare condition: small coef for last iteration:  0.000D+00
 Rare condition: small coef for last iteration:  0.000D+00
 Rare condition: small coef for last iteration:  0.000D+00
 Rare condition: small coef for last iteration:  0.000D+00
 Rare condition: small coef for last iteration:  0.000D+00
 >>>>>>>>>> Convergence criterion not met.
 SCF Done:  E(UAM1) =  0.533139660047     A.U. after   33 cycles
            NFock= 32  Conv=0.21D-01     -V/T= 1.0078
 <Sx>= 0.0000 <Sy>= 0.0000 <Sz>= 0.5000 <S**2>= 1.0579 S= 0.6436
 <L.S>=  0.00000000000    
 Annihilation of the first spin contaminant:
 S**2 before annihilation     1.0579,   after     0.8437
 Keep J ints in memory in canonical form, NReq=862479.
 LinEq1:  Iter=  0 NonCon=     1 RMS=8.00D-04 Max=6.77D-03 NDo=     1
 AX will form     1 AO Fock derivatives at one time.
 LinEq1:  Iter=  1 NonCon=     1 RMS=2.18D-04 Max=1.61D-03 NDo=     1
 LinEq1:  Iter=  2 NonCon=     1 RMS=4.36D-05 Max=2.62D-04 NDo=     1
 LinEq1:  Iter=  3 NonCon=     1 RMS=1.31D-05 Max=8.80D-05 NDo=     1
 LinEq1:  Iter=  4 NonCon=     1 RMS=3.40D-06 Max=2.28D-05 NDo=     1
 LinEq1:  Iter=  5 NonCon=     1 RMS=9.75D-07 Max=7.51D-06 NDo=     1
 LinEq1:  Iter=  6 NonCon=     1 RMS=2.20D-07 Max=1.84D-06 NDo=     1
 LinEq1:  Iter=  7 NonCon=     1 RMS=4.49D-08 Max=2.99D-07 NDo=     1
 LinEq1:  Iter=  8 NonCon=     1 RMS=1.04D-08 Max=7.54D-08 NDo=     1
 LinEq1:  Iter=  9 NonCon=     1 RMS=2.85D-09 Max=1.69D-08 NDo=     1
 LinEq1:  Iter= 10 NonCon=     0 RMS=5.39D-10 Max=3.28D-09 NDo=     1
 Linear equations converged to 2.252D-09 2.252D-08 after    10 iterations.
 LinEq1:  Iter=  0 NonCon=     1 RMS=4.87D-04 Max=3.15D-03 NDo=     1
 LinEq1:  Iter=  1 NonCon=     1 RMS=1.54D-04 Max=1.09D-03 NDo=     1
 LinEq1:  Iter=  2 NonCon=     1 RMS=3.20D-05 Max=1.96D-04 NDo=     1
 LinEq1:  Iter=  3 NonCon=     1 RMS=9.09D-06 Max=6.68D-05 NDo=     1
 LinEq1:  Iter=  4 NonCon=     1 RMS=2.07D-06 Max=1.53D-05 NDo=     1
 LinEq1:  Iter=  5 NonCon=     1 RMS=5.51D-07 Max=4.20D-06 NDo=     1
 LinEq1:  Iter=  6 NonCon=     1 RMS=1.16D-07 Max=9.20D-07 NDo=     1
 LinEq1:  Iter=  7 NonCon=     1 RMS=2.60D-08 Max=1.86D-07 NDo=     1
 LinEq1:  Iter=  8 NonCon=     1 RMS=7.30D-09 Max=4.74D-08 NDo=     1
 LinEq1:  Iter=  9 NonCon=     0 RMS=1.77D-09 Max=9.42D-09 NDo=     1
 Linear equations converged to 2.252D-09 2.252D-08 after     9 iterations.
     Accept linear search using points  1 and  2.
 LinEq1:  Iter=  0 NonCon=     1 RMS=1.15D-04 Max=6.67D-04 NDo=     1
 LinEq1:  Iter=  1 NonCon=     1 RMS=2.17D-05 Max=1.51D-04 NDo=     1
 LinEq1:  Iter=  2 NonCon=     1 RMS=6.09D-06 Max=3.28D-05 NDo=     1
 LinEq1:  Iter=  3 NonCon=     1 RMS=1.58D-06 Max=9.74D-06 NDo=     1
 LinEq1:  Iter=  4 NonCon=     1 RMS=3.46D-07 Max=2.14D-06 NDo=     1
 LinEq1:  Iter=  5 NonCon=     1 RMS=7.79D-08 Max=6.96D-07 NDo=     1
 LinEq1:  Iter=  6 NonCon=     1 RMS=2.02D-08 Max=1.69D-07 NDo=     1
 LinEq1:  Iter=  7 NonCon=     1 RMS=4.61D-09 Max=3.50D-08 NDo=     1
 LinEq1:  Iter=  8 NonCon=     0 RMS=8.68D-10 Max=5.59D-09 NDo=     1
 Linear equations converged to 2.252D-09 2.252D-08 after     8 iterations.
     Minimum is close to point  2 DX=  1.98D-03 DF= -2.95D-11 DXR=  1.97D-03 DFR=  3.89D-06 which will be used.
 LinEq1:  Iter=  0 NonCon=     1 RMS=1.03D-06 Max=6.39D-06 NDo=     1
 LinEq1:  Iter=  1 NonCon=     1 RMS=3.47D-07 Max=1.83D-06 NDo=     1
 LinEq1:  Iter=  2 NonCon=     1 RMS=8.84D-08 Max=5.94D-07 NDo=     1
 LinEq1:  Iter=  3 NonCon=     1 RMS=1.86D-08 Max=1.79D-07 NDo=     1
 LinEq1:  Iter=  4 NonCon=     1 RMS=3.54D-09 Max=1.85D-08 NDo=     1
 LinEq1:  Iter=  5 NonCon=     1 RMS=8.75D-10 Max=7.01D-09 NDo=     1
 LinEq1:  Iter=  6 NonCon=     1 RMS=2.16D-10 Max=1.33D-09 NDo=     1
 LinEq1:  Iter=  7 NonCon=     0 RMS=4.49D-11 Max=2.61D-10 NDo=     1
 Linear equations converged to 1.510D-10 1.510D-09 after     7 iterations.
 LinEq1:  Iter=  0 NonCon=     1 RMS=5.05D-08 Max=2.94D-07 NDo=     1
 LinEq1:  Iter=  1 NonCon=     1 RMS=1.60D-08 Max=9.37D-08 NDo=     1
 LinEq1:  Iter=  2 NonCon=     1 RMS=3.50D-09 Max=2.05D-08 NDo=     1
 LinEq1:  Iter=  3 NonCon=     1 RMS=9.05D-10 Max=3.86D-09 NDo=     1
 LinEq1:  Iter=  4 NonCon=     1 RMS=1.91D-10 Max=1.57D-09 NDo=     1
 LinEq1:  Iter=  5 NonCon=     1 RMS=4.59D-11 Max=4.30D-10 NDo=     1
 LinEq1:  Iter=  6 NonCon=     1 RMS=1.21D-11 Max=1.02D-10 NDo=     1
 LinEq1:  Iter=  7 NonCon=     0 RMS=3.09D-12 Max=2.08D-11 NDo=     1
 Linear equations converged to 7.698D-12 7.698D-11 after     7 iterations.
 SCF Done:  E(UAM1) =  0.522742079333     a.u. after    6 cycles
            Convg  =    0.2288D-07                    51 Fock formations.
              S**2 =  1.6670                  -V/T =  1.0077
 <Sx>= 0.0000 <Sy>= 0.0000 <Sz>= 0.5000 <S**2>= 1.6670 S= 0.8846
 <L.S>=  0.00000000000    
 Annihilation of the first spin contaminant:
 S**2 before annihilation     1.6670,   after     1.9334
 Calling FoFJK, ICntrl=      2127 FMM=F ISym2X=1 I1Cent= 0 IOpClX= 1 NMat=1 NMatS=1 NMatT=0.
 ***** Axes restored to original set *****
 -------------------------------------------------------------------
 Center     Atomic                   Forces (Hartrees/Bohr)
 Number     Number              X              Y              Z
 -------------------------------------------------------------------
      1        6          -0.090860790    0.037281562   -0.000000000
      2        6          -0.000789545    0.091151734   -0.000000000
      3        6           0.071741589    0.062099510   -0.000000000
      4        6           0.025014577   -0.013021417   -0.000000000
      5        6          -0.022256969   -0.100521373   -0.000000000
      6        6           0.040583763    0.023930695   -0.000000000
      7        1           0.099364872   -0.054066597    0.000000000
      8       17          -0.026651934    0.014057904   -0.000000000
      9        1          -0.002389569    0.114575301    0.000000000
     10        1           0.002993225   -0.114963332    0.000000000
     11        1          -0.096749221   -0.060523987    0.000000000
 -------------------------------------------------------------------
 Cartesian Forces:  Max     0.114963332 RMS     0.053274537

 GradGradGradGradGradGradGradGradGradGradGradGradGradGradGradGradGradGrad
 Berny optimization.
 Using GEDIIS/GDIIS optimizer.
 FormGI is forming the generalized inverse of G from B-inverse, IUseBI=4.
 Internal  Forces:  Max     0.115002223 RMS     0.034704730
 Search for a local minimum.
 Step number   2 out of a maximum of   57
 All quantities printed in internal units (Hartrees-Bohrs-Radians)
 Mixed Optimization -- RFO/linear search
 Update second derivatives using D2CorX and points    1    2
 DE= -8.27D-02 DEPred=-6.31D-02 R= 1.31D+00
 TightC=F SS=  1.41D+00  RLast= 3.00D-01 DXNew= 5.0454D-01 9.0000D-01
 Trust test= 1.31D+00 RLast= 3.00D-01 DXMaxT set to 5.05D-01
 ITU=  1  0
 Use linear search instead of GDIIS.
     Eigenvalues ---   -0.46396   0.02011   0.02011   0.02011   0.02011
     Eigenvalues ---    0.02011   0.02011   0.02011   0.02011   0.02307
     Eigenvalues ---    0.06524   0.06524   0.09842   0.15999   0.16000
     Eigenvalues ---    0.16000   0.16003   0.22100   0.23276   0.23630
     Eigenvalues ---    0.25000   0.29652   0.40856   0.41077   0.44612
     Eigenvalues ---    0.44656   0.44657
 RFO step:  Lambda=-4.85297198D-01 EMin=-4.63956038D-01
 Skip linear search -- no minimum in search direction.
 Maximum step size (   0.505) exceeded in Quadratic search.
    -- Step size scaled by   0.465
 Iteration  1 RMS(Cart)=  0.04552581 RMS(Int)=  0.01497198
 Iteration  2 RMS(Cart)=  0.01423265 RMS(Int)=  0.00008148
 Iteration  3 RMS(Cart)=  0.00000506 RMS(Int)=  0.00008143
 Iteration  4 RMS(Cart)=  0.00000000 RMS(Int)=  0.00008143
 ClnCor:  largest displacement from symmetrization is 2.11D-08 for atom     8.
 Variable       Old X    -DE/DX   Delta X   Delta X   Delta X     New X
                                 (Linear)    (Quad)   (Total)
    R1        2.63097  -0.02172   0.00000   0.11453   0.11464   2.74561
    R2        2.62750  -0.03117   0.00000   0.08964   0.08963   2.71713
    R3        3.18843  -0.11312   0.00000  -0.19227  -0.19227   2.99615
    R4        2.63209  -0.02080   0.00000   0.11270   0.11282   2.74491
    R5        3.20346  -0.11500   0.00000  -0.30256  -0.30256   2.90089
    R6        2.64263  -0.00737   0.00000   0.09514   0.09514   2.73777
    R7        3.18852  -0.11412   0.00000  -0.20263  -0.20263   2.98589
    R8        2.64226  -0.01019   0.00000   0.08066   0.08055   2.72281
    R9        3.30822  -0.03013   0.00000   0.02471   0.02471   3.33293
   R10        2.62758  -0.03217   0.00000   0.08504   0.08493   2.71250
   R11        3.18133  -0.11460   0.00000  -0.16337  -0.16337   3.01796
    A1        2.08683  -0.00574   0.00000   0.00874   0.00886   2.09569
    A2        2.09870   0.00371   0.00000  -0.00116  -0.00122   2.09748
    A3        2.09765   0.00203   0.00000  -0.00758  -0.00764   2.09001
    A4        2.09736   0.00040   0.00000  -0.02139  -0.02115   2.07622
    A5        2.09289  -0.00040   0.00000   0.00917   0.00905   2.10194
    A6        2.09293  -0.00000   0.00000   0.01222   0.01210   2.10503
    A7        2.09753   0.00250   0.00000   0.00130   0.00144   2.09897
    A8        2.09393  -0.00009   0.00000   0.00107   0.00101   2.09493
    A9        2.09173  -0.00241   0.00000  -0.00238  -0.00244   2.08928
   A10        2.08687  -0.00791   0.00000   0.01068   0.01058   2.09745
   A11        2.09864   0.00449   0.00000  -0.00524  -0.00519   2.09345
   A12        2.09768   0.00342   0.00000  -0.00544  -0.00539   2.09229
   A13        2.09008  -0.00520   0.00000  -0.00340  -0.00363   2.08645
   A14        2.09617   0.00232   0.00000   0.00203   0.00214   2.09831
   A15        2.09693   0.00289   0.00000   0.00137   0.00149   2.09842
   A16        2.10769   0.01595   0.00000   0.00407   0.00390   2.11159
    D1        0.00000   0.00000   0.00000   0.00000   0.00000   0.00000
    D2        3.14159   0.00000   0.00000   0.00000   0.00000   3.14159
    D3        3.14159  -0.00000   0.00000   0.00000   0.00000   3.14159
    D4       -0.00000   0.00000   0.00000   0.00000   0.00000   0.00000
    D5       -0.00000  -0.00000   0.00000   0.00000   0.00000   0.00000
    D6        3.14159   0.00000   0.00000   0.00000   0.00000   3.14159
    D7        0.00000  -0.00000   0.00000  -0.00000  -0.00000   0.00000
    D8        3.14159   0.00000   0.00000   0.00000   0.00000   3.14159
    D9        3.14159  -0.00000   0.00000  -0.00000   0.00000   3.14159
   D10        0.00000  -0.00000   0.00000   0.00000   0.00000   0.00000
   D11       -0.00000  -0.00000   0.00000   0.00000   0.00000   0.00000
   D12        3.14159   0.00000   0.00000   0.00000   0.00000   3.14159
   D13        3.14159  -0.00000   0.00000  -0.00000   0.00000   3.14159
   D14        0.00000  -0.00000   0.00000  -0.00000   0.00000   0.00000
   D15        0.00000   0.00000   0.00000   0.00000  -0.00000   0.00000
   D16        3.14159   0.00000   0.00000   0.00000   0.00000   3.14159
   D17        3.14159  -0.00000   0.00000   0.00000   0.00000   3.14159
   D18       -0.00000   0.00000   0.00000   0.00000   0.00000   0.00000
   D19        0.00000  -0.00000   0.00000  -0.00000   0.00000   0.00000
   D20        3.14159  -0.00000   0.00000  -0.00000   0.00000   3.14159
         Item               Value     Threshold  Converged?
 Maximum Force            0.115002     0.000450     NO 
 RMS     Force            0.034705     0.000300     NO 
 Maximum Displacement     0.154686     0.001800     NO 
 RMS     Displacement     0.050198     0.001200     NO 
 Predicted change in Energy=-1.350969D-01
 GradGradGradGradGradGradGradGradGradGradGradGradGradGradGradGradGradGrad

                          Input orientation:                          
 ---------------------------------------------------------------------
 Center     Atomic      Atomic             Coordinates (Angstroms)
 Number     Number       Type             X           Y           Z
 ---------------------------------------------------------------------
      1          6           0       -3.244621    0.238299   -0.000000
      2          6           0       -2.013972    1.010612   -0.000000
      3          6           0       -0.742697    0.307943   -0.000000
      4          6           0       -0.709033   -1.140432    0.000000
      5          6           0       -1.937475   -1.893408    0.000000
      6          6           0       -3.193522   -1.198639   -0.000000
      7          1           0       -4.648252    0.975603   -0.000000
      8         17           0        0.839261   -1.985095    0.000000
      9          1           0       -1.901749   -3.490045    0.000000
     10          1           0       -2.058945    2.545039   -0.000000
     11          1           0        0.611135    1.122645   -0.000000
 ---------------------------------------------------------------------
                    Distance matrix (angstroms):
                    1          2          3          4          5
     1  C    0.000000
     2  C    1.452916   0.000000
     3  C    2.502893   1.452544   0.000000
     4  C    2.886192   2.515921   1.448766   0.000000
     5  C    2.500561   2.905028   2.504684   1.440848   0.000000
     6  C    1.437846   2.504421   2.876861   2.485171   1.435395
     7  H    1.585496   2.634512   3.962213   4.471583   3.947092
     8  Cl   4.649900   4.137052   2.785788   1.763709   2.778249
     9  H    3.962809   4.502056   3.970908   2.635006   1.597037
    10  H    2.593623   1.535086   2.595594   3.924915   4.440109
    11  H    3.955872   2.627496   1.580063   2.619992   3.948669
                    6          7          8          9         10
     6  C    0.000000
     7  H    2.616021   0.000000
     8  Cl   4.108753   6.235265   0.000000
     9  H    2.630441   5.242642   3.126981   0.000000
    10  H    3.911826   3.027811   5.377891   6.037131   0.000000
    11  H    4.456878   5.261442   3.116102   5.252760   3.025315
                   11
    11  H    0.000000
 Stoichiometry    C6H4Cl(2)
 Framework group  CS[SG(C6H4Cl)]
 Deg. of freedom    19
 Full point group                 CS      NOp   2
 Largest Abelian subgroup         CS      NOp   2
 Largest concise Abelian subgroup C1      NOp   1
                         Standard orientation:                         
 ---------------------------------------------------------------------
 Center     Atomic      Atomic             Coordinates (Angstroms)
 Number     Number       Type             X           Y           Z
 ---------------------------------------------------------------------
      1          6           0       -0.268706   -2.358828    0.000000
      2          6           0        1.058477   -1.767600   -0.000000
      3          6           0        1.183725   -0.320466   -0.000000
      4          6           0       -0.000000    0.514829   -0.000000
      5          6           0       -1.309899   -0.085345    0.000000
      6          6           0       -1.433216   -1.515433    0.000000
      7          1           0       -0.438975   -3.935154    0.000000
      8         17           0        0.161773    2.271103   -0.000000
      9          1           0       -2.615567    0.834305    0.000000
     10          1           0        2.307342   -2.660250   -0.000000
     11          1           0        2.614764    0.349404   -0.000000
 ---------------------------------------------------------------------
 Rotational constants (GHZ):           5.2838233           1.4834141           1.1582419
 Standard basis: VSTO-6G (5D, 7F)
 There are    25 symmetry adapted cartesian basis functions of A'  symmetry.
 There are     7 symmetry adapted cartesian basis functions of A"  symmetry.
 There are    25 symmetry adapted basis functions of A'  symmetry.
 There are     7 symmetry adapted basis functions of A"  symmetry.
    32 basis functions,   192 primitive gaussians,    32 cartesian basis functions
    18 alpha electrons       17 beta electrons
       nuclear repulsion energy       147.1092718900 Hartrees.
 Integral buffers will be    131072 words long.
 Regular integral format.
 Two-electron integral symmetry is turned off.
 Do NDO integrals.
 One-electron integrals computed using PRISM.
 NBasis=    32 RedAO= T EigKep=  1.00D+00  NBF=    25     7
 NBsUse=    32 1.00D-06 EigRej= -1.00D+00 NBFU=    25     7
 Initial guess from the checkpoint file:  "geometry_chks/_3ClBzNeutralRadical.chk"
 B after Tr=     0.000000    0.000000    0.000000
         Rot=    0.999997    0.000000    0.000000   -0.002314 Ang=  -0.27 deg.
 Initial guess orbital symmetries:
 Alpha Orbitals:
       Occupied  (A') (A') (A') (A') (A') (A') (A') (A') (A") (A')
                 (A") (A') (A') (A') (A') (A") (A') (A")
       Virtual   (A') (A') (A") (A') (A") (A') (A') (A") (A') (A')
                 (A') (A') (A') (A')
 Beta  Orbitals:
       Occupied  (A') (A') (A') (A') (A') (A') (A') (A') (A") (A')
                 (A") (A') (A') (A') (A') (A") (A")
       Virtual   (A') (A") (A') (A') (A') (A") (A') (A') (A") (A')
                 (A') (A') (A') (A') (A')
 Initial guess <Sx>= 0.0000 <Sy>= 0.0000 <Sz>= 0.5000 <S**2>= 1.6670 S= 0.8846
 Keep J ints in memory in canonical form, NReq=862079.
 Overlap will be assumed to be unity.
 Requested convergence on RMS density matrix=1.00D-08 within  32 cycles.
 Requested convergence on MAX density matrix=1.00D-06.
 Requested convergence on             energy=1.00D-06.
 No special actions if energy rises.
 Fock symm off for IB=2 I1=    1 I=   26 J=   13 Cut=1.00D-07 Err=3.09D-03
 Fock matrix is not symmetric: symmetry in diagonalization turned off.
 SCF Done:  E(UAM1) =  0.449514514056     A.U. after   21 cycles
            NFock= 20  Conv=0.98D-08     -V/T= 1.0066
 <Sx>= 0.0000 <Sy>= 0.0000 <Sz>= 0.5000 <S**2>= 1.6452 S= 0.8767
 <L.S>=  0.00000000000    
 Annihilation of the first spin contaminant:
 S**2 before annihilation     1.6452,   after     1.6438
 QCSCF skips out because SCF is already converged.
 Calling FoFJK, ICntrl=      2127 FMM=F ISym2X=1 I1Cent= 0 IOpClX= 1 NMat=1 NMatS=1 NMatT=0.
 ***** Axes restored to original set *****
 -------------------------------------------------------------------
 Center     Atomic                   Forces (Hartrees/Bohr)
 Number     Number              X              Y              Z
 -------------------------------------------------------------------
      1        6          -0.048530373    0.022707415   -0.000000000
      2        6           0.000197056    0.033942926   -0.000000000
      3        6           0.031053929    0.037289586   -0.000000000
      4        6          -0.016088143    0.014713256   -0.000000000
      5        6          -0.018610008   -0.059627343    0.000000000
      6        6           0.083222713    0.053480832   -0.000000000
      7        1           0.108178355   -0.056937888    0.000000000
      8       17          -0.036231435    0.019685228   -0.000000000
      9        1          -0.002419047    0.121672051    0.000000000
     10        1           0.003550878   -0.123488391    0.000000000
     11        1          -0.104323924   -0.063437672    0.000000000
 -------------------------------------------------------------------
 Cartesian Forces:  Max     0.123488391 RMS     0.049898558

 GradGradGradGradGradGradGradGradGradGradGradGradGradGradGradGradGradGrad
 Berny optimization.
 Using GEDIIS/GDIIS optimizer.
 FormGI is forming the generalized inverse of G from B-inverse, IUseBI=4.
 Internal  Forces:  Max     0.123539414 RMS     0.045554382
 Search for a local minimum.
 Step number   3 out of a maximum of   57
 All quantities printed in internal units (Hartrees-Bohrs-Radians)
 Mixed Optimization -- RFO/linear search
 Update second derivatives using D2CorX and points    2    3
 DE= -7.32D-02 DEPred=-1.35D-01 R= 5.42D-01
 TightC=F SS=  1.41D+00  RLast= 5.05D-01 DXNew= 8.4853D-01 1.5136D+00
 Trust test= 5.42D-01 RLast= 5.05D-01 DXMaxT set to 8.49D-01
 ITU=  1  1  0
 Use linear search instead of GDIIS.
 Linear search step of   0.885 exceeds DXMaxT=   0.849 but not scaled.
 Quartic linear search produced a step of  1.75450.
 Iteration  1 RMS(Cart)=  0.06787585 RMS(Int)=  0.05841511
 Iteration  2 RMS(Cart)=  0.04255663 RMS(Int)=  0.01909501
 Iteration  3 RMS(Cart)=  0.01818623 RMS(Int)=  0.00036527
 Iteration  4 RMS(Cart)=  0.00000379 RMS(Int)=  0.00036526
 Iteration  5 RMS(Cart)=  0.00000000 RMS(Int)=  0.00036526
 ClnCor:  largest displacement from symmetrization is 1.33D-08 for atom     8.
 Variable       Old X    -DE/DX   Delta X   Delta X   Delta X     New X
                                 (Linear)    (Quad)   (Total)
    R1        2.74561  -0.08248   0.20113   0.00000   0.20159   2.94721
    R2        2.71713  -0.08317   0.15726   0.00000   0.15724   2.87437
    R3        2.99615  -0.12225  -0.33734   0.00000  -0.33734   2.65881
    R4        2.74491  -0.08096   0.19794   0.00000   0.19841   2.94332
    R5        2.90089  -0.12354  -0.53085   0.00000  -0.53085   2.37004
    R6        2.73777  -0.06637   0.16693   0.00000   0.16693   2.90470
    R7        2.98589  -0.12210  -0.35552   0.00000  -0.35552   2.63037
    R8        2.72281  -0.06396   0.14132   0.00000   0.14085   2.86366
    R9        3.33293  -0.04123   0.04335   0.00000   0.04335   3.37628
   R10        2.71250  -0.08136   0.14901   0.00000   0.14853   2.86103
   R11        3.01796  -0.12170  -0.28663   0.00000  -0.28663   2.73133
    A1        2.09569  -0.00744   0.01554   0.00000   0.01609   2.11178
    A2        2.09748   0.00387  -0.00215   0.00000  -0.00242   2.09506
    A3        2.09001   0.00357  -0.01340   0.00000  -0.01367   2.07634
    A4        2.07622   0.00404  -0.03710   0.00000  -0.03597   2.04024
    A5        2.10194  -0.00212   0.01588   0.00000   0.01531   2.11725
    A6        2.10503  -0.00192   0.02123   0.00000   0.02066   2.12569
    A7        2.09897   0.00214   0.00252   0.00000   0.00311   2.10208
    A8        2.09493  -0.00023   0.00177   0.00000   0.00147   2.09641
    A9        2.08928  -0.00191  -0.00429   0.00000  -0.00458   2.08470
   A10        2.09745  -0.00560   0.01856   0.00000   0.01808   2.11553
   A11        2.09345   0.00292  -0.00910   0.00000  -0.00886   2.08459
   A12        2.09229   0.00268  -0.00946   0.00000  -0.00922   2.08307
   A13        2.08645  -0.00873  -0.00636   0.00000  -0.00739   2.07906
   A14        2.09831   0.00390   0.00376   0.00000   0.00427   2.10258
   A15        2.09842   0.00482   0.00261   0.00000   0.00312   2.10154
   A16        2.11159   0.01559   0.00684   0.00000   0.00608   2.11767
    D1       -0.00000   0.00000   0.00000   0.00000   0.00000   0.00000
    D2        3.14159   0.00000   0.00000   0.00000   0.00000   3.14159
    D3        3.14159  -0.00000   0.00000   0.00000   0.00000   3.14159
    D4        0.00000  -0.00000   0.00000   0.00000   0.00000   0.00000
    D5        0.00000  -0.00000   0.00000   0.00000   0.00000   0.00000
    D6        3.14159   0.00000   0.00000   0.00000   0.00000   3.14159
    D7        0.00000  -0.00000   0.00000   0.00000   0.00000   0.00000
    D8        3.14159   0.00000   0.00000   0.00000   0.00000   3.14159
    D9        3.14159  -0.00000   0.00000   0.00000   0.00000   3.14159
   D10       -0.00000  -0.00000   0.00000   0.00000   0.00000   0.00000
   D11       -0.00000  -0.00000   0.00000   0.00000   0.00000   0.00000
   D12        3.14159   0.00000   0.00000   0.00000   0.00000   3.14159
   D13        3.14159  -0.00000   0.00000   0.00000   0.00000   3.14159
   D14        0.00000  -0.00000   0.00000   0.00000  -0.00000   0.00000
   D15        0.00000   0.00000   0.00000   0.00000   0.00000   0.00000
   D16        3.14159   0.00000   0.00000   0.00000   0.00000   3.14159
   D17        3.14159   0.00000   0.00000   0.00000   0.00000   3.14159
   D18       -0.00000   0.00000   0.00000   0.00000   0.00000   0.00000
   D19       -0.00000  -0.00000   0.00000   0.00000   0.00000   0.00000
   D20        3.14159  -0.00000   0.00000   0.00000   0.00000   3.14159
         Item               Value     Threshold  Converged?
 Maximum Force            0.123539     0.000450     NO 
 RMS     Force            0.045554     0.000300     NO 
 Maximum Displacement     0.272245     0.001800     NO 
 RMS     Displacement     0.087834     0.001200     NO 
 Predicted change in Energy=-6.535273D-02
 GradGradGradGradGradGradGradGradGradGradGradGradGradGradGradGradGradGrad

                          Input orientation:                          
 ---------------------------------------------------------------------
 Center     Atomic      Atomic             Coordinates (Angstroms)
 Number     Number       Type             X           Y           Z
 ---------------------------------------------------------------------
      1          6           0       -3.325967    0.300476   -0.000000
      2          6           0       -2.021102    1.154678   -0.000000
      3          6           0       -0.670779    0.378432   -0.000000
      4          6           0       -0.656089   -1.158601    0.000000
      5          6           0       -1.944582   -1.956209    0.000000
      6          6           0       -3.267210   -1.219442   -0.000000
      7          1           0       -4.582353    0.933796   -0.000000
      8         17           0        0.908200   -2.021799    0.000000
      9          1           0       -1.912059   -3.401200    0.000000
     10          1           0       -2.062694    2.408161   -0.000000
     11          1           0        0.534766    1.074228   -0.000000
 ---------------------------------------------------------------------
                    Distance matrix (angstroms):
                    1          2          3          4          5
     1  C    0.000000
     2  C    1.559595   0.000000
     3  C    2.656333   1.557539   0.000000
     4  C    3.042557   2.685985   1.537104   0.000000
     5  C    2.645912   3.111827   2.659534   1.515385   0.000000
     6  C    1.521053   2.681274   3.048714   2.611829   1.513991
     7  H    1.406982   2.570758   3.950803   4.449008   3.912795
     8  Cl   4.829196   4.320973   2.873027   1.786648   2.853536
     9  H    3.962516   4.557182   3.978240   2.570352   1.445357
    10  H    2.457274   1.254173   2.461143   3.834101   4.365967
    11  H    3.937506   2.557133   1.391930   2.530546   3.915445
                    6          7          8          9         10
     6  C    0.000000
     7  H    2.523100   0.000000
     8  Cl   4.251803   6.235520   0.000000
     9  H    2.568365   5.091430   3.139524   0.000000
    10  H    3.822350   2.919320   5.333925   5.811313   0.000000
    11  H    4.440264   5.119046   3.118467   5.100628   2.919962
                   11
    11  H    0.000000
 Stoichiometry    C6H4Cl(2)
 Framework group  CS[SG(C6H4Cl)]
 Deg. of freedom    19
 Full point group                 CS      NOp   2
 Largest Abelian subgroup         CS      NOp   2
 Largest concise Abelian subgroup C1      NOp   1
                         Standard orientation:                         
 ---------------------------------------------------------------------
 Center     Atomic      Atomic             Coordinates (Angstroms)
 Number     Number       Type             X           Y           Z
 ---------------------------------------------------------------------
      1          6           0       -0.268053   -2.471832    0.000000
      2          6           0        1.166717   -1.860462    0.000000
      3          6           0        1.270428   -0.306380    0.000000
      4          6           0       -0.000000    0.558895    0.000000
      5          6           0       -1.378604   -0.070264    0.000000
      6          6           0       -1.499786   -1.579398    0.000000
      7          1           0       -0.438521   -3.868449    0.000000
      8         17           0        0.150131    2.339224    0.000000
      9          1           0       -2.562570    0.758761    0.000000
     10          1           0        2.186342   -2.590746    0.000000
     11          1           0        2.518304    0.310285    0.000000
 ---------------------------------------------------------------------
 Rotational constants (GHZ):           4.8412707           1.3890347           1.0793521
 Standard basis: VSTO-6G (5D, 7F)
 There are    25 symmetry adapted cartesian basis functions of A'  symmetry.
 There are     7 symmetry adapted cartesian basis functions of A"  symmetry.
 There are    25 symmetry adapted basis functions of A'  symmetry.
 There are     7 symmetry adapted basis functions of A"  symmetry.
    32 basis functions,   192 primitive gaussians,    32 cartesian basis functions
    18 alpha electrons       17 beta electrons
       nuclear repulsion energy       144.6032957429 Hartrees.
 Integral buffers will be    131072 words long.
 Regular integral format.
 Two-electron integral symmetry is turned off.
 Do NDO integrals.
 One-electron integrals computed using PRISM.
 NBasis=    32 RedAO= T EigKep=  1.00D+00  NBF=    25     7
 NBsUse=    32 1.00D-06 EigRej= -1.00D+00 NBFU=    25     7
 Initial guess from the checkpoint file:  "geometry_chks/_3ClBzNeutralRadical.chk"
 B after Tr=    -0.000000    0.000000   -0.000000
         Rot=    0.999996    0.000000   -0.000000   -0.002744 Ang=  -0.31 deg.
 Initial guess orbital symmetries:
 Alpha Orbitals:
       Occupied  (A') (A') (A') (A') (A') (A') (A') (A') (A') (A")
                 (A') (A') (A") (A') (A') (A') (A") (A")
       Virtual   (A") (A") (A') (A') (A') (A') (A') (A") (A') (A')
                 (A') (A') (A') (A')
 Beta  Orbitals:
       Occupied  (A') (A') (A') (A') (A') (A') (A') (A') (A') (A")
                 (A') (A") (A') (A') (A') (A") (A")
       Virtual   (A') (A") (A') (A") (A') (A') (A') (A') (A") (A')
                 (A') (A') (A') (A') (A')
 Initial guess <Sx>= 0.0000 <Sy>= 0.0000 <Sz>= 0.5000 <S**2>= 1.6452 S= 0.8767
 Keep J ints in memory in canonical form, NReq=862079.
 Overlap will be assumed to be unity.
 Requested convergence on RMS density matrix=1.00D-08 within  32 cycles.
 Requested convergence on MAX density matrix=1.00D-06.
 Requested convergence on             energy=1.00D-06.
 No special actions if energy rises.
 Fock symm off for IB=2 I1=    1 I=   26 J=    3 Cut=1.00D-07 Err=7.03D-03
 Fock matrix is not symmetric: symmetry in diagonalization turned off.
 SCF Done:  E(UAM1) =  0.386115416893     A.U. after   18 cycles
            NFock= 17  Conv=0.65D-08     -V/T= 1.0057
 <Sx>= 0.0000 <Sy>= 0.0000 <Sz>= 0.5000 <S**2>= 2.1209 S= 1.0398
 <L.S>=  0.00000000000    
 Annihilation of the first spin contaminant:
 S**2 before annihilation     2.1209,   after     2.9132
 QCSCF skips out because SCF is already converged.
 Calling FoFJK, ICntrl=      2127 FMM=F ISym2X=1 I1Cent= 0 IOpClX= 1 NMat=1 NMatS=1 NMatT=0.
 ***** Axes restored to original set *****
 -------------------------------------------------------------------
 Center     Atomic                   Forces (Hartrees/Bohr)
 Number     Number              X              Y              Z
 -------------------------------------------------------------------
      1        6           0.003670451   -0.006414611   -0.000000000
      2        6           0.003044130   -0.068337205   -0.000000000
      3        6          -0.020315425    0.000325118   -0.000000000
      4        6          -0.056706451    0.039481410   -0.000000000
      5        6          -0.015755556   -0.002820254   -0.000000000
      6        6           0.130533930    0.084715113    0.000000000
      7        1           0.102848284   -0.050887314    0.000000000
      8       17          -0.050612266    0.028237634   -0.000000000
      9        1          -0.002109191    0.118329498    0.000000000
     10        1           0.002888736   -0.086127413    0.000000000
     11        1          -0.097486643   -0.056501976    0.000000000
 -------------------------------------------------------------------
 Cartesian Forces:  Max     0.130533930 RMS     0.050766250

 GradGradGradGradGradGradGradGradGradGradGradGradGradGradGradGradGradGrad
 Berny optimization.
 Using GEDIIS/GDIIS optimizer.
 FormGI is forming the generalized inverse of G from B-inverse, IUseBI=4.
 Internal  Forces:  Max     0.139717416 RMS     0.058205524
 Search for a local minimum.
 Step number   4 out of a maximum of   57
 All quantities printed in internal units (Hartrees-Bohrs-Radians)
 Mixed Optimization -- RFO/linear search
 Update second derivatives using D2CorX and points    3    4
 ITU=  0  1  1  0
 Use linear search instead of GDIIS.
     Eigenvalues ---    0.01362   0.02011   0.02011   0.02011   0.02011
     Eigenvalues ---    0.02011   0.02011   0.02011   0.02011   0.06516
     Eigenvalues ---    0.06524   0.07960   0.15998   0.16000   0.16000
     Eigenvalues ---    0.16002   0.20975   0.22444   0.23292   0.24995
     Eigenvalues ---    0.26988   0.31915   0.41568   0.42900   0.44634
     Eigenvalues ---    0.44656   0.45158
 RFO step:  Lambda=-3.48356526D-01 EMin= 1.36242150D-02
 Quartic linear search produced a step of  0.20275.
 Maximum step size (   0.849) exceeded in Quadratic search.
    -- Step size scaled by   0.982
 Iteration  1 RMS(Cart)=  0.13614489 RMS(Int)=  0.05224258
 Iteration  2 RMS(Cart)=  0.05523830 RMS(Int)=  0.00026217
 Iteration  3 RMS(Cart)=  0.00008705 RMS(Int)=  0.00025488
 Iteration  4 RMS(Cart)=  0.00000001 RMS(Int)=  0.00025488
 ClnCor:  largest displacement from symmetrization is 3.73D-09 for atom     7.
 Variable       Old X    -DE/DX   Delta X   Delta X   Delta X     New X
                                 (Linear)    (Quad)   (Total)
    R1        2.94721  -0.13964   0.04087  -0.25577  -0.21457   2.73263
    R2        2.87437  -0.13972   0.03188  -0.25121  -0.21895   2.65542
    R3        2.65881  -0.11475  -0.06839  -0.31903  -0.38743   2.27138
    R4        2.94332  -0.13860   0.04023  -0.25035  -0.21020   2.73312
    R5        2.37004  -0.08618  -0.10763  -0.22783  -0.33546   2.03458
    R6        2.90470  -0.12788   0.03385  -0.19803  -0.16457   2.74014
    R7        2.63037  -0.11268  -0.07208  -0.31180  -0.38388   2.24649
    R8        2.86366  -0.12219   0.02856  -0.18606  -0.15782   2.70585
    R9        3.37628  -0.05796   0.00879  -0.14449  -0.13570   3.24057
   R10        2.86103  -0.13555   0.03011  -0.24443  -0.21423   2.64680
   R11        2.73133  -0.11835  -0.05811  -0.34158  -0.39970   2.33163
    A1        2.11178  -0.01004   0.00326  -0.03344  -0.02949   2.08229
    A2        2.09506   0.00389  -0.00049   0.01521   0.01437   2.10944
    A3        2.07634   0.00616  -0.00277   0.01823   0.01511   2.09146
    A4        2.04024   0.00549  -0.00729   0.02260   0.01553   2.05578
    A5        2.11725  -0.00271   0.00310  -0.01066  -0.00768   2.10957
    A6        2.12569  -0.00278   0.00419  -0.01193  -0.00786   2.11784
    A7        2.10208  -0.00026   0.00063   0.00638   0.00651   2.10860
    A8        2.09641   0.00040   0.00030  -0.00122  -0.00067   2.09573
    A9        2.08470  -0.00014  -0.00093  -0.00516  -0.00584   2.07886
   A10        2.11553  -0.00111   0.00367  -0.02516  -0.02225   2.09328
   A11        2.08459   0.00010  -0.00180   0.01325   0.01183   2.09642
[...]
 Iteration  2 RMS(Cart)=  0.00000000 RMS(Int)=  0.00000000
 ClnCor:  largest displacement from symmetrization is 2.11D-13 for atom     9.
 Variable       Old X    -DE/DX   Delta X   Delta X   Delta X     New X
                                 (Linear)    (Quad)   (Total)
    R1        2.66208  -0.00011  -0.00014   0.00002  -0.00013   2.66196
    R2        2.59085  -0.00000  -0.00006   0.00009   0.00003   2.59088
    R3        2.07135   0.00002   0.00009  -0.00003   0.00006   2.07142
    R4        2.64811  -0.00007  -0.00020   0.00010  -0.00010   2.64800
    R5        2.07734  -0.00030  -0.00048  -0.00031  -0.00079   2.07654
    R6        2.65980  -0.00008  -0.00008  -0.00002  -0.00011   2.65969
    R7        2.07926   0.00020   0.00068  -0.00011   0.00057   2.07984
    R8        2.67069  -0.00005  -0.00020   0.00010  -0.00009   2.67060
    R9        3.20135  -0.00005  -0.00010  -0.00003  -0.00013   3.20122
   R10        2.58906  -0.00000  -0.00004   0.00006   0.00002   2.58907
   R11        2.07225   0.00008   0.00002   0.00022   0.00024   2.07249
    A1        2.00352  -0.00001  -0.00004   0.00001  -0.00003   2.00349
    A2        2.13393   0.00000   0.00008  -0.00006   0.00002   2.13395
    A3        2.14574   0.00001  -0.00004   0.00005   0.00001   2.14575
    A4        2.09777   0.00004   0.00006   0.00000   0.00006   2.09783
    A5        2.09302  -0.00001  -0.00003   0.00001  -0.00002   2.09300
    A6        2.09240  -0.00002  -0.00003  -0.00001  -0.00005   2.09235
    A7        2.11044  -0.00001   0.00001  -0.00002  -0.00001   2.11043
    A8        2.08562   0.00000   0.00009  -0.00007   0.00002   2.08564
    A9        2.08713   0.00001  -0.00010   0.00008  -0.00001   2.08711
   A10        2.09967   0.00002  -0.00002   0.00004   0.00002   2.09969
   A11        2.09387  -0.00001  -0.00008   0.00005  -0.00003   2.09385
   A12        2.08965  -0.00001   0.00010  -0.00009   0.00000   2.08965
   A13        1.99584  -0.00002   0.00003  -0.00004  -0.00001   1.99583
   A14        2.13798  -0.00000   0.00005  -0.00008  -0.00003   2.13795
   A15        2.14937   0.00002  -0.00008   0.00012   0.00004   2.14940
   A16        2.25913  -0.00001  -0.00003  -0.00000  -0.00003   2.25910
    D1        0.00000   0.00000   0.00000   0.00000  -0.00000   0.00000
    D2        3.14159   0.00000   0.00000   0.00000   0.00000   3.14159
    D3        3.14159  -0.00000   0.00000  -0.00000   0.00000   3.14159
    D4        0.00000  -0.00000   0.00000  -0.00000   0.00000   0.00000
    D5       -0.00000  -0.00000   0.00000  -0.00000   0.00000   0.00000
    D6        3.14159   0.00000   0.00000   0.00000   0.00000   3.14159
    D7        0.00000   0.00000   0.00000  -0.00000   0.00000   0.00000
    D8        3.14159   0.00000   0.00000   0.00000   0.00000   3.14159
    D9        3.14159  -0.00000   0.00000  -0.00000   0.00000   3.14159
   D10        0.00000   0.00000   0.00000   0.00000  -0.00000   0.00000
   D11        0.00000  -0.00000   0.00000  -0.00000  -0.00000   0.00000
   D12        3.14159   0.00000   0.00000   0.00000   0.00000   3.14159
   D13        3.14159  -0.00000   0.00000  -0.00000   0.00000   3.14159
   D14       -0.00000  -0.00000   0.00000  -0.00000   0.00000   0.00000
   D15       -0.00000   0.00000   0.00000   0.00000   0.00000   0.00000
   D16        3.14159   0.00000   0.00000   0.00000   0.00000   3.14159
   D17        3.14159  -0.00000   0.00000  -0.00000   0.00000   3.14159
   D18        0.00000   0.00000   0.00000   0.00000  -0.00000   0.00000
   D19        0.00000   0.00000   0.00000   0.00000   0.00000   0.00000
   D20        3.14159  -0.00000   0.00000  -0.00000   0.00000   3.14159
         Item               Value     Threshold  Converged?
 Maximum Force            0.000297     0.000450     YES
 RMS     Force            0.000059     0.000300     YES
 Maximum Displacement     0.000866     0.001800     YES
 RMS     Displacement     0.000161     0.001200     YES
 Predicted change in Energy=-2.123292D-07
 Optimization completed.
    -- Stationary point found.
                           ----------------------------
                           !   Optimized Parameters   !
                           ! (Angstroms and Degrees)  !
 --------------------------                            --------------------------
 ! Name  Definition              Value          Derivative Info.                !
 --------------------------------------------------------------------------------
 ! R1    R(1,2)                  1.4087         -DE/DX =   -0.0001              !
 ! R2    R(1,6)                  1.371          -DE/DX =    0.0                 !
 ! R3    R(1,7)                  1.0961         -DE/DX =    0.0                 !
 ! R4    R(2,3)                  1.4013         -DE/DX =   -0.0001              !
 ! R5    R(2,10)                 1.0993         -DE/DX =   -0.0003              !
 ! R6    R(3,4)                  1.4075         -DE/DX =   -0.0001              !
 ! R7    R(3,11)                 1.1003         -DE/DX =    0.0002              !
 ! R8    R(4,5)                  1.4133         -DE/DX =   -0.0001              !
 ! R9    R(4,8)                  1.6941         -DE/DX =   -0.0001              !
 ! R10   R(5,6)                  1.3701         -DE/DX =    0.0                 !
 ! R11   R(5,9)                  1.0966         -DE/DX =    0.0001              !
 ! A1    A(2,1,6)              114.7931         -DE/DX =    0.0                 !
 ! A2    A(2,1,7)              122.265          -DE/DX =    0.0                 !
 ! A3    A(6,1,7)              122.9419         -DE/DX =    0.0                 !
 ! A4    A(1,2,3)              120.1934         -DE/DX =    0.0                 !
 ! A5    A(1,2,10)             119.9211         -DE/DX =    0.0                 !
 ! A6    A(3,2,10)             119.8855         -DE/DX =    0.0                 !
 ! A7    A(2,3,4)              120.9195         -DE/DX =    0.0                 !
 ! A8    A(2,3,11)             119.497          -DE/DX =    0.0                 !
 ! A9    A(4,3,11)             119.5835         -DE/DX =    0.0                 !
 ! A10   A(3,4,5)              120.3021         -DE/DX =    0.0                 !
 ! A11   A(3,4,8)              119.97           -DE/DX =    0.0                 !
 ! A12   A(5,4,8)              119.7279         -DE/DX =    0.0                 !
 ! A13   A(4,5,6)              114.353          -DE/DX =    0.0                 !
 ! A14   A(4,5,9)              122.4972         -DE/DX =    0.0                 !
 ! A15   A(6,5,9)              123.1498         -DE/DX =    0.0                 !
 ! A16   A(1,6,5)              129.4388         -DE/DX =    0.0                 !
 ! D1    D(6,1,2,3)              0.0            -DE/DX =    0.0                 !
 ! D2    D(6,1,2,10)           180.0            -DE/DX =    0.0                 !
 ! D3    D(7,1,2,3)            180.0            -DE/DX =    0.0                 !
 ! D4    D(7,1,2,10)             0.0            -DE/DX =    0.0                 !
 ! D5    D(2,1,6,5)              0.0            -DE/DX =    0.0                 !
 ! D6    D(7,1,6,5)            180.0            -DE/DX =    0.0                 !
 ! D7    D(1,2,3,4)              0.0            -DE/DX =    0.0                 !
 ! D8    D(1,2,3,11)           180.0            -DE/DX =    0.0                 !
 ! D9    D(10,2,3,4)           180.0            -DE/DX =    0.0                 !
 ! D10   D(10,2,3,11)            0.0            -DE/DX =    0.0                 !
 ! D11   D(2,3,4,5)              0.0            -DE/DX =    0.0                 !
 ! D12   D(2,3,4,8)            180.0            -DE/DX =    0.0                 !
 ! D13   D(11,3,4,5)           180.0            -DE/DX =    0.0                 !
 ! D14   D(11,3,4,8)             0.0            -DE/DX =    0.0                 !
 ! D15   D(3,4,5,6)              0.0            -DE/DX =    0.0                 !
 ! D16   D(3,4,5,9)            180.0            -DE/DX =    0.0                 !
 ! D17   D(8,4,5,6)            180.0            -DE/DX =    0.0                 !
 ! D18   D(8,4,5,9)              0.0            -DE/DX =    0.0                 !
 ! D19   D(4,5,6,1)              0.0            -DE/DX =    0.0                 !
 ! D20   D(9,5,6,1)            180.0            -DE/DX =    0.0                 !
 --------------------------------------------------------------------------------
 GradGradGradGradGradGradGradGradGradGradGradGradGradGradGradGradGradGrad

                          Input orientation:                          
 ---------------------------------------------------------------------
 Center     Atomic      Atomic             Coordinates (Angstroms)
 Number     Number       Type             X           Y           Z
 ---------------------------------------------------------------------
      1          6           0       -3.218536    0.275191    0.000000
      2          6           0       -2.008155    0.995923    0.000000
      3          6           0       -0.782944    0.315811   -0.000000
      4          6           0       -0.736647   -1.090933   -0.000000
      5          6           0       -1.932716   -1.843762    0.000000
      6          6           0       -3.075727   -1.088371    0.000000
      7          1           0       -4.195501    0.772186    0.000000
      8         17           0        0.757956   -1.888473   -0.000000
      9          1           0       -1.938650   -2.940331    0.000000
     10          1           0       -2.024480    2.095080    0.000000
     11          1           0        0.155531    0.890199   -0.000000
 ---------------------------------------------------------------------
                    Distance matrix (angstroms):
                    1          2          3          4          5
     1  C    0.000000
     2  C    1.408714   0.000000
     3  C    2.435930   1.401318   0.000000
     4  C    2.833032   2.443706   1.407506   0.000000
     5  C    2.478567   2.840687   2.446576   1.413271   0.000000
     6  C    1.371020   2.341792   2.688602   2.339081   1.370069
     7  H    1.096113   2.198759   3.442938   3.928725   3.458812
     8  Cl   4.527023   3.996387   2.689469   1.694081   2.691044
     9  H    3.460880   3.936868   3.455158   2.205694   1.096585
    10  H    2.176641   1.099279   2.169611   3.436451   3.939911
    11  H    3.429659   2.166267   1.100299   2.172755   3.440250
                    6          7          8          9         10
     6  C    0.000000
     7  H    2.171536   0.000000
     8  Cl   3.916285   5.622797   0.000000
     9  H    2.173177   4.344670   2.894493   0.000000
    10  H    3.352534   2.542318   4.859079   5.036143   0.000000
    11  H    3.788901   4.352632   2.843226   4.365611   2.490820
                   11
    11  H    0.000000
 Stoichiometry    C6H4Cl(2)
 Framework group  CS[SG(C6H4Cl)]
 Deg. of freedom    19
 Full point group                 CS      NOp   2
 Largest Abelian subgroup         CS      NOp   2
 Largest concise Abelian subgroup C1      NOp   1
                         Standard orientation:                         
 ---------------------------------------------------------------------
 Center     Atomic      Atomic             Coordinates (Angstroms)
 Number     Number       Type             X           Y           Z
 ---------------------------------------------------------------------
      1          6           0       -0.281532   -2.315195   -0.000000
      2          6           0        0.998350   -1.726656   -0.000000
      3          6           0        1.132628   -0.331786    0.000000
      4          6           0        0.000000    0.503814    0.000000
      5          6           0       -1.298211   -0.054739   -0.000000
      6          6           0       -1.323876   -1.424567   -0.000000
      7          1           0       -0.425934   -3.401754   -0.000000
      8         17           0        0.190254    2.187177    0.000000
      9          1           0       -2.204927    0.562000   -0.000000
     10          1           0        1.894580   -2.363199   -0.000000
     11          1           0        2.137813    0.115717    0.000000
 ---------------------------------------------------------------------
 Rotational constants (GHZ):           6.0953934           1.6069078           1.2716635

 **********************************************************************

            Population analysis using the SCF Density.

 **********************************************************************

 Orbital symmetries:
 Alpha Orbitals:
       Occupied  (A') (A') (A') (A') (A') (A') (A') (A') (A') (A')
                 (A") (A') (A') (A") (A') (A') (A") (A")
       Virtual   (A") (A") (A') (A") (A') (A') (A') (A') (A') (A')
                 (A') (A') (A') (A')
 Beta  Orbitals:
       Occupied  (A') (A') (A') (A') (A') (A') (A') (A') (A') (A')
                 (A") (A') (A') (A") (A') (A") (A")
       Virtual   (A") (A') (A") (A') (A") (A') (A') (A') (A') (A')
                 (A') (A') (A') (A') (A')
 The electronic state is 2-A'.
 Alpha  occ. eigenvalues --   -1.46020  -1.38408  -1.16884  -1.14441  -0.87354
 Alpha  occ. eigenvalues --   -0.84848  -0.66412  -0.61294  -0.59949  -0.55150
 Alpha  occ. eigenvalues --   -0.53861  -0.50590  -0.47538  -0.46806  -0.44681
 Alpha  occ. eigenvalues --   -0.38587  -0.38256  -0.36194
 Alpha virt. eigenvalues --    0.00528   0.01154   0.04069   0.09040   0.12988
 Alpha virt. eigenvalues --    0.13609   0.13871   0.14550   0.16020   0.16681
 Alpha virt. eigenvalues --    0.17905   0.18659   0.19209   0.19940
  Beta  occ. eigenvalues --   -1.45272  -1.38096  -1.16759  -1.13306  -0.86943
  Beta  occ. eigenvalues --   -0.82479  -0.65967  -0.60099  -0.59395  -0.54772
  Beta  occ. eigenvalues --   -0.53121  -0.49445  -0.47164  -0.46041  -0.44242
  Beta  occ. eigenvalues --   -0.37878  -0.36607
  Beta virt. eigenvalues --    0.00335   0.00507   0.02494   0.05600   0.09731
  Beta virt. eigenvalues --    0.12871   0.13523   0.14250   0.14869   0.16294
  Beta virt. eigenvalues --    0.16914   0.18138   0.18566   0.20122   0.21137
          Condensed to atoms (all electrons):
               1          2          3          4          5          6
     1  C    4.121160   0.000000   0.000000   0.000000   0.000000   0.000000
     2  C    0.000000   4.116399   0.000000   0.000000   0.000000   0.000000
     3  C    0.000000   0.000000   4.138169   0.000000   0.000000   0.000000
     4  C    0.000000   0.000000   0.000000   4.061525   0.000000   0.000000
     5  C    0.000000   0.000000   0.000000   0.000000   4.114563   0.000000
     6  C    0.000000   0.000000   0.000000   0.000000   0.000000   4.066201
     7  H    0.000000   0.000000   0.000000   0.000000   0.000000   0.000000
     8  Cl   0.000000   0.000000   0.000000   0.000000   0.000000   0.000000
     9  H    0.000000   0.000000   0.000000   0.000000   0.000000   0.000000
    10  H    0.000000   0.000000   0.000000   0.000000   0.000000   0.000000
    11  H    0.000000   0.000000   0.000000   0.000000   0.000000   0.000000
               7          8          9         10         11
     1  C    0.000000   0.000000   0.000000   0.000000   0.000000
     2  C    0.000000   0.000000   0.000000   0.000000   0.000000
     3  C    0.000000   0.000000   0.000000   0.000000   0.000000
     4  C    0.000000   0.000000   0.000000   0.000000   0.000000
     5  C    0.000000   0.000000   0.000000   0.000000   0.000000
     6  C    0.000000   0.000000   0.000000   0.000000   0.000000
     7  H    0.840948   0.000000   0.000000   0.000000   0.000000
     8  Cl   0.000000   7.002833   0.000000   0.000000   0.000000
     9  H    0.000000   0.000000   0.831256   0.000000   0.000000
    10  H    0.000000   0.000000   0.000000   0.856507   0.000000
    11  H    0.000000   0.000000   0.000000   0.000000   0.850439
          Atomic-Atomic Spin Densities.
               1          2          3          4          5          6
     1  C   -0.469977   0.000000   0.000000   0.000000   0.000000   0.000000
     2  C    0.000000   0.474252   0.000000   0.000000   0.000000   0.000000
     3  C    0.000000   0.000000  -0.445432   0.000000   0.000000   0.000000
     4  C    0.000000   0.000000   0.000000   0.473659   0.000000   0.000000
     5  C    0.000000   0.000000   0.000000   0.000000  -0.476891   0.000000
     6  C    0.000000   0.000000   0.000000   0.000000   0.000000   1.359545
     7  H    0.000000   0.000000   0.000000   0.000000   0.000000   0.000000
     8  Cl   0.000000   0.000000   0.000000   0.000000   0.000000   0.000000
     9  H    0.000000   0.000000   0.000000   0.000000   0.000000   0.000000
    10  H    0.000000   0.000000   0.000000   0.000000   0.000000   0.000000
    11  H    0.000000   0.000000   0.000000   0.000000   0.000000   0.000000
               7          8          9         10         11
     1  C    0.000000   0.000000   0.000000   0.000000   0.000000
     2  C    0.000000   0.000000   0.000000   0.000000   0.000000
     3  C    0.000000   0.000000   0.000000   0.000000   0.000000
     4  C    0.000000   0.000000   0.000000   0.000000   0.000000
     5  C    0.000000   0.000000   0.000000   0.000000   0.000000
     6  C    0.000000   0.000000   0.000000   0.000000   0.000000
     7  H    0.031301   0.000000   0.000000   0.000000   0.000000
     8  Cl   0.000000   0.012799   0.000000   0.000000   0.000000
     9  H    0.000000   0.000000   0.032059   0.000000   0.000000
    10  H    0.000000   0.000000   0.000000  -0.017869   0.000000
    11  H    0.000000   0.000000   0.000000   0.000000   0.026554
 Mulliken charges and spin densities:
               1          2
     1  C   -0.121160  -0.469977
     2  C   -0.116399   0.474252
     3  C   -0.138169  -0.445432
     4  C   -0.061525   0.473659
     5  C   -0.114563  -0.476891
     6  C   -0.066201   1.359545
     7  H    0.159052   0.031301
     8  Cl  -0.002833   0.012799
     9  H    0.168744   0.032059
    10  H    0.143493  -0.017869
    11  H    0.149561   0.026554
 Sum of Mulliken charges =   0.00000   1.00000
 Mulliken charges and spin densities with hydrogens summed into heavy atoms:
               1          2
     1  C    0.037892  -0.438676
     2  C    0.027095   0.456383
     3  C    0.011392  -0.418878
     4  C   -0.061525   0.473659
     5  C    0.054181  -0.444832
     6  C   -0.066201   1.359545
     8  Cl  -0.002833   0.012799
 Charge=              0.0000 electrons
 Dipole moment (field-independent basis, Debye):
    X=              0.8121    Y=             -0.7739    Z=              0.0000  Tot=              1.1218
 N-N= 1.532251955565D+02 E-N=-2.121814990705D+02  KE=-6.880994188144D+01
 Symmetry A'   KE=-5.400690707047D+01
 Symmetry A"   KE=-1.480303481097D+01
 Symmetry A'   SP= 1.000000000000D+00
 Symmetry A"   SP=-3.830269434957D-15
 1\1\GINC-SH02-01N46\FOpt\UAM1\ZDO\C6H4Cl1(2)\JLAPIER\09-Dec-2025\0\\# 
 opt am1 SCF=XQC\\Neutral Radical (removed 1) _3\\0,2\C,-3.2185360617,0
 .2751912391,0.\C,-2.0081549031,0.9959226664,0.\C,-0.7829443248,0.31581
 11473,0.\C,-0.7366469769,-1.0909327448,0.\C,-1.9327161104,-1.843762225
 8,0.\C,-3.0757268444,-1.0883712423,0.\H,-4.1955011279,0.7721857486,0.\
 Cl,0.7579560745,-1.8884730191,0.\H,-1.9386502773,-2.9403312517,0.\H,-2
 .0244802444,2.0950803754,0.\H,0.1555307964,0.8901993068,0.\\Version=ES
 64L-G16RevB.01\State=2-A'\HF=0.1051857\S2=1.198239\S2-1=0.\S2A=0.92100
 3\RMSD=2.367e-09\RMSF=8.595e-05\Dipole=-0.0697082,0.4358242,0.\PG=CS [
 SG(C6H4Cl1)]\\@


 A MUSTACHE HAIR ACROSS A CHIP IS LIKE A REDWOOD
 TREE FALLING THROUGH A HOUSING PROJECT.
 - AN IBM MANAGER IN EAST FISHKILL, NEW YORK
   AS QUOTED IN "FROM SANDS TO CIRCUITS", IBM INNOVATION JANUARY 1985.
 Job cpu time:       0 days  0 hours  0 minutes 12.4 seconds.
 Elapsed time:       0 days  0 hours  0 minutes 31.5 seconds.
 File lengths (MBytes):  RWF=     10 Int=      0 D2E=      0 Chk=      2 Scr=      1
 Normal termination of Gaussian 16 at Tue Dec  9 08:35:19 2025.
