 Entering Gaussian System, Link 0=g16
 Initial command:
 /share/software/user/restricted/gaussian/g16.B01/l1.exe "/home/users/jlapier/Chloroaromatics/Gau-12441.inp" -scrdir="/home/users/jlapier/Chloroaromatics/"
 Entering Link 1 = /share/software/user/restricted/gaussian/g16.B01/l1.exe PID=     12442.
  
 Copyright (c) 1988-2017, Gaussian, Inc.  All Rights Reserved.
  
 This is part of the Gaussian(R) 16 program.  It is based on
 the Gaussian(R) 09 system (copyright 2009, Gaussian, Inc.),
 the Gaussian(R) 03 system (copyright 2003, Gaussian, Inc.),
 the Gaussian(R) 98 system (copyright 1998, Gaussian, Inc.),
 the Gaussian(R) 94 system (copyright 1995, Gaussian, Inc.),
 the Gaussian 92(TM) system (copyright 1992, Gaussian, Inc.),
 the Gaussian 90(TM) system (copyright 1990, Gaussian, Inc.),
 the Gaussian 88(TM) system (copyright 1988, Gaussian, Inc.),
 the Gaussian 86(TM) system (copyright 1986, Carnegie Mellon
 University), and the Gaussian 82(TM) system (copyright 1983,
 Carnegie Mellon University). Gaussian is a federally registered
 trademark of Gaussian, Inc.
  
 This software contains proprietary and confidential information,
 including trade secrets, belonging to Gaussian, Inc.
  
 This software is provided under written license and may be
 used, copied, transmitted, or stored only in accord with that
 written license.
  
 The following legend is applicable only to US Government
 contracts under FAR:
  
                    RESTRICTED RIGHTS LEGEND
  
 Use, reproduction and disclosure by the US Government is
 subject to restrictions as set forth in subparagraphs (a)
 and (c) of the Commercial Computer Software - Restricted
 Rights clause in FAR 52.227-19.
  
 Gaussian, Inc.
 340 Quinnipiac St., Bldg. 40, Wallingford CT 06492
  
  
 ---------------------------------------------------------------
 Warning -- This program may not be used in any manner that
 competes with the business of Gaussian, Inc. or will provide
 assistance to any competitor of Gaussian, Inc.  The licensee
 of this program is prohibited from giving any competitor of
 Gaussian, Inc. access to this program.  By using this program,
 the user acknowledges that Gaussian, Inc. is engaged in the
 business of creating and licensing software in the field of
 computational chemistry and represents and warrants to the
 licensee that it is not a competitor of Gaussian, Inc. and that
 it will not use this program in any manner prohibited above.
 ---------------------------------------------------------------
  

 Cite this work as:
 Gaussian 16, Revision B.01,
 M. J. Frisch, G. W. Trucks, H. B. Schlegel, G. E. Scuseria, 
 M. A. Robb, J. R. Cheeseman, G. Scalmani, V. Barone, 
 G. A. Petersson, H. Nakatsuji, X. Li, M. Caricato, A. V. Marenich, 
 J. Bloino, B. G. Janesko, R. Gomperts, B. Mennucci, H. P. Hratchian, 
 J. V. Ortiz, A. F. Izmaylov, J. L. Sonnenberg, D. Williams-Young, 
 F. Ding, F. Lipparini, F. Egidi, J. Goings, B. Peng, A. Petrone, 
 T. Henderson, D. Ranasinghe, V. G. Zakrzewski, J. Gao, N. Rega, 
 G. Zheng, W. Liang, M. Hada, M. Ehara, K. Toyota, R. Fukuda, 
 J. Hasegawa, M. Ishida, T. Nakajima, Y. Honda, O. Kitao, H. Nakai, 
 T. Vreven, K. Throssell, J. A. Montgomery, Jr., J. E. Peralta, 
 F. Ogliaro, M. J. Bearpark, J. J. Heyd, E. N. Brothers, K. N. Kudin, 
 V. N. Staroverov, T. A. Keith, R. Kobayashi, J. Normand, 
 K. Raghavachari, A. P. Rendell, J. C. Burant, S. S. Iyengar, 
 J. Tomasi, M. Cossi, J. M. Millam, M. Klene, C. Adamo, R. Cammi, 
 J. W. Ochterski, R. L. Martin, K. Morokuma, O. Farkas, 
 J. B. Foresman, and D. J. Fox, Gaussian, Inc., Wallingford CT, 2016.
 
 ******************************************
 Gaussian 16:  ES64L-G16RevB.01 20-Dec-2017
                 8-Dec-2025 
 ******************************************
 %mem=2GB
 %nprocshare=1
 Will use up to    1 processors via shared memory.
 %chk=geometry_chks/_4ClBzAnionIntermediate.chk
 ---------------------------
 # opt am1 SCF(maxcyc=10000)
 ---------------------------
 1/18=20,19=15,26=1,38=1/1,3;
 2/9=110,12=2,17=6,18=5,40=1/2;
 3/5=2,25=1,41=700000,71=1/1,2,3;
 4/35=1/1;
 5/5=2,7=10000,35=1,38=5/2;
 6/7=2,8=2,9=2,10=2,28=1/1;
 7//1,2,3,16;
 1/18=20,19=15,26=1/3(2);
 2/9=110/2;
 99//99;
 2/9=110/2;
 3/5=2,25=1,41=700000,71=1,135=20/1,2,3;
 4/5=5,16=3,35=1/1;
 5/5=2,7=10000,35=1,38=5/2;
 7//1,2,3,16;
 1/18=20,19=15,26=1/3(-5);
 2/9=110/2;
 6/7=2,8=2,9=2,10=2,19=2,28=1/1;
 99/9=1/99;
 ---------------------------------
 Anion Intermediate (removed 1) _4
 ---------------------------------
 Symbolic Z-matrix:
 Charge = -1 Multiplicity = 1
 C                    -3.20928   0.19943   0. 
 C                    -2.0115    0.93555   0. 
 C                    -0.77511   0.2663    0. 
 C                    -0.7365   -1.13907   0. 
 C                    -1.93429  -1.87519   0. 
 C                    -3.17067  -1.20594   0. 
 H                    -4.76193   1.03987   0. 
 H                     0.81614  -1.97951   0. 
 Cl                   -1.8858   -3.64003   0. 
 H                    -2.05998   2.7004    0. 
 H                     0.72905   1.19071   0. 
 
 Add virtual bond connecting atoms H8         and C4         Dist= 3.34D+00.
 Add virtual bond connecting atoms H11        and C3         Dist= 3.34D+00.
 Add virtual bond connecting atoms H10        and C2         Dist= 3.34D+00.
 Add virtual bond connecting atoms H7         and C1         Dist= 3.34D+00.

 GradGradGradGradGradGradGradGradGradGradGradGradGradGradGradGradGradGrad
 Berny optimization.
 Initialization pass.
                           ----------------------------
                           !    Initial Parameters    !
                           ! (Angstroms and Degrees)  !
 --------------------------                            --------------------------
 ! Name  Definition              Value          Derivative Info.                !
 --------------------------------------------------------------------------------
 ! R1    R(1,2)                  1.4059         estimate D2E/DX2                !
 ! R2    R(1,6)                  1.4059         estimate D2E/DX2                !
 ! R3    R(1,7)                  1.7655         estimate D2E/DX2                !
 ! R4    R(2,3)                  1.4059         estimate D2E/DX2                !
 ! R5    R(2,10)                 1.7655         estimate D2E/DX2                !
 ! R6    R(3,4)                  1.4059         estimate D2E/DX2                !
 ! R7    R(3,11)                 1.7655         estimate D2E/DX2                !
 ! R8    R(4,5)                  1.4059         estimate D2E/DX2                !
 ! R9    R(4,8)                  1.7655         estimate D2E/DX2                !
 ! R10   R(5,6)                  1.4059         estimate D2E/DX2                !
 ! R11   R(5,9)                  1.7655         estimate D2E/DX2                !
 ! A1    A(2,1,6)              119.9999         estimate D2E/DX2                !
 ! A2    A(2,1,7)              119.9999         estimate D2E/DX2                !
 ! A3    A(6,1,7)              120.0001         estimate D2E/DX2                !
 ! A4    A(1,2,3)              120.0            estimate D2E/DX2                !
 ! A5    A(1,2,10)             120.0001         estimate D2E/DX2                !
 ! A6    A(3,2,10)             119.9999         estimate D2E/DX2                !
 ! A7    A(2,3,4)              120.0001         estimate D2E/DX2                !
 ! A8    A(2,3,11)             120.0            estimate D2E/DX2                !
 ! A9    A(4,3,11)             119.9999         estimate D2E/DX2                !
 ! A10   A(3,4,5)              119.9997         estimate D2E/DX2                !
 ! A11   A(3,4,8)              120.0003         estimate D2E/DX2                !
 ! A12   A(5,4,8)              120.0            estimate D2E/DX2                !
 ! A13   A(4,5,6)              120.0            estimate D2E/DX2                !
 ! A14   A(4,5,9)              119.9996         estimate D2E/DX2                !
 ! A15   A(6,5,9)              120.0004         estimate D2E/DX2                !
 ! A16   A(1,6,5)              120.0003         estimate D2E/DX2                !
 ! D1    D(6,1,2,3)              0.0            estimate D2E/DX2                !
 ! D2    D(6,1,2,10)           180.0            estimate D2E/DX2                !
 ! D3    D(7,1,2,3)            180.0            estimate D2E/DX2                !
 ! D4    D(7,1,2,10)             0.0            estimate D2E/DX2                !
 ! D5    D(2,1,6,5)              0.0            estimate D2E/DX2                !
 ! D6    D(7,1,6,5)            180.0            estimate D2E/DX2                !
 ! D7    D(1,2,3,4)              0.0            estimate D2E/DX2                !
 ! D8    D(1,2,3,11)           180.0            estimate D2E/DX2                !
 ! D9    D(10,2,3,4)           180.0            estimate D2E/DX2                !
 ! D10   D(10,2,3,11)            0.0            estimate D2E/DX2                !
 ! D11   D(2,3,4,5)              0.0            estimate D2E/DX2                !
 ! D12   D(2,3,4,8)            180.0            estimate D2E/DX2                !
 ! D13   D(11,3,4,5)           180.0            estimate D2E/DX2                !
 ! D14   D(11,3,4,8)             0.0            estimate D2E/DX2                !
 ! D15   D(3,4,5,6)              0.0            estimate D2E/DX2                !
 ! D16   D(3,4,5,9)            180.0            estimate D2E/DX2                !
 ! D17   D(8,4,5,6)            180.0            estimate D2E/DX2                !
 ! D18   D(8,4,5,9)              0.0            estimate D2E/DX2                !
 ! D19   D(4,5,6,1)              0.0            estimate D2E/DX2                !
 ! D20   D(9,5,6,1)            180.0            estimate D2E/DX2                !
 --------------------------------------------------------------------------------
 Trust Radius=3.00D-01 FncErr=1.00D-07 GrdErr=1.00D-07 EigMax=2.50D+02 EigMin=1.00D-04
 Number of steps in this run=     57 maximum allowed number of steps=    100.
 GradGradGradGradGradGradGradGradGradGradGradGradGradGradGradGradGradGrad

                          Input orientation:                          
 ---------------------------------------------------------------------
 Center     Atomic      Atomic             Coordinates (Angstroms)
 Number     Number       Type             X           Y           Z
 ---------------------------------------------------------------------
      1          6           0       -3.209280    0.199430    0.000000
      2          6           0       -2.011500    0.935550    0.000000
      3          6           0       -0.775110    0.266300    0.000000
      4          6           0       -0.736500   -1.139070    0.000000
      5          6           0       -1.934290   -1.875190    0.000000
      6          6           0       -3.170670   -1.205940    0.000000
      7          1           0       -4.761930    1.039870    0.000000
      8          1           0        0.816140   -1.979510    0.000000
      9         17           0       -1.885800   -3.640030    0.000000
     10          1           0       -2.059980    2.700400    0.000000
     11          1           0        0.729050    1.190710    0.000000
 ---------------------------------------------------------------------
                    Distance matrix (angstroms):
                    1          2          3          4          5
     1  C    0.000000
     2  C    1.405898   0.000000
     3  C    2.435088   1.405900   0.000000
     4  C    2.811801   2.435092   1.405900   0.000000
     5  C    2.435087   2.811800   2.435093   1.405907   0.000000
     6  C    1.405900   2.435088   2.811796   2.435088   1.405892
     7  H    1.765520   2.752408   4.061175   4.577321   4.061173
     8  H    4.577312   4.061173   2.752406   1.765511   2.752408
     9  Cl   4.061164   4.577306   4.061163   2.752397   1.765506
    10  H    2.752406   1.765516   2.752405   4.061173   4.577316
    11  H    4.061167   2.752403   1.765512   2.752401   4.061173
                    6          7          8          9         10
     6  C    0.000000
     7  H    2.752412   0.000000
     8  H    4.061165   6.342832   0.000000
     9  Cl   2.752396   5.493049   3.171404   0.000000
    10  H    4.061173   3.171418   5.493052   6.342822   0.000000
    11  H    4.577308   5.493051   3.171416   5.493040   3.171412
                   11
    11  H    0.000000
 Stoichiometry    C6H4Cl(1-)
 Framework group  CS[SG(C6H4Cl)]
 Deg. of freedom    19
 Full point group                 CS      NOp   2
 Largest Abelian subgroup         CS      NOp   2
 Largest concise Abelian subgroup C1      NOp   1
                         Standard orientation:                         
 ---------------------------------------------------------------------
 Center     Atomic      Atomic             Coordinates (Angstroms)
 Number     Number       Type             X           Y           Z
 ---------------------------------------------------------------------
      1          6           0        0.722768   -1.878828   -0.000000
      2          6           0        1.940312   -1.175880   -0.000000
      3          6           0        1.940312    0.230020   -0.000000
      4          6           0        0.722768    0.932973   -0.000000
      5          6           0       -0.494781    0.230016    0.000000
      6          6           0       -0.494776   -1.175876    0.000000
      7          1           0        0.722769   -3.644348   -0.000000
      8          1           0        0.722763    2.698484    0.000000
      9         17           0       -2.023750    1.112775    0.000000
     10          1           0        3.469295   -2.058635   -0.000000
     11          1           0        3.469290    1.112776   -0.000000
 ---------------------------------------------------------------------
 Rotational constants (GHZ):           5.3831463           1.4899589           1.1669640
 Standard basis: VSTO-6G (5D, 7F)
 There are    25 symmetry adapted cartesian basis functions of A'  symmetry.
 There are     7 symmetry adapted cartesian basis functions of A"  symmetry.
 There are    25 symmetry adapted basis functions of A'  symmetry.
 There are     7 symmetry adapted basis functions of A"  symmetry.
    32 basis functions,   192 primitive gaussians,    32 cartesian basis functions
    18 alpha electrons       18 beta electrons
       nuclear repulsion energy       147.2899066727 Hartrees.
 Integral buffers will be    131072 words long.
 Regular integral format.
 Two-electron integral symmetry is turned off.
 Do NDO integrals.
 One-electron integrals computed using PRISM.
 NBasis=    32 RedAO= T EigKep=  1.00D+00  NBF=    25     7
 NBsUse=    32 1.00D-06 EigRej= -1.00D+00 NBFU=    25     7
 Simple Huckel Guess.
 Initial guess orbital symmetries:
       Occupied  (A') (A') (A') (A') (A') (A') (A') (A') (A") (A')
                 (A') (A') (A") (A') (A") (A') (A") (A')
       Virtual   (A') (A") (A') (A") (A') (A') (A") (A') (A') (A')
                 (A') (A') (A') (A')
 The electronic state of the initial guess is 1-A'.
 Keep J ints in memory in canonical form, NReq=862079.
 Overlap will be assumed to be unity.
 Requested convergence on RMS density matrix=1.00D-08 within**** cycles.
 Requested convergence on MAX density matrix=1.00D-06.
 Requested convergence on             energy=1.00D-06.
 No special actions if energy rises.
 Fock symm off for IB=2 I1=    1 I=   26 J=   24 Cut=1.00D-07 Err=1.20D-02
 Fock matrix is not symmetric: symmetry in diagonalization turned off.
 SCF Done:  E(RAM1) =  0.551700487839     A.U. after   16 cycles
            NFock= 15  Conv=0.41D-08     -V/T= 1.0080

 **********************************************************************

            Population analysis using the SCF Density.

 **********************************************************************

 Orbital symmetries:
       Occupied  (A') (A') (A') (A') (A') (A') (A') (A') (A") (A')
                 (A") (A') (A') (A') (A') (A") (A") (A')
       Virtual   (A') (A') (A') (A") (A') (A") (A') (A") (A') (A')
                 (A') (A') (A') (A')
 The electronic state is 1-A'.
 Alpha  occ. eigenvalues --   -1.21631  -1.17679  -0.91397  -0.88917  -0.61641
 Alpha  occ. eigenvalues --   -0.59580  -0.41005  -0.38681  -0.33600  -0.31339
 Alpha  occ. eigenvalues --   -0.28166  -0.27317  -0.26408  -0.23944  -0.20466
 Alpha  occ. eigenvalues --   -0.17747  -0.15807  -0.10399
 Alpha virt. eigenvalues --    0.14883   0.16787   0.17528   0.18800   0.20188
 Alpha virt. eigenvalues --    0.20600   0.23011   0.29478   0.34152   0.34578
 Alpha virt. eigenvalues --    0.36578   0.37108   0.38901   0.41561
          Condensed to atoms (all electrons):
               1          2          3          4          5          6
     1  C    4.121643   0.000000   0.000000   0.000000   0.000000   0.000000
     2  C    0.000000   4.103618   0.000000   0.000000   0.000000   0.000000
     3  C    0.000000   0.000000   4.187613   0.000000   0.000000   0.000000
     4  C    0.000000   0.000000   0.000000   4.110513   0.000000   0.000000
     5  C    0.000000   0.000000   0.000000   0.000000   4.062437   0.000000
     6  C    0.000000   0.000000   0.000000   0.000000   0.000000   4.360762
     7  H    0.000000   0.000000   0.000000   0.000000   0.000000   0.000000
     8  H    0.000000   0.000000   0.000000   0.000000   0.000000   0.000000
     9  Cl   0.000000   0.000000   0.000000   0.000000   0.000000   0.000000
    10  H    0.000000   0.000000   0.000000   0.000000   0.000000   0.000000
    11  H    0.000000   0.000000   0.000000   0.000000   0.000000   0.000000
               7          8          9         10         11
     1  C    0.000000   0.000000   0.000000   0.000000   0.000000
     2  C    0.000000   0.000000   0.000000   0.000000   0.000000
     3  C    0.000000   0.000000   0.000000   0.000000   0.000000
     4  C    0.000000   0.000000   0.000000   0.000000   0.000000
     5  C    0.000000   0.000000   0.000000   0.000000   0.000000
     6  C    0.000000   0.000000   0.000000   0.000000   0.000000
     7  H    0.978630   0.000000   0.000000   0.000000   0.000000
     8  H    0.000000   0.971213   0.000000   0.000000   0.000000
     9  Cl   0.000000   0.000000   7.142222   0.000000   0.000000
    10  H    0.000000   0.000000   0.000000   0.997668   0.000000
    11  H    0.000000   0.000000   0.000000   0.000000   0.963681
 Mulliken charges:
               1
     1  C   -0.121643
     2  C   -0.103618
     3  C   -0.187613
     4  C   -0.110513
     5  C   -0.062437
     6  C   -0.360762
     7  H    0.021370
     8  H    0.028787
     9  Cl  -0.142222
    10  H    0.002332
    11  H    0.036319
 Sum of Mulliken charges =  -1.00000
 Mulliken charges with hydrogens summed into heavy atoms:
               1
     1  C   -0.100273
     2  C   -0.101285
     3  C   -0.151294
     4  C   -0.081726
     5  C   -0.062437
     6  C   -0.360762
     9  Cl  -0.142222
 Charge=             -1.0000 electrons
 Dipole moment (field-independent basis, Debye):
    X=              1.0954    Y=              3.3228    Z=             -0.0000  Tot=              3.4987
 N-N= 1.472899066727D+02 E-N=-2.072406410919D+02  KE=-6.912129807451D+01
 Symmetry A'   KE=-5.428425122371D+01
 Symmetry A"   KE=-1.483704685080D+01
 Calling FoFJK, ICntrl=      2127 FMM=F ISym2X=1 I1Cent= 0 IOpClX= 0 NMat=1 NMatS=1 NMatT=0.
 ***** Axes restored to original set *****
 -------------------------------------------------------------------
 Center     Atomic                   Forces (Hartrees/Bohr)
 Number     Number              X              Y              Z
 -------------------------------------------------------------------
      1        6          -0.035898025    0.026376722   -0.000000000
      2        6          -0.008323260    0.070731663    0.000000000
      3        6           0.058953058    0.032192084   -0.000000000
      4        6           0.073252974   -0.018288460    0.000000000
      5        6           0.000005936    0.014106345    0.000000000
      6        6           0.003757058    0.023052762   -0.000000000
      7        1           0.101111073   -0.054347802    0.000000000
      8        1          -0.099493891    0.054845351    0.000000000
      9       17           0.001182701    0.025151796   -0.000000000
     10        1           0.004620621   -0.112704419    0.000000000
     11        1          -0.099168246   -0.061116043    0.000000000
 -------------------------------------------------------------------
 Cartesian Forces:  Max     0.112704419 RMS     0.046392521

 GradGradGradGradGradGradGradGradGradGradGradGradGradGradGradGradGradGrad
 Berny optimization.
 FormGI is forming the generalized inverse of G from B-inverse, IUseBI=4.
 Internal  Forces:  Max     0.116488156 RMS     0.037330191
 Search for a local minimum.
 Step number   1 out of a maximum of   57
 All quantities printed in internal units (Hartrees-Bohrs-Radians)
 Mixed Optimization -- RFO/linear search
 Second derivative matrix not updated -- first step.
 ITU=  0
     Eigenvalues ---    0.02011   0.02011   0.02011   0.02011   0.02011
     Eigenvalues ---    0.02011   0.02011   0.02011   0.06524   0.06524
     Eigenvalues ---    0.06524   0.06524   0.16000   0.16000   0.16000
     Eigenvalues ---    0.16000   0.22000   0.22408   0.24406   0.25000
     Eigenvalues ---    0.29034   0.40824   0.41342   0.44656   0.44657
     Eigenvalues ---    0.44657   0.44657
 RFO step:  Lambda=-2.10697552D-01 EMin= 2.01065650D-02
 Linear search not attempted -- first point.
 Maximum step size (   0.300) exceeded in Quadratic search.
    -- Step size scaled by   0.353
 Iteration  1 RMS(Cart)=  0.05094668 RMS(Int)=  0.00005750
 Iteration  2 RMS(Cart)=  0.00010437 RMS(Int)=  0.00000864
 Iteration  3 RMS(Cart)=  0.00000001 RMS(Int)=  0.00000864
 ClnCor:  largest displacement from symmetrization is 1.69D-09 for atom    11.
 Variable       Old X    -DE/DX   Delta X   Delta X   Delta X     New X
                                 (Linear)    (Quad)   (Total)
    R1        2.65676  -0.04894   0.00000  -0.02662  -0.02660   2.63016
    R2        2.65677  -0.04509   0.00000  -0.02423  -0.02422   2.63255
    R3        3.33635  -0.11479   0.00000  -0.14691  -0.14691   3.18944
    R4        2.65677  -0.05033   0.00000  -0.02736  -0.02736   2.62941
    R5        3.33634  -0.11279   0.00000  -0.14435  -0.14435   3.19199
    R6        2.65677  -0.05433   0.00000  -0.02919  -0.02920   2.62757
    R7        3.33633  -0.11649   0.00000  -0.14909  -0.14909   3.18725
    R8        2.65678  -0.02882   0.00000  -0.01516  -0.01517   2.64160
    R9        3.33633  -0.11361   0.00000  -0.14540  -0.14540   3.19094
   R10        2.65675  -0.02939   0.00000  -0.01547  -0.01548   2.64127
   R11        3.33632  -0.02511   0.00000  -0.01770  -0.01770   3.31862
    A1        2.09439   0.01648   0.00000   0.01285   0.01287   2.10726
    A2        2.09439  -0.00880   0.00000  -0.00696  -0.00697   2.08742
    A3        2.09440  -0.00768   0.00000  -0.00589  -0.00590   2.08850
    A4        2.09439  -0.00013   0.00000  -0.00127  -0.00125   2.09315
    A5        2.09440   0.00261   0.00000   0.00306   0.00305   2.09744
    A6        2.09439  -0.00248   0.00000  -0.00179  -0.00180   2.09260
    A7        2.09440  -0.00105   0.00000  -0.00151  -0.00152   2.09288
    A8        2.09440   0.00077   0.00000   0.00099   0.00099   2.09539
    A9        2.09439   0.00028   0.00000   0.00053   0.00053   2.09492
   A10        2.09439   0.00134   0.00000   0.00145   0.00143   2.09582
   A11        2.09440  -0.00212   0.00000  -0.00211  -0.00210   2.09230
   A12        2.09440   0.00078   0.00000   0.00066   0.00067   2.09507
   A13        2.09439   0.00373   0.00000   0.00364   0.00362   2.09802
   A14        2.09439  -0.00499   0.00000  -0.00422  -0.00421   2.09018
   A15        2.09440   0.00126   0.00000   0.00057   0.00058   2.09499
   A16        2.09440  -0.02038   0.00000  -0.01516  -0.01515   2.07925
    D1        0.00000  -0.00000   0.00000  -0.00000   0.00000   0.00000
    D2        3.14159   0.00000   0.00000   0.00000   0.00000   3.14159
    D3        3.14159  -0.00000   0.00000  -0.00000   0.00000   3.14159
    D4       -0.00000  -0.00000   0.00000  -0.00000   0.00000   0.00000
    D5       -0.00000   0.00000   0.00000   0.00000   0.00000   0.00000
    D6        3.14159   0.00000   0.00000   0.00000   0.00000   3.14159
    D7       -0.00000  -0.00000   0.00000  -0.00000   0.00000   0.00000
    D8        3.14159   0.00000   0.00000   0.00000   0.00000   3.14159
    D9        3.14159  -0.00000   0.00000  -0.00000   0.00000   3.14159
   D10        0.00000   0.00000   0.00000   0.00000  -0.00000   0.00000
   D11        0.00000   0.00000   0.00000   0.00000  -0.00000   0.00000
   D12        3.14159   0.00000   0.00000   0.00000   0.00000   3.14159
   D13        3.14159  -0.00000   0.00000  -0.00000   0.00000   3.14159
   D14       -0.00000   0.00000   0.00000   0.00000   0.00000   0.00000
   D15       -0.00000  -0.00000   0.00000  -0.00000   0.00000   0.00000
   D16        3.14159   0.00000   0.00000   0.00000   0.00000   3.14159
   D17        3.14159  -0.00000   0.00000  -0.00000   0.00000   3.14159
   D18        0.00000  -0.00000   0.00000  -0.00000   0.00000   0.00000
   D19        0.00000  -0.00000   0.00000  -0.00000   0.00000   0.00000
   D20        3.14159  -0.00000   0.00000  -0.00000   0.00000   3.14159
         Item               Value     Threshold  Converged?
 Maximum Force            0.116488     0.000450     NO 
 RMS     Force            0.037330     0.000300     NO 
 Maximum Displacement     0.177570     0.001800     NO 
 RMS     Displacement     0.050934     0.001200     NO 
 Predicted change in Energy=-7.075106D-02
 GradGradGradGradGradGradGradGradGradGradGradGradGradGradGradGradGradGrad

                          Input orientation:                          
 ---------------------------------------------------------------------
 Center     Atomic      Atomic             Coordinates (Angstroms)
 Number     Number       Type             X           Y           Z
 ---------------------------------------------------------------------
      1          6           0       -3.187724    0.200532   -0.000000
      2          6           0       -2.003371    0.931609   -0.000000
      3          6           0       -0.779239    0.270125   -0.000000
      4          6           0       -0.742170   -1.119830   -0.000000
      5          6           0       -1.932663   -1.852486    0.000000
      6          6           0       -3.164654   -1.192361   -0.000000
      7          1           0       -4.667964    1.011384   -0.000000
      8          1           0        0.743844   -1.921725    0.000000
      9         17           0       -1.875953   -3.607711    0.000000
     10          1           0       -2.047926    2.620150   -0.000000
     11          1           0        0.657950    1.152832   -0.000000
 ---------------------------------------------------------------------
                    Distance matrix (angstroms):
                    1          2          3          4          5
     1  C    0.000000
     2  C    1.391821   0.000000
     3  C    2.409491   1.391425   0.000000
     4  C    2.779225   2.408118   1.390449   0.000000
     5  C    2.406255   2.784993   2.415754   1.397876   0.000000
     6  C    1.393084   2.420708   2.798048   2.423570   1.397701
     7  H    1.687777   2.665786   3.958743   4.466983   3.960255
     8  H    4.467796   3.960897   2.669080   1.688571   2.677402
     9  Cl   4.027835   4.541108   4.029937   2.734047   1.756140
    10  H    2.674638   1.689128   2.670615   3.961370   4.474121
    11  H    3.961829   2.670500   1.686619   2.669332   3.967772
                    6          7          8          9         10
     6  C    0.000000
     7  H    2.667664   0.000000
     8  H    3.975969   6.155550   0.000000
     9  Cl   2.737639   5.397347   3.115427   0.000000
    10  H    3.972697   3.074529   5.331285   6.230234   0.000000
    11  H    4.484666   5.327792   3.075757   5.392906   3.078114
                   11
    11  H    0.000000
 Stoichiometry    C6H4Cl(1-)
 Framework group  CS[SG(C6H4Cl)]
 Deg. of freedom    19
 Full point group                 CS      NOp   2
 Largest Abelian subgroup         CS      NOp   2
 Largest concise Abelian subgroup C1      NOp   1
                         Standard orientation:                         
 ---------------------------------------------------------------------
 Center     Atomic      Atomic             Coordinates (Angstroms)
 Number     Number       Type             X           Y           Z
 ---------------------------------------------------------------------
      1          6           0       -1.392748   -1.425017    0.000000
      2          6           0       -0.261257   -2.235506    0.000000
      3          6           0        1.005313   -1.659431    0.000000
      4          6           0        1.137509   -0.275279    0.000000
      5          6           0        0.000000    0.537206    0.000000
      6          6           0       -1.274317   -0.036976    0.000000
      7          1           0       -2.925055   -2.132565    0.000000
      8          1           0        2.674963    0.422937    0.000000
      9         17           0        0.176812    2.284423    0.000000
     10          1           0       -0.421374   -3.917028    0.000000
     11          1           0        2.378659   -2.638514    0.000000
 ---------------------------------------------------------------------
 Rotational constants (GHZ):           5.5242106           1.5173519           1.1903852
 Standard basis: VSTO-6G (5D, 7F)
 There are    25 symmetry adapted cartesian basis functions of A'  symmetry.
 There are     7 symmetry adapted cartesian basis functions of A"  symmetry.
 There are    25 symmetry adapted basis functions of A'  symmetry.
 There are     7 symmetry adapted basis functions of A"  symmetry.
    32 basis functions,   192 primitive gaussians,    32 cartesian basis functions
    18 alpha electrons       18 beta electrons
       nuclear repulsion energy       148.3400591239 Hartrees.
 Integral buffers will be    131072 words long.
 Regular integral format.
 Two-electron integral symmetry is turned off.
 Do NDO integrals.
 One-electron integrals computed using PRISM.
 NBasis=    32 RedAO= T EigKep=  1.00D+00  NBF=    25     7
 NBsUse=    32 1.00D-06 EigRej= -1.00D+00 NBFU=    25     7
 Initial guess from the checkpoint file:  "geometry_chks/_4ClBzAnionIntermediate.chk"
 B after Tr=    -0.000000   -0.000000    0.000000
         Rot=    0.840812    0.000000    0.000000    0.541327 Ang=  65.55 deg.
 Initial guess orbital symmetries:
       Occupied  (A') (A') (A') (A') (A') (A') (A') (A') (A") (A')
                 (A") (A') (A') (A') (A') (A") (A") (A')
       Virtual   (A') (A') (A') (A") (A') (A") (A') (A") (A') (A')
                 (A') (A') (A') (A')
 Keep J ints in memory in canonical form, NReq=862079.
 Overlap will be assumed to be unity.
 Requested convergence on RMS density matrix=1.00D-08 within**** cycles.
 Requested convergence on MAX density matrix=1.00D-06.
 Requested convergence on             energy=1.00D-06.
 No special actions if energy rises.
 Fock symm off for IB=2 I1=    1 I=   26 J=   23 Cut=1.00D-07 Err=1.28D-03
 Fock matrix is not symmetric: symmetry in diagonalization turned off.
 SCF Done:  E(RAM1) =  0.477467756509     A.U. after   14 cycles
            NFock= 13  Conv=0.31D-08     -V/T= 1.0069
 Calling FoFJK, ICntrl=      2127 FMM=F ISym2X=1 I1Cent= 0 IOpClX= 0 NMat=1 NMatS=1 NMatT=0.
 ***** Axes restored to original set *****
 -------------------------------------------------------------------
 Center     Atomic                   Forces (Hartrees/Bohr)
 Number     Number              X              Y              Z
 -------------------------------------------------------------------
      1        6          -0.060769521    0.038704167   -0.000000000
      2        6          -0.009578546    0.094590075   -0.000000000
      3        6           0.080318602    0.045687318   -0.000000000
      4        6           0.089437641   -0.034995303   -0.000000000
      5        6          -0.000382398    0.004759487    0.000000000
      6        6          -0.002955849    0.012361235   -0.000000000
      7        1           0.103945075   -0.056519309    0.000000000
      8        1          -0.103235089    0.056610682    0.000000000
      9       17           0.001176468    0.018906279    0.000000000
     10        1           0.004513205   -0.116961709    0.000000000
     11        1          -0.102469587   -0.063142920    0.000000000
 -------------------------------------------------------------------
 Cartesian Forces:  Max     0.116961709 RMS     0.051810855

 GradGradGradGradGradGradGradGradGradGradGradGradGradGradGradGradGradGrad
 Berny optimization.
 Using GEDIIS/GDIIS optimizer.
 FormGI is forming the generalized inverse of G from B-inverse, IUseBI=4.
 Internal  Forces:  Max     0.120362010 RMS     0.035965317
 Search for a local minimum.
 Step number   2 out of a maximum of   57
 All quantities printed in internal units (Hartrees-Bohrs-Radians)
 Mixed Optimization -- RFO/linear search
 Update second derivatives using D2CorX and points    1    2
 DE= -7.42D-02 DEPred=-7.08D-02 R= 1.05D+00
 TightC=F SS=  1.41D+00  RLast= 3.00D-01 DXNew= 5.0454D-01 9.0000D-01
 Trust test= 1.05D+00 RLast= 3.00D-01 DXMaxT set to 5.05D-01
 ITU=  1  0
 Use linear search instead of GDIIS.
 Linear search step of   0.600 exceeds DXMaxT=   0.505 but not scaled.
 Quartic linear search produced a step of  2.00000.
 Iteration  1 RMS(Cart)=  0.07654043 RMS(Int)=  0.02712820
 Iteration  2 RMS(Cart)=  0.02610905 RMS(Int)=  0.00005304
 Iteration  3 RMS(Cart)=  0.00000714 RMS(Int)=  0.00005289
 Iteration  4 RMS(Cart)=  0.00000000 RMS(Int)=  0.00005289
 ClnCor:  largest displacement from symmetrization is 1.67D-15 for atom    11.
 Variable       Old X    -DE/DX   Delta X   Delta X   Delta X     New X
                                 (Linear)    (Quad)   (Total)
    R1        2.63016  -0.02932  -0.05321   0.00000  -0.05312   2.57704
    R2        2.63255  -0.02580  -0.04844   0.00000  -0.04838   2.58417
    R3        3.18944  -0.11832  -0.29383   0.00000  -0.29383   2.89561
    R4        2.62941  -0.02858  -0.05471   0.00000  -0.05468   2.57473
    R5        3.19199  -0.11704  -0.28870   0.00000  -0.28870   2.90329
    R6        2.62757  -0.03212  -0.05840   0.00000  -0.05845   2.56912
    R7        3.18725  -0.12036  -0.29817   0.00000  -0.29817   2.88908
    R8        2.64160  -0.01514  -0.03035   0.00000  -0.03044   2.61117
    R9        3.19094  -0.11774  -0.29079   0.00000  -0.29079   2.90014
   R10        2.64127  -0.01555  -0.03096   0.00000  -0.03099   2.61028
   R11        3.31862  -0.01886  -0.03540   0.00000  -0.03540   3.28323
    A1        2.10726   0.01303   0.02574   0.00000   0.02588   2.13314
    A2        2.08742  -0.00710  -0.01394   0.00000  -0.01401   2.07341
    A3        2.08850  -0.00593  -0.01180   0.00000  -0.01187   2.07663
    A4        2.09315  -0.00080  -0.00250   0.00000  -0.00238   2.09076
    A5        2.09744   0.00267   0.00609   0.00000   0.00604   2.10348
    A6        2.09260  -0.00188  -0.00360   0.00000  -0.00365   2.08894
    A7        2.09288  -0.00112  -0.00304   0.00000  -0.00307   2.08981
    A8        2.09539   0.00084   0.00198   0.00000   0.00199   2.09738
    A9        2.09492   0.00028   0.00106   0.00000   0.00107   2.09599
   A10        2.09582   0.00101   0.00285   0.00000   0.00270   2.09852
   A11        2.09230  -0.00177  -0.00419   0.00000  -0.00412   2.08819
   A12        2.09507   0.00076   0.00134   0.00000   0.00141   2.09648
   A13        2.09802   0.00338   0.00725   0.00000   0.00713   2.10515
   A14        2.09018  -0.00465  -0.00841   0.00000  -0.00835   2.08183
   A15        2.09499   0.00127   0.00117   0.00000   0.00123   2.09621
   A16        2.07925  -0.01550  -0.03030   0.00000  -0.03026   2.04899
    D1        0.00000   0.00000   0.00000   0.00000   0.00000   0.00000
    D2        3.14159   0.00000   0.00000   0.00000   0.00000   3.14159
    D3        3.14159  -0.00000   0.00000   0.00000   0.00000   3.14159
    D4        0.00000  -0.00000   0.00000   0.00000   0.00000   0.00000
    D5        0.00000   0.00000   0.00000   0.00000   0.00000   0.00000
    D6        3.14159   0.00000   0.00000   0.00000   0.00000   3.14159
    D7        0.00000  -0.00000   0.00000   0.00000   0.00000   0.00000
    D8        3.14159   0.00000   0.00000   0.00000   0.00000   3.14159
    D9        3.14159  -0.00000   0.00000   0.00000   0.00000   3.14159
   D10        0.00000  -0.00000   0.00000   0.00000   0.00000   0.00000
   D11        0.00000   0.00000   0.00000   0.00000   0.00000   0.00000
   D12        3.14159   0.00000   0.00000   0.00000   0.00000   3.14159
   D13        3.14159  -0.00000   0.00000   0.00000   0.00000   3.14159
   D14        0.00000  -0.00000   0.00000   0.00000   0.00000   0.00000
   D15        0.00000   0.00000   0.00000   0.00000   0.00000   0.00000
   D16        3.14159   0.00000   0.00000   0.00000   0.00000   3.14159
   D17        3.14159  -0.00000   0.00000   0.00000   0.00000   3.14159
   D18        0.00000   0.00000   0.00000   0.00000   0.00000   0.00000
   D19        0.00000  -0.00000   0.00000   0.00000   0.00000   0.00000
   D20        3.14159  -0.00000   0.00000   0.00000   0.00000   3.14159
         Item               Value     Threshold  Converged?
 Maximum Force            0.120362     0.000450     NO 
 RMS     Force            0.035965     0.000300     NO 
 Maximum Displacement     0.353616     0.001800     NO 
 RMS     Displacement     0.101789     0.001200     NO 
 Predicted change in Energy=-1.464189D-01
 GradGradGradGradGradGradGradGradGradGradGradGradGradGradGradGradGradGrad

                          Input orientation:                          
 ---------------------------------------------------------------------
 Center     Atomic      Atomic             Coordinates (Angstroms)
 Number     Number       Type             X           Y           Z
 ---------------------------------------------------------------------
      1          6           0       -3.144557    0.203095   -0.000000
      2          6           0       -1.986849    0.923805   -0.000000
      3          6           0       -0.787259    0.277770   -0.000000
      4          6           0       -0.753264   -1.081322   -0.000000
      5          6           0       -1.929279   -1.806770   -0.000000
      6          6           0       -3.152110   -1.164368   -0.000000
      7          1           0       -4.480839    0.952936   -0.000000
      8          1           0        0.599119   -1.806810   -0.000000
      9         17           0       -1.856847   -3.542668   -0.000000
     10          1           0       -2.023932    2.459712   -0.000000
     11          1           0        0.515945    1.077140   -0.000000
 ---------------------------------------------------------------------
                    Distance matrix (angstroms):
                    1          2          3          4          5
     1  C    0.000000
     2  C    1.363713   0.000000
     3  C    2.358480   1.362489   0.000000
     4  C    2.714408   2.354202   1.359517   0.000000
     5  C    2.348714   2.731182   2.376871   1.381769   0.000000
     6  C    1.367484   2.391297   2.769889   2.400283   1.381302
     7  H    1.532289   2.494160   3.754781   4.246530   3.758515
     8  H    4.249097   3.760783   2.503501   1.534690   2.528398
     9  Cl   3.960927   4.468365   3.967338   2.697429   1.737409
    10  H    2.519548   1.536354   2.508032   3.762116   4.267531
    11  H    3.763407   2.507486   1.528834   2.503967   3.781012
                    6          7          8          9         10
     6  C    0.000000
     7  H    2.499699   0.000000
     8  H    3.805845   5.781191   0.000000
     9  Cl   2.708139   5.205362   3.007486   0.000000
    10  H    3.795621   2.882146   5.008353   6.004705   0.000000
    11  H    4.298719   4.998327   2.885149   5.193531   2.891795
                   11
    11  H    0.000000
 Stoichiometry    C6H4Cl(1-)
 Framework group  CS[SG(C6H4Cl)]
 Deg. of freedom    19
 Full point group                 CS      NOp   2
 Largest Abelian subgroup         CS      NOp   2
 Largest concise Abelian subgroup C1      NOp   1
                         Standard orientation:                         
 ---------------------------------------------------------------------
 Center     Atomic      Atomic             Coordinates (Angstroms)
 Number     Number       Type             X           Y           Z
 ---------------------------------------------------------------------
      1          6           0       -1.379896   -1.380236    0.000000
      2          6           0       -0.286855   -2.195695    0.000000
      3          6           0        0.962786   -1.652764    0.000000
      4          6           0        1.110885   -0.301338    0.000000
      5          6           0        0.000000    0.520381    0.000000
      6          6           0       -1.272495   -0.016976    0.000000
      7          1           0       -2.774469   -2.015118    0.000000
      8          1           0        2.519456    0.307924    0.000000
      9         17           0        0.218068    2.244050    0.000000
     10          1           0       -0.452890   -3.723051    0.000000
     11          1           0        2.194197   -2.558833    0.000000
 ---------------------------------------------------------------------
 Rotational constants (GHZ):           5.8191083           1.5744761           1.2391888
 Standard basis: VSTO-6G (5D, 7F)
 There are    25 symmetry adapted cartesian basis functions of A'  symmetry.
 There are     7 symmetry adapted cartesian basis functions of A"  symmetry.
 There are    25 symmetry adapted basis functions of A'  symmetry.
 There are     7 symmetry adapted basis functions of A"  symmetry.
    32 basis functions,   192 primitive gaussians,    32 cartesian basis functions
    18 alpha electrons       18 beta electrons
       nuclear repulsion energy       150.5499281549 Hartrees.
 Integral buffers will be    131072 words long.
 Regular integral format.
 Two-electron integral symmetry is turned off.
 Do NDO integrals.
 One-electron integrals computed using PRISM.
 NBasis=    32 RedAO= T EigKep=  1.00D+00  NBF=    25     7
 NBsUse=    32 1.00D-06 EigRej= -1.00D+00 NBFU=    25     7
 Initial guess from the checkpoint file:  "geometry_chks/_4ClBzAnionIntermediate.chk"
 B after Tr=     0.000000   -0.000000   -0.000000
         Rot=    0.999963   -0.000000   -0.000000    0.008560 Ang=   0.98 deg.
 Initial guess orbital symmetries:
       Occupied  (A') (A') (A') (A') (A') (A') (A') (A') (A") (A')
                 (A") (A') (A') (A') (A') (A") (A") (A')
       Virtual   (A') (A') (A') (A") (A") (A') (A') (A") (A') (A')
                 (A') (A') (A') (A')
 Keep J ints in memory in canonical form, NReq=862079.
 Overlap will be assumed to be unity.
 Requested convergence on RMS density matrix=1.00D-08 within**** cycles.
 Requested convergence on MAX density matrix=1.00D-06.
 Requested convergence on             energy=1.00D-06.
 No special actions if energy rises.
 Fock symm off for IB=2 I1=    1 I=   26 J=   21 Cut=1.00D-07 Err=2.26D-03
 Fock matrix is not symmetric: symmetry in diagonalization turned off.
 SCF Done:  E(RAM1) =  0.335253880714     A.U. after   14 cycles
            NFock= 13  Conv=0.42D-08     -V/T= 1.0048
 Calling FoFJK, ICntrl=      2127 FMM=F ISym2X=1 I1Cent= 0 IOpClX= 0 NMat=1 NMatS=1 NMatT=0.
 ***** Axes restored to original set *****
 -------------------------------------------------------------------
 Center     Atomic                   Forces (Hartrees/Bohr)
 Number     Number              X              Y              Z
 -------------------------------------------------------------------
      1        6          -0.109811265    0.061469819   -0.000000000
      2        6          -0.012029736    0.141159132   -0.000000000
      3        6           0.121709952    0.072305072   -0.000000000
      4        6           0.118163593   -0.070626670   -0.000000000
      5        6          -0.002157884   -0.016414694   -0.000000000
      6        6          -0.017748819   -0.012309812    0.000000000
      7        1           0.102271997   -0.056968538    0.000000000
      8        1          -0.103700638    0.056203106    0.000000000
      9       17           0.001281417    0.005515553    0.000000000
     10        1           0.003867878   -0.117578511    0.000000000
     11        1          -0.101846493   -0.062754456    0.000000000
 -------------------------------------------------------------------
 Cartesian Forces:  Max     0.141159132 RMS     0.063111388

 GradGradGradGradGradGradGradGradGradGradGradGradGradGradGradGradGradGrad
 Berny optimization.
 Using GEDIIS/GDIIS optimizer.
 FormGI is forming the generalized inverse of G from B-inverse, IUseBI=4.
 Internal  Forces:  Max     0.119627638 RMS     0.035074485
 Search for a local minimum.
 Step number   3 out of a maximum of   57
 All quantities printed in internal units (Hartrees-Bohrs-Radians)
 Mixed Optimization -- RFO/linear search
 Update second derivatives using D2CorX and points    2    3
 ITU=  0  1  0
 Use linear search instead of GDIIS.
 Linear search step of   1.200 exceeds DXMaxT=   0.505 scaled by   0.841
 Quartic linear search produced a step of  1.68179.
 Iteration  1 RMS(Cart)=  0.09250120 RMS(Int)=  0.08540100
 Iteration  2 RMS(Cart)=  0.05612110 RMS(Int)=  0.02709305
 Iteration  3 RMS(Cart)=  0.02608729 RMS(Int)=  0.00016614
 Iteration  4 RMS(Cart)=  0.00000492 RMS(Int)=  0.00016607
 Iteration  5 RMS(Cart)=  0.00000000 RMS(Int)=  0.00016607
 ClnCor:  largest displacement from symmetrization is 1.78D-15 for atom    10.
 Variable       Old X    -DE/DX   Delta X   Delta X   Delta X     New X
                                 (Linear)    (Quad)   (Total)
    R1        2.57704   0.01639  -0.08933   0.00000  -0.08904   2.48800
    R2        2.58417   0.01749  -0.08136   0.00000  -0.08117   2.50300
    R3        2.89561  -0.11707  -0.49416   0.00000  -0.49416   2.40145
    R4        2.57473   0.02210  -0.09196   0.00000  -0.09185   2.48288
    R5        2.90329  -0.11764  -0.48554   0.00000  -0.48554   2.41775
    R6        2.56912   0.02014  -0.09831   0.00000  -0.09849   2.47063
    R7        2.88908  -0.11963  -0.50146   0.00000  -0.50146   2.38762
    R8        2.61117   0.01572  -0.05119   0.00000  -0.05148   2.55969
    R9        2.90014  -0.11795  -0.48905   0.00000  -0.48905   2.41109
   R10        2.61028   0.01485  -0.05212   0.00000  -0.05223   2.55805
   R11        3.28323  -0.00546  -0.05953   0.00000  -0.05953   3.22370
    A1        2.13314   0.00446   0.04352   0.00000   0.04396   2.17710
    A2        2.07341  -0.00276  -0.02356   0.00000  -0.02378   2.04964
    A3        2.07663  -0.00170  -0.01996   0.00000  -0.02018   2.05645
    A4        2.09076  -0.00291  -0.00401   0.00000  -0.00363   2.08713
    A5        2.10348   0.00295   0.01015   0.00000   0.00996   2.11344
    A6        2.08894  -0.00004  -0.00614   0.00000  -0.00633   2.08261
    A7        2.08981  -0.00142  -0.00516   0.00000  -0.00523   2.08458
    A8        2.09738   0.00106   0.00335   0.00000   0.00339   2.10077
    A9        2.09599   0.00036   0.00180   0.00000   0.00184   2.09783
   A10        2.09852  -0.00001   0.00455   0.00000   0.00410   2.10262
   A11        2.08819  -0.00073  -0.00693   0.00000  -0.00670   2.08149
   A12        2.09648   0.00074   0.00238   0.00000   0.00260   2.09908
   A13        2.10515   0.00300   0.01199   0.00000   0.01160   2.11675
   A14        2.08183  -0.00398  -0.01405   0.00000  -0.01386   2.06797
   A15        2.09621   0.00098   0.00206   0.00000   0.00225   2.09847
   A16        2.04899  -0.00312  -0.05090   0.00000  -0.05079   1.99819
    D1        0.00000  -0.00000   0.00000   0.00000   0.00000   0.00000
    D2        3.14159   0.00000   0.00000   0.00000   0.00000   3.14159
    D3        3.14159  -0.00000   0.00000   0.00000   0.00000   3.14159
    D4        0.00000  -0.00000   0.00000   0.00000   0.00000   0.00000
    D5        0.00000  -0.00000   0.00000   0.00000   0.00000   0.00000
    D6        3.14159   0.00000   0.00000   0.00000   0.00000   3.14159
    D7        0.00000   0.00000   0.00000   0.00000   0.00000   0.00000
    D8        3.14159   0.00000   0.00000   0.00000   0.00000   3.14159
    D9        3.14159  -0.00000   0.00000   0.00000   0.00000   3.14159
   D10        0.00000  -0.00000   0.00000   0.00000   0.00000   0.00000
   D11        0.00000   0.00000   0.00000   0.00000   0.00000   0.00000
   D12        3.14159   0.00000   0.00000   0.00000   0.00000   3.14159
   D13        3.14159  -0.00000   0.00000   0.00000   0.00000   3.14159
   D14        0.00000   0.00000   0.00000   0.00000   0.00000   0.00000
   D15        0.00000  -0.00000   0.00000   0.00000   0.00000   0.00000
   D16        3.14159   0.00000   0.00000   0.00000   0.00000   3.14159
   D17        3.14159  -0.00000   0.00000   0.00000   0.00000   3.14159
   D18        0.00000   0.00000   0.00000   0.00000   0.00000   0.00000
   D19        0.00000   0.00000   0.00000   0.00000   0.00000   0.00000
   D20        3.14159  -0.00000   0.00000   0.00000   0.00000   3.14159
         Item               Value     Threshold  Converged?
 Maximum Force            0.119628     0.000450     NO 
 RMS     Force            0.035074     0.000300     NO 
 Maximum Displacement     0.589777     0.001800     NO 
 RMS     Displacement     0.170937     0.001200     NO 
 Predicted change in Energy=-2.056111D-01
 GradGradGradGradGradGradGradGradGradGradGradGradGradGradGradGradGradGrad

                          Input orientation:                          
 ---------------------------------------------------------------------
 Center     Atomic      Atomic             Coordinates (Angstroms)
 Number     Number       Type             X           Y           Z
 ---------------------------------------------------------------------
      1          6           0       -3.071792    0.208530   -0.000000
      2          6           0       -1.958221    0.910938   -0.000000
      3          6           0       -0.800007    0.290588   -0.000000
      4          6           0       -0.771171   -1.016494   -0.000000
      5          6           0       -1.923184   -1.728961   -0.000000
      6          6           0       -3.129476   -1.114746   -0.000000
      7          1           0       -4.168742    0.850101   -0.000000
      8          1           0        0.355413   -1.615422   -0.000000
      9         17           0       -1.826499   -3.432126   -0.000000
     10          1           0       -1.983923    2.190098   -0.000000
     11          1           0        0.277731    0.950014   -0.000000
 ---------------------------------------------------------------------
                    Distance matrix (angstroms):
                    1          2          3          4          5
     1  C    0.000000
     2  C    1.316594   0.000000
     3  C    2.273267   1.313885   0.000000
     4  C    2.606443   2.263644   1.307401   0.000000
     5  C    2.252370   2.640131   2.310867   1.354527   0.000000
     6  C    1.324532   2.339921   2.720550   2.360351   1.353662
     7  H    1.270792   2.211358   3.414884   3.876554   3.419663
     8  H    3.882337   3.425696   2.228872   1.275894   2.281424
     9  Cl   3.847743   4.345061   3.861643   2.636094   1.705907
    10  H    2.260547   1.279418   2.238257   3.428265   3.919530
    11  H    3.430613   2.236293   1.263472   2.228755   3.467122
                    6          7          8          9         10
     6  C    0.000000
     7  H    2.222768   0.000000
     8  H    3.520671   5.152357   0.000000
     9  Cl   2.658571   4.880939   2.839217   0.000000
    10  H    3.497754   2.563012   4.467043   5.624427   0.000000
    11  H    3.984004   4.447596   2.566612   4.861166   2.579319
                   11
    11  H    0.000000
 Stoichiometry    C6H4Cl(1-)
 Framework group  CS[SG(C6H4Cl)]
 Deg. of freedom    19
 Full point group                 CS      NOp   2
 Largest Abelian subgroup         CS      NOp   2
 Largest concise Abelian subgroup C1      NOp   1
                         Standard orientation:                         
 ---------------------------------------------------------------------
 Center     Atomic      Atomic             Coordinates (Angstroms)
 Number     Number       Type             X           Y           Z
 ---------------------------------------------------------------------
      1          6           0       -1.357504   -1.305152    0.000000
      2          6           0       -0.329206   -2.127359    0.000000
      3          6           0        0.890962   -1.640037    0.000000
      4          6           0        1.065378   -0.344322    0.000000
      5          6           0        0.000000    0.492167    0.000000
      6          6           0       -1.267262    0.016303    0.000000
      7          1           0       -2.519156   -1.820395    0.000000
      8          1           0        2.251724    0.125239    0.000000
      9         17           0        0.286011    2.173927    0.000000
     10          1           0       -0.497394   -3.395674    0.000000
     11          1           0        1.888442   -2.415533    0.000000
 ---------------------------------------------------------------------
 Rotational constants (GHZ):           6.3552450           1.6780645           1.3275364
 Standard basis: VSTO-6G (5D, 7F)
 There are    25 symmetry adapted cartesian basis functions of A'  symmetry.
 There are     7 symmetry adapted cartesian basis functions of A"  symmetry.
 There are    25 symmetry adapted basis functions of A'  symmetry.
 There are     7 symmetry adapted basis functions of A"  symmetry.
    32 basis functions,   192 primitive gaussians,    32 cartesian basis functions
    18 alpha electrons       18 beta electrons
       nuclear repulsion energy       154.6564776468 Hartrees.
 Integral buffers will be    131072 words long.
 Regular integral format.
 Two-electron integral symmetry is turned off.
 Do NDO integrals.
 One-electron integrals computed using PRISM.
 NBasis=    32 RedAO= T EigKep=  1.00D+00  NBF=    25     7
 NBsUse=    32 1.00D-06 EigRej= -1.00D+00 NBFU=    25     7
 Initial guess from the checkpoint file:  "geometry_chks/_4ClBzAnionIntermediate.chk"
 B after Tr=     0.000000   -0.000000    0.000000
         Rot=    0.999888    0.000000    0.000000    0.014934 Ang=   1.71 deg.
 Initial guess orbital symmetries:
       Occupied  (A') (A') (A') (A') (A') (A') (A') (A') (A') (A")
                 (A') (A") (A') (A') (A') (A") (A") (A')
       Virtual   (A') (A") (A") (A') (A') (A') (A') (A") (A') (A')
                 (A') (A') (A') (A')
 Keep J ints in memory in canonical form, NReq=862079.
 Overlap will be assumed to be unity.
 Requested convergence on RMS density matrix=1.00D-08 within**** cycles.
 Requested convergence on MAX density matrix=1.00D-06.
 Requested convergence on             energy=1.00D-06.
 No special actions if energy rises.
 Fock symm off for IB=2 I1=    1 I=   26 J=   20 Cut=1.00D-07 Err=2.93D-03
 Fock matrix is not symmetric: symmetry in diagonalization turned off.
 SCF Done:  E(RAM1) =  0.164310507403     A.U. after   14 cycles
            NFock= 13  Conv=0.43D-08     -V/T= 1.0023
 Calling FoFJK, ICntrl=      2127 FMM=F ISym2X=1 I1Cent= 0 IOpClX= 0 NMat=1 NMatS=1 NMatT=0.
 ***** Axes restored to original set *****
 -------------------------------------------------------------------
 Center     Atomic                   Forces (Hartrees/Bohr)
 Number     Number              X              Y              Z
 -------------------------------------------------------------------
      1        6          -0.177043152    0.084367228   -0.000000000
      2        6          -0.016109173    0.202642018   -0.000000000
      3        6           0.174357235    0.108428145   -0.000000000
      4        6           0.141648908   -0.132877478    0.000000000
      5        6          -0.009495725   -0.059924192   -0.000000000
      6        6          -0.047550902   -0.065879486    0.000000000
      7        1           0.061701235   -0.036209255    0.000000000
      8        1          -0.067905703    0.035282789    0.000000000
      9       17           0.001739339   -0.019850991   -0.000000000
     10        1           0.001109333   -0.077417876    0.000000000
     11        1          -0.062451394   -0.038560902    0.000000000
 -------------------------------------------------------------------
 Cartesian Forces:  Max     0.202642018 RMS     0.076415688

 GradGradGradGradGradGradGradGradGradGradGradGradGradGradGradGradGradGrad
 Berny optimization.
 Using GEDIIS/GDIIS optimizer.
 FormGI is forming the generalized inverse of G from B-inverse, IUseBI=4.
 Internal  Forces:  Max     0.136249145 RMS     0.045433335
 Search for a local minimum.
 Step number   4 out of a maximum of   57
 All quantities printed in internal units (Hartrees-Bohrs-Radians)
 Mixed Optimization -- RFO/linear search
 Update second derivatives using D2CorX and points    3    4
 ITU=  0  0  1  0
 Use linear search instead of GDIIS.
     Eigenvalues ---    0.02011   0.02011   0.02011   0.02011   0.02011
     Eigenvalues ---    0.02011   0.02011   0.02011   0.06119   0.06524
     Eigenvalues ---    0.06524   0.06612   0.16000   0.16000   0.16000
     Eigenvalues ---    0.16002   0.21993   0.22470   0.24426   0.24994
     Eigenvalues ---    0.29016   0.40262   0.41391   0.44652   0.44657
     Eigenvalues ---    0.44657   0.75398
 RFO step:  Lambda=-1.88567525D-01 EMin= 2.01065637D-02
 Quartic linear search produced a step of  0.35614.
 Maximum step size (   0.505) exceeded in Quadratic search.
    -- Step size scaled by   0.835
 Iteration  1 RMS(Cart)=  0.04882853 RMS(Int)=  0.04478167
 Iteration  2 RMS(Cart)=  0.04322223 RMS(Int)=  0.00018385
 Iteration  3 RMS(Cart)=  0.00004539 RMS(Int)=  0.00018015
 Iteration  4 RMS(Cart)=  0.00000000 RMS(Int)=  0.00018015
 ClnCor:  largest displacement from symmetrization is 7.99D-09 for atom     1.
 Variable       Old X    -DE/DX   Delta X   Delta X   Delta X     New X
                                 (Linear)    (Quad)   (Total)
    R1        2.48800   0.11623  -0.03171   0.15164   0.12019   2.60819
    R2        2.50300   0.10628  -0.02891   0.13714   0.10824   2.61125
    R3        2.40145  -0.07154  -0.17599  -0.16789  -0.34388   2.05757
    R4        2.48288   0.13294  -0.03271   0.17348   0.14103   2.62391
    R5        2.41775  -0.07742  -0.17292  -0.18680  -0.35972   2.05803
    R6        2.47063   0.13625  -0.03507   0.17687   0.14179   2.61242
    R7        2.38762  -0.07340  -0.17859  -0.17300  -0.35159   2.03603
    R8        2.55969   0.08016  -0.01833   0.10205   0.08345   2.64314
    R9        2.41109  -0.07652  -0.17417  -0.18367  -0.35784   2.05325
   R10        2.55805   0.07448  -0.01860   0.09430   0.07544   2.63349
   R11        3.22370   0.01992  -0.02120   0.03840   0.01720   3.24090
    A1        2.17710  -0.01530   0.01565  -0.03091  -0.01498   2.16212
    A2        2.04964   0.00778  -0.00847   0.01586   0.00726   2.05689
    A3        2.05645   0.00752  -0.00719   0.01504   0.00772   2.06417
    A4        2.08713  -0.00962  -0.00129  -0.01067  -0.01142   2.07570
    A5        2.11344   0.00427   0.00355   0.00332   0.00660   2.12004
    A6        2.08261   0.00535  -0.00225   0.00735   0.00483   2.08744
    A7        2.08458  -0.00303  -0.00186   0.00025  -0.00133   2.08325
    A8        2.10077   0.00187   0.00121   0.00061   0.00167   2.10244
    A9        2.09783   0.00116   0.00066  -0.00086  -0.00034   2.09749
   A10        2.10262  -0.00281   0.00146  -0.00648  -0.00526   2.09736
   A11        2.08149   0.00228  -0.00239   0.00563   0.00336   2.08484
   A12        2.09908   0.00053   0.00093   0.00086   0.00190   2.10098
   A13        2.11675   0.00424   0.00413   0.00134   0.00498   2.12173
   A14        2.06797  -0.00311  -0.00494  -0.00169  -0.00637   2.06159
   A15        2.09847  -0.00113   0.00080   0.00034   0.00139   2.09986
   A16        1.99819   0.02652  -0.01809   0.04647   0.02801   2.02621
    D1        0.00000  -0.00000   0.00000  -0.00000   0.00000   0.00000
    D2        3.14159   0.00000   0.00000   0.00000   0.00000   3.14159
    D3        3.14159  -0.00000   0.00000  -0.00000   0.00000   3.14159
    D4        0.00000  -0.00000   0.00000  -0.00000   0.00000   0.00000
    D5        0.00000   0.00000   0.00000   0.00000   0.00000   0.00000
    D6        3.14159   0.00000   0.00000   0.00000   0.00000   3.14159
    D7        0.00000  -0.00000   0.00000  -0.00000   0.00000   0.00000
    D8        3.14159   0.00000   0.00000   0.00000   0.00000   3.14159
    D9        3.14159  -0.00000   0.00000  -0.00000   0.00000   3.14159
   D10        0.00000  -0.00000   0.00000  -0.00000   0.00000   0.00000
   D11        0.00000   0.00000   0.00000   0.00000   0.00000   0.00000
   D12        3.14159   0.00000   0.00000   0.00000   0.00000   3.14159
   D13        3.14159  -0.00000   0.00000  -0.00000   0.00000   3.14159
   D14        0.00000   0.00000   0.00000   0.00000   0.00000   0.00000
   D15        0.00000  -0.00000   0.00000  -0.00000   0.00000   0.00000
   D16        3.14159   0.00000   0.00000   0.00000   0.00000   3.14159
   D17        3.14159  -0.00000   0.00000  -0.00000   0.00000   3.14159
   D18        0.00000  -0.00000   0.00000  -0.00000   0.00000   0.00000
   D19        0.00000   0.00000   0.00000   0.00000   0.00000   0.00000
   D20        3.14159  -0.00000   0.00000  -0.00000   0.00000   3.14159
         Item               Value     Threshold  Converged?
 Maximum Force            0.136249     0.000450     NO 
 RMS     Force            0.045433     0.000300     NO 
 Maximum Displacement     0.211828     0.001800     NO 
 RMS     Displacement     0.076670     0.001200     NO 
 Predicted change in Energy=-1.514180D-01
 GradGradGradGradGradGradGradGradGradGradGradGradGradGradGradGradGradGrad

                          Input orientation:                          
 ---------------------------------------------------------------------
 Center     Atomic      Atomic             Coordinates (Angstroms)
 Number     Number       Type             X           Y           Z
 ---------------------------------------------------------------------
      1          6           0       -3.116704    0.264712   -0.000000
      2          6           0       -1.954325    1.008897   -0.000000
      3          6           0       -0.733412    0.347580   -0.000000
      4          6           0       -0.711240   -1.034675   -0.000000
      5          6           0       -1.909033   -1.756908   -0.000000
      6          6           0       -3.146894   -1.116770   -0.000000
      7          1           0       -4.064176    0.801208   -0.000000
      8          1           0        0.243318   -1.553686   -0.000000
      9         17           0       -1.820232   -3.469617   -0.000000
     10          1           0       -1.976354    2.097736   -0.000000
     11          1           0        0.189181    0.904044   -0.000000
 ---------------------------------------------------------------------
                    Distance matrix (angstroms):
                    1          2          3          4          5
     1  C    0.000000
     2  C    1.380194   0.000000
     3  C    2.384732   1.388513   0.000000
     4  C    2.733983   2.391954   1.382432   0.000000
     5  C    2.354870   2.766175   2.410592   1.398689   0.000000
     6  C    1.381812   2.437351   2.822980   2.437037   1.393583
     7  H    1.088821   2.120048   3.361513   3.822649   3.344936
     8  H    3.820513   3.375865   2.137478   1.086533   2.161924
     9  Cl   3.952981   4.480521   3.968901   2.675595   1.715010
    10  H    2.158790   1.089063   2.146614   3.378241   3.855232
    11  H    3.367138   2.146069   1.077418   2.137613   3.388683
                    6          7          8          9         10
     6  C    0.000000
     7  H    2.126040   0.000000
     8  H    3.418250   4.909178   0.000000
     9  Cl   2.701096   4.824441   2.815854   0.000000
    10  H    3.420996   2.457638   4.273152   5.569542   0.000000
    11  H    3.900396   4.254600   2.458327   4.813175   2.472740
                   11
    11  H    0.000000
 Stoichiometry    C6H4Cl(1-)
 Framework group  CS[SG(C6H4Cl)]
 Deg. of freedom    19
 Full point group                 CS      NOp   2
 Largest Abelian subgroup         CS      NOp   2
 Largest concise Abelian subgroup C1      NOp   1
                         Standard orientation:                         
 ---------------------------------------------------------------------
 Center     Atomic      Atomic             Coordinates (Angstroms)
 Number     Number       Type             X           Y           Z
 ---------------------------------------------------------------------
      1          6           0       -1.394278   -1.374553    0.000000
      2          6           0       -0.307861   -2.225807    0.000000
      3          6           0        0.970360   -1.683478    0.000000
      4          6           0        1.123758   -0.309583    0.000000
      5          6           0        0.000000    0.523183    0.000000
      6          6           0       -1.293079    0.003549    0.000000
      7          1           0       -2.388436   -1.818604    0.000000
      8          1           0        2.123308    0.116390    0.000000
      9         17           0        0.251121    2.219709    0.000000
     10          1           0       -0.433239   -3.307628    0.000000
     11          1           0        1.835911   -2.325079    0.000000
 ---------------------------------------------------------------------
 Rotational constants (GHZ):           6.0561741           1.6018606           1.2667932
 Standard basis: VSTO-6G (5D, 7F)
 There are    25 symmetry adapted cartesian basis functions of A'  symmetry.
 There are     7 symmetry adapted cartesian basis functions of A"  symmetry.
 There are    25 symmetry adapted basis functions of A'  symmetry.
 There are     7 symmetry adapted basis functions of A"  symmetry.
    32 basis functions,   192 primitive gaussians,    32 cartesian basis functions
    18 alpha electrons       18 beta electrons
       nuclear repulsion energy       153.3003829672 Hartrees.
 Integral buffers will be    131072 words long.
 Regular integral format.
 Two-electron integral symmetry is turned off.
 Do NDO integrals.
 One-electron integrals computed using PRISM.
 NBasis=    32 RedAO= T EigKep=  1.00D+00  NBF=    25     7
 NBsUse=    32 1.00D-06 EigRej= -1.00D+00 NBFU=    25     7
 Initial guess from the checkpoint file:  "geometry_chks/_4ClBzAnionIntermediate.chk"
 B after Tr=    -0.000000    0.000000    0.000000
         Rot=    0.999961   -0.000000   -0.000000   -0.008797 Ang=  -1.01 deg.
 Initial guess orbital symmetries:
       Occupied  (A') (A') (A') (A') (A') (A') (A') (A') (A') (A")
                 (A') (A') (A") (A') (A') (A") (A") (A')
       Virtual   (A") (A") (A') (A') (A') (A') (A') (A") (A') (A')
                 (A') (A') (A') (A')
 Keep J ints in memory in canonical form, NReq=862079.
 Overlap will be assumed to be unity.
 Requested convergence on RMS density matrix=1.00D-08 within**** cycles.
 Requested convergence on MAX density matrix=1.00D-06.
 Requested convergence on             energy=1.00D-06.
 No special actions if energy rises.
 Fock symm off for IB=2 I1=    1 I=   26 J=   15 Cut=1.00D-07 Err=4.10D-03
 Fock matrix is not symmetric: symmetry in diagonalization turned off.
 SCF Done:  E(RAM1) =  0.678522413659E-01 A.U. after   14 cycles
            NFock= 13  Conv=0.73D-08     -V/T= 1.0010
 Calling FoFJK, ICntrl=      2127 FMM=F ISym2X=1 I1Cent= 0 IOpClX= 0 NMat=1 NMatS=1 NMatT=0.
 ***** Axes restored to original set *****
 -------------------------------------------------------------------
 Center     Atomic                   Forces (Hartrees/Bohr)
 Number     Number              X              Y              Z
 -------------------------------------------------------------------
      1        6          -0.016767870    0.006391415   -0.000000000
      2        6           0.004328279    0.006948119   -0.000000000
      3        6           0.000053754    0.002302804   -0.000000000
      4        6           0.001329218   -0.017724414   -0.000000000
      5        6          -0.005821263    0.013239704   -0.000000000
      6        6           0.003700902   -0.018513490    0.000000000
      7        1          -0.009372081    0.004263182    0.000000000
      8        1           0.009337673   -0.004417468    0.000000000
      9       17           0.000468361   -0.007545209    0.000000000
     10        1          -0.000298816    0.007571694    0.000000000
     11        1           0.013041844    0.007483664    0.000000000
 -------------------------------------------------------------------
 Cartesian Forces:  Max     0.018513490 RMS     0.007445262

 GradGradGradGradGradGradGradGradGradGradGradGradGradGradGradGradGradGrad
 Berny optimization.
 Using GEDIIS/GDIIS optimizer.
 FormGI is forming the generalized inverse of G from B-inverse, IUseBI=4.
 Internal  Forces:  Max     0.020285681 RMS     0.006815212
 Search for a local minimum.
 Step number   5 out of a maximum of   57
 All quantities printed in internal units (Hartrees-Bohrs-Radians)
 Mixed Optimization -- RFO/linear search
 Update second derivatives using D2CorX and points    4    5
 DE= -9.65D-02 DEPred=-1.51D-01 R= 6.37D-01
 TightC=F SS=  1.41D+00  RLast= 7.61D-01 DXNew= 8.4853D-01 2.2844D+00
 Trust test= 6.37D-01 RLast= 7.61D-01 DXMaxT set to 8.49D-01
 ITU=  1  0  0  1  0
 Use linear search instead of GDIIS.
     Eigenvalues ---    0.02011   0.02011   0.02011   0.02011   0.02011
     Eigenvalues ---    0.02011   0.02011   0.02011   0.06520   0.06524
     Eigenvalues ---    0.06528   0.15997   0.16000   0.16000   0.16002
     Eigenvalues ---    0.20166   0.21998   0.22719   0.24515   0.24994
     Eigenvalues ---    0.29008   0.40623   0.41590   0.44653   0.44655
     Eigenvalues ---    0.44668   0.67728
 RFO step:  Lambda=-6.13631588D-03 EMin= 2.01065642D-02
 Quartic linear search produced a step of -0.02080.
 Iteration  1 RMS(Cart)=  0.03033495 RMS(Int)=  0.00013139
 Iteration  2 RMS(Cart)=  0.00016607 RMS(Int)=  0.00002169
 Iteration  3 RMS(Cart)=  0.00000002 RMS(Int)=  0.00002169
 ClnCor:  largest displacement from symmetrization is 3.95D-12 for atom    11.
 Variable       Old X    -DE/DX   Delta X   Delta X   Delta X     New X
                                 (Linear)    (Quad)   (Total)
    R1        2.60819   0.02029  -0.00250   0.04160   0.03911   2.64730
    R2        2.61125   0.01662  -0.00225   0.03427   0.03205   2.64330
    R3        2.05757   0.01026   0.00715   0.03593   0.04308   2.10065
    R4        2.62391   0.01821  -0.00293   0.03638   0.03343   2.65734
    R5        2.05803   0.00758   0.00748   0.00774   0.01522   2.07325
    R6        2.61242   0.01825  -0.00295   0.03501   0.03202   2.64444
    R7        2.03603   0.01503   0.00731   0.09931   0.10663   2.14265
    R8        2.64314   0.00449  -0.00174   0.00688   0.00513   2.64827
    R9        2.05325   0.01031   0.00744   0.04326   0.05071   2.10396
   R10        2.63349   0.00120  -0.00157   0.00083  -0.00072   2.63277
   R11        3.24090   0.00756  -0.00036   0.02369   0.02333   3.26423
    A1        2.16212  -0.00858   0.00031  -0.02971  -0.02935   2.13277
    A2        2.05689   0.00522  -0.00015   0.01993   0.01976   2.07665
    A3        2.06417   0.00335  -0.00016   0.00977   0.00959   2.07376
    A4        2.07570   0.00069   0.00024   0.00976   0.00999   2.08570
    A5        2.12004  -0.00049  -0.00014  -0.00489  -0.00502   2.11502
    A6        2.08744  -0.00019  -0.00010  -0.00487  -0.00497   2.08247
    A7        2.08325   0.00030   0.00003   0.00403   0.00400   2.08725
    A8        2.10244   0.00018  -0.00003  -0.00001  -0.00002   2.10242
    A9        2.09749  -0.00048   0.00001  -0.00402  -0.00398   2.09351
   A10        2.09736  -0.00469   0.00011  -0.02126  -0.02120   2.07616
   A11        2.08484   0.00175  -0.00007   0.00635   0.00631   2.09116
   A12        2.10098   0.00294  -0.00004   0.01490   0.01489   2.11588
   A13        2.12173   0.00770  -0.00010   0.02579   0.02569   2.14742
   A14        2.06159  -0.00397   0.00013  -0.01360  -0.01346   2.04813
   A15        2.09986  -0.00372  -0.00003  -0.01220  -0.01222   2.08763
   A16        2.02621   0.00458  -0.00058   0.01138   0.01087   2.03708
    D1        0.00000  -0.00000   0.00000  -0.00000   0.00000   0.00000
    D2        3.14159   0.00000   0.00000   0.00000   0.00000   3.14159
    D3        3.14159  -0.00000   0.00000  -0.00000   0.00000   3.14159
    D4        0.00000  -0.00000   0.00000  -0.00000   0.00000   0.00000
    D5        0.00000  -0.00000   0.00000  -0.00000   0.00000   0.00000
    D6        3.14159   0.00000   0.00000   0.00000   0.00000   3.14159
    D7        0.00000   0.00000   0.00000   0.00000   0.00000   0.00000
    D8        3.14159   0.00000   0.00000   0.00000   0.00000   3.14159
    D9        3.14159  -0.00000   0.00000  -0.00000   0.00000   3.14159
   D10        0.00000   0.00000   0.00000   0.00000   0.00000   0.00000
   D11        0.00000   0.00000   0.00000   0.00000   0.00000   0.00000
   D12        3.14159   0.00000   0.00000   0.00000   0.00000   3.14159
   D13        3.14159  -0.00000   0.00000  -0.00000   0.00000   3.14159
   D14        0.00000   0.00000   0.00000   0.00000   0.00000   0.00000
   D15        0.00000  -0.00000   0.00000  -0.00000   0.00000   0.00000
   D16        3.14159   0.00000   0.00000   0.00000   0.00000   3.14159
   D17        3.14159  -0.00000   0.00000  -0.00000   0.00000   3.14159
   D18        0.00000  -0.00000   0.00000  -0.00000   0.00000   0.00000
   D19        0.00000   0.00000   0.00000   0.00000   0.00000   0.00000
   D20        3.14159  -0.00000   0.00000  -0.00000   0.00000   3.14159
         Item               Value     Threshold  Converged?
 Maximum Force            0.020286     0.000450     NO 
 RMS     Force            0.006815     0.000300     NO 
 Maximum Displacement     0.109259     0.001800     NO 
 RMS     Displacement     0.030343     0.001200     NO 
 Predicted change in Energy=-3.268260D-03
 GradGradGradGradGradGradGradGradGradGradGradGradGradGradGradGradGradGrad

                          Input orientation:                          
 ---------------------------------------------------------------------
 Center     Atomic      Atomic             Coordinates (Angstroms)
 Number     Number       Type             X           Y           Z
 ---------------------------------------------------------------------
      1          6           0       -3.149347    0.272851   -0.000000
      2          6           0       -1.962095    1.016443   -0.000000
      3          6           0       -0.725585    0.346778   -0.000000
      4          6           0       -0.697457   -1.052318   -0.000000
      5          6           0       -1.909800   -1.755278   -0.000000
      6          6           0       -3.152746   -1.125918   -0.000000
      7          1           0       -4.121993    0.811046   -0.000000
      8          1           0        0.279477   -1.586346   -0.000000
      9         17           0       -1.826700   -3.480634   -0.000000
     10          1           0       -1.978901    2.113433   -0.000000
     11          1           0        0.245277    0.932463   -0.000000
 ---------------------------------------------------------------------
                    Distance matrix (angstroms):
                    1          2          3          4          5
     1  C    0.000000
     2  C    1.400892   0.000000
     3  C    2.424889   1.406203   0.000000
     4  C    2.787084   2.424682   1.399379   0.000000
     5  C    2.376927   2.772214   2.412676   1.401402   0.000000
     6  C    1.398773   2.450992   2.839004   2.456392   1.393201
     7  H    1.111618   2.169643   3.427993   3.898663   3.388187
     8  H    3.900441   3.434990   2.178788   1.113366   2.195785
     9  Cl   3.979704   4.499115   3.982654   2.678041   1.727356
    10  H    2.181212   1.097118   2.166073   3.415272   3.869328
    11  H    3.458115   2.208969   1.133843   2.197295   3.445041
                    6          7          8          9         10
     6  C    0.000000
     7  H    2.165933   0.000000
     8  H    3.462968   5.012028   0.000000
     9  Cl   2.702422   4.866917   2.832721   0.000000
    10  H    3.445476   2.507799   4.334586   5.596137   0.000000
    11  H    3.972845   4.368958   2.519041   4.875296   2.518265
                   11
    11  H    0.000000
 Stoichiometry    C6H4Cl(1-)
 Framework group  CS[SG(C6H4Cl)]
 Deg. of freedom    19
 Full point group                 CS      NOp   2
 Largest Abelian subgroup         CS      NOp   2
 Largest concise Abelian subgroup C1      NOp   1
                         Standard orientation:                         
 ---------------------------------------------------------------------
 Center     Atomic      Atomic             Coordinates (Angstroms)
 Number     Number       Type             X           Y           Z
 ---------------------------------------------------------------------
      1          6           0       -1.416576   -1.391408    0.000000
      2          6           0       -0.300856   -2.238560    0.000000
      3          6           0        0.990768   -1.682579    0.000000
      4          6           0        1.144357   -0.291654    0.000000
      5          6           0        0.000000    0.517281    0.000000
      6          6           0       -1.294417    0.002020    0.000000
      7          1           0       -2.433602   -1.840132    0.000000
      8          1           0        2.165279    0.152534    0.000000
      9         17           0        0.237622    2.228215    0.000000
     10          1           0       -0.416054   -3.329614    0.000000
     11          1           0        1.905144   -2.353039    0.000000
 ---------------------------------------------------------------------
 Rotational constants (GHZ):           5.8883160           1.5892355           1.2514686
 Standard basis: VSTO-6G (5D, 7F)
 There are    25 symmetry adapted cartesian basis functions of A'  symmetry.
 There are     7 symmetry adapted cartesian basis functions of A"  symmetry.
 There are    25 symmetry adapted basis functions of A'  symmetry.
 There are     7 symmetry adapted basis functions of A"  symmetry.
    32 basis functions,   192 primitive gaussians,    32 cartesian basis functions
    18 alpha electrons       18 beta electrons
       nuclear repulsion energy       152.4422139494 Hartrees.
 Integral buffers will be    131072 words long.
 Regular integral format.
 Two-electron integral symmetry is turned off.
 Do NDO integrals.
 One-electron integrals computed using PRISM.
 NBasis=    32 RedAO= T EigKep=  1.00D+00  NBF=    25     7
 NBsUse=    32 1.00D-06 EigRej= -1.00D+00 NBFU=    25     7
 Initial guess from the checkpoint file:  "geometry_chks/_4ClBzAnionIntermediate.chk"
 B after Tr=     0.000000    0.000000    0.000000
         Rot=    0.999996   -0.000000   -0.000000   -0.002829 Ang=  -0.32 deg.
 Initial guess orbital symmetries:
       Occupied  (A') (A') (A') (A') (A') (A') (A') (A') (A') (A')
                 (A") (A') (A") (A') (A') (A") (A") (A')
       Virtual   (A") (A") (A') (A") (A') (A') (A') (A') (A') (A')
                 (A') (A') (A') (A')
 Keep J ints in memory in canonical form, NReq=862079.
[...]
 Requested convergence on MAX density matrix=1.00D-06.
 Requested convergence on             energy=1.00D-06.
 No special actions if energy rises.
 An orbital has undefined symmetry, so N**3 symmetry is turned off.
 SCF Done:  E(RAM1) =  0.656625641356E-01 A.U. after   10 cycles
            NFock=  9  Conv=0.59D-08     -V/T= 1.0009
 Calling FoFJK, ICntrl=      2127 FMM=F ISym2X=1 I1Cent= 0 IOpClX= 0 NMat=1 NMatS=1 NMatT=0.
 ***** Axes restored to original set *****
 -------------------------------------------------------------------
 Center     Atomic                   Forces (Hartrees/Bohr)
 Number     Number              X              Y              Z
 -------------------------------------------------------------------
      1        6           0.000074293    0.000006528   -0.000000000
      2        6           0.000000043   -0.000025263   -0.000000000
      3        6          -0.000011822    0.000060186   -0.000000000
      4        6           0.000133608   -0.000036078   -0.000000000
      5        6          -0.000055781    0.000021533    0.000000000
      6        6          -0.000053079    0.000014766    0.000000000
      7        1          -0.000003748    0.000015352    0.000000000
      8        1          -0.000067285    0.000050032    0.000000000
      9       17           0.000017882   -0.000066818   -0.000000000
     10        1          -0.000005484   -0.000022341    0.000000000
     11        1          -0.000028626   -0.000017898    0.000000000
 -------------------------------------------------------------------
 Cartesian Forces:  Max     0.000133608 RMS     0.000038714

 GradGradGradGradGradGradGradGradGradGradGradGradGradGradGradGradGradGrad
 Berny optimization.
 Using GEDIIS/GDIIS optimizer.
 FormGI is forming the generalized inverse of G from B-inverse, IUseBI=4.
 Internal  Forces:  Max     0.000082991 RMS     0.000024966
 Search for a local minimum.
 Step number  11 out of a maximum of   57
 All quantities printed in internal units (Hartrees-Bohrs-Radians)
 Mixed Optimization -- En-DIIS/RFO-DIIS
 Update second derivatives using D2CorX and points    5    7    6    8   10
                                                      9   11
 DE= -1.71D-05 DEPred=-1.56D-05 R= 1.10D+00
 TightC=F SS=  1.41D+00  RLast= 9.67D-03 DXNew= 3.5676D-01 2.9011D-02
 Trust test= 1.10D+00 RLast= 9.67D-03 DXMaxT set to 2.12D-01
 ITU=  1 -1  1  0 -1  0  1  0  0  1  0
 Use linear search instead of GDIIS.
     Eigenvalues ---    0.02011   0.02011   0.02011   0.02011   0.02011
     Eigenvalues ---    0.02011   0.02011   0.02011   0.06532   0.15262
     Eigenvalues ---    0.15987   0.16000   0.16016   0.17705   0.21620
     Eigenvalues ---    0.23821   0.24878   0.27362   0.34109   0.34820
     Eigenvalues ---    0.36921   0.42425   0.43315   0.44653   0.45089
     Eigenvalues ---    0.45813   0.78878
 RFO step:  Lambda=-1.38527096D-07 EMin= 2.01065606D-02
 Quartic linear search produced a step of  0.00090.
 Iteration  1 RMS(Cart)=  0.00015710 RMS(Int)=  0.00000001
 Iteration  2 RMS(Cart)=  0.00000001 RMS(Int)=  0.00000000
 ClnCor:  largest displacement from symmetrization is 3.78D-13 for atom     8.
 Variable       Old X    -DE/DX   Delta X   Delta X   Delta X     New X
                                 (Linear)    (Quad)   (Total)
    R1        2.63612  -0.00005  -0.00000  -0.00010  -0.00010   2.63602
    R2        2.63655   0.00001  -0.00000   0.00002   0.00002   2.63657
    R3        2.07738   0.00001  -0.00000   0.00060   0.00060   2.07797
    R4        2.64268  -0.00005   0.00000  -0.00011  -0.00011   2.64257
    R5        2.07747  -0.00002   0.00001  -0.00007  -0.00007   2.07740
    R6        2.63831   0.00001  -0.00000   0.00004   0.00004   2.63836
    R7        2.07339  -0.00003   0.00000  -0.00005  -0.00004   2.07335
    R8        2.64193   0.00007  -0.00000   0.00016   0.00016   2.64209
    R9        2.07557  -0.00008  -0.00000  -0.00082  -0.00082   2.07475
   R10        2.62064   0.00003   0.00000   0.00007   0.00007   2.62071
   R11        3.28188   0.00007  -0.00000   0.00027   0.00027   3.28215
    A1        2.12635   0.00003   0.00000   0.00008   0.00008   2.12643
    A2        2.08010  -0.00003  -0.00000  -0.00011  -0.00011   2.07999
    A3        2.07674  -0.00000  -0.00000   0.00003   0.00003   2.07676
    A4        2.09261   0.00002  -0.00000   0.00005   0.00005   2.09266
    A5        2.11101  -0.00002   0.00000  -0.00007  -0.00007   2.11095
    A6        2.07956  -0.00000   0.00000   0.00001   0.00001   2.07958
    A7        2.09083   0.00000  -0.00000  -0.00001  -0.00001   2.09082
    A8        2.09960   0.00000   0.00000   0.00001   0.00001   2.09962
    A9        2.09275  -0.00000   0.00000   0.00000   0.00000   2.09275
   A10        2.06335  -0.00001   0.00000  -0.00004  -0.00004   2.06331
   A11        2.09227  -0.00001  -0.00000  -0.00007  -0.00007   2.09220
   A12        2.12757   0.00002  -0.00000   0.00010   0.00010   2.12767
   A13        2.15836  -0.00001  -0.00000   0.00001   0.00001   2.15837
   A14        2.04142  -0.00002  -0.00000  -0.00011  -0.00011   2.04131
   A15        2.08341   0.00003   0.00000   0.00009   0.00009   2.08350
   A16        2.03487  -0.00003  -0.00000  -0.00010  -0.00010   2.03477
    D1        0.00000   0.00000   0.00000   0.00000   0.00000   0.00000
    D2        3.14159   0.00000   0.00000   0.00000   0.00000   3.14159
    D3        3.14159  -0.00000   0.00000  -0.00000   0.00000   3.14159
    D4        0.00000  -0.00000   0.00000  -0.00000   0.00000   0.00000
    D5        0.00000  -0.00000   0.00000  -0.00000   0.00000   0.00000
    D6        3.14159   0.00000   0.00000   0.00000   0.00000   3.14159
    D7        0.00000  -0.00000   0.00000  -0.00000   0.00000   0.00000
    D8        3.14159   0.00000   0.00000   0.00000   0.00000   3.14159
    D9        3.14159  -0.00000   0.00000  -0.00000   0.00000   3.14159
   D10        0.00000  -0.00000   0.00000  -0.00000   0.00000   0.00000
   D11        0.00000   0.00000   0.00000   0.00000   0.00000   0.00000
   D12        3.14159   0.00000   0.00000   0.00000   0.00000   3.14159
   D13        3.14159  -0.00000   0.00000  -0.00000   0.00000   3.14159
   D14        0.00000  -0.00000   0.00000  -0.00000   0.00000   0.00000
   D15        0.00000  -0.00000   0.00000  -0.00000   0.00000   0.00000
   D16        3.14159   0.00000   0.00000   0.00000   0.00000   3.14159
   D17        3.14159  -0.00000   0.00000  -0.00000   0.00000   3.14159
   D18        0.00000  -0.00000   0.00000  -0.00000   0.00000   0.00000
   D19        0.00000   0.00000   0.00000   0.00000   0.00000   0.00000
   D20        3.14159  -0.00000   0.00000  -0.00000   0.00000   3.14159
         Item               Value     Threshold  Converged?
 Maximum Force            0.000083     0.000450     YES
 RMS     Force            0.000025     0.000300     YES
 Maximum Displacement     0.000512     0.001800     YES
 RMS     Displacement     0.000157     0.001200     YES
 Predicted change in Energy=-6.927694D-08
 Optimization completed.
    -- Stationary point found.
                           ----------------------------
                           !   Optimized Parameters   !
                           ! (Angstroms and Degrees)  !
 --------------------------                            --------------------------
 ! Name  Definition              Value          Derivative Info.                !
 --------------------------------------------------------------------------------
 ! R1    R(1,2)                  1.395          -DE/DX =    0.0                 !
 ! R2    R(1,6)                  1.3952         -DE/DX =    0.0                 !
 ! R3    R(1,7)                  1.0993         -DE/DX =    0.0                 !
 ! R4    R(2,3)                  1.3984         -DE/DX =   -0.0001              !
 ! R5    R(2,10)                 1.0994         -DE/DX =    0.0                 !
 ! R6    R(3,4)                  1.3961         -DE/DX =    0.0                 !
 ! R7    R(3,11)                 1.0972         -DE/DX =    0.0                 !
 ! R8    R(4,5)                  1.398          -DE/DX =    0.0001              !
 ! R9    R(4,8)                  1.0983         -DE/DX =   -0.0001              !
 ! R10   R(5,6)                  1.3868         -DE/DX =    0.0                 !
 ! R11   R(5,9)                  1.7367         -DE/DX =    0.0001              !
 ! A1    A(2,1,6)              121.8309         -DE/DX =    0.0                 !
 ! A2    A(2,1,7)              119.1809         -DE/DX =    0.0                 !
 ! A3    A(6,1,7)              118.9882         -DE/DX =    0.0                 !
 ! A4    A(1,2,3)              119.8977         -DE/DX =    0.0                 !
 ! A5    A(1,2,10)             120.9521         -DE/DX =    0.0                 !
 ! A6    A(3,2,10)             119.1502         -DE/DX =    0.0                 !
 ! A7    A(2,3,4)              119.7957         -DE/DX =    0.0                 !
 ! A8    A(2,3,11)             120.2985         -DE/DX =    0.0                 !
 ! A9    A(4,3,11)             119.9058         -DE/DX =    0.0                 !
 ! A10   A(3,4,5)              118.2212         -DE/DX =    0.0                 !
 ! A11   A(3,4,8)              119.8782         -DE/DX =    0.0                 !
 ! A12   A(5,4,8)              121.9006         -DE/DX =    0.0                 !
 ! A13   A(4,5,6)              123.6649         -DE/DX =    0.0                 !
 ! A14   A(4,5,9)              116.9648         -DE/DX =    0.0                 !
 ! A15   A(6,5,9)              119.3704         -DE/DX =    0.0                 !
 ! A16   A(1,6,5)              116.5897         -DE/DX =    0.0                 !
 ! D1    D(6,1,2,3)              0.0            -DE/DX =    0.0                 !
 ! D2    D(6,1,2,10)           180.0            -DE/DX =    0.0                 !
 ! D3    D(7,1,2,3)            180.0            -DE/DX =    0.0                 !
 ! D4    D(7,1,2,10)             0.0            -DE/DX =    0.0                 !
 ! D5    D(2,1,6,5)              0.0            -DE/DX =    0.0                 !
 ! D6    D(7,1,6,5)            180.0            -DE/DX =    0.0                 !
 ! D7    D(1,2,3,4)              0.0            -DE/DX =    0.0                 !
 ! D8    D(1,2,3,11)           180.0            -DE/DX =    0.0                 !
 ! D9    D(10,2,3,4)           180.0            -DE/DX =    0.0                 !
 ! D10   D(10,2,3,11)            0.0            -DE/DX =    0.0                 !
 ! D11   D(2,3,4,5)              0.0            -DE/DX =    0.0                 !
 ! D12   D(2,3,4,8)            180.0            -DE/DX =    0.0                 !
 ! D13   D(11,3,4,5)           180.0            -DE/DX =    0.0                 !
 ! D14   D(11,3,4,8)             0.0            -DE/DX =    0.0                 !
 ! D15   D(3,4,5,6)              0.0            -DE/DX =    0.0                 !
 ! D16   D(3,4,5,9)            180.0            -DE/DX =    0.0                 !
 ! D17   D(8,4,5,6)            180.0            -DE/DX =    0.0                 !
 ! D18   D(8,4,5,9)              0.0            -DE/DX =    0.0                 !
 ! D19   D(4,5,6,1)              0.0            -DE/DX =    0.0                 !
 ! D20   D(9,5,6,1)            180.0            -DE/DX =    0.0                 !
 --------------------------------------------------------------------------------
 GradGradGradGradGradGradGradGradGradGradGradGradGradGradGradGradGradGrad

                          Input orientation:                          
 ---------------------------------------------------------------------
 Center     Atomic      Atomic             Coordinates (Angstroms)
 Number     Number       Type             X           Y           Z
 ---------------------------------------------------------------------
      1          6           0       -3.144659    0.274581   -0.000000
      2          6           0       -1.958429    1.008617   -0.000000
      3          6           0       -0.727748    0.344487   -0.000000
      4          6           0       -0.692603   -1.051206   -0.000000
      5          6           0       -1.907430   -1.743110   -0.000000
      6          6           0       -3.146651   -1.120618   -0.000000
      7          1           0       -4.105477    0.808707   -0.000000
      8          1           0        0.273227   -1.574208   -0.000000
      9         17           0       -1.825655   -3.477879   -0.000000
     10          1           0       -1.973720    2.107861   -0.000000
     11          1           0        0.209276    0.915288   -0.000000
 ---------------------------------------------------------------------
                    Distance matrix (angstroms):
                    1          2          3          4          5
     1  C    0.000000
     2  C    1.394973   0.000000
     3  C    2.417923   1.398444   0.000000
     4  C    2.787525   2.417682   1.396136   0.000000
     5  C    2.366815   2.752199   2.397855   1.398047   0.000000
     6  C    1.395201   2.438342   2.828007   2.455030   1.386782
     7  H    1.099300   2.156335   3.409480   3.886771   3.367963
     8  H    3.885868   3.413397   2.164103   1.098344   2.187189
     9  Cl   3.977529   4.488460   3.976919   2.678162   1.736696
    10  H    2.175319   1.099351   2.159152   3.408954   3.851541
    11  H    3.414584   2.169713   1.097190   2.163443   3.398164
                    6          7          8          9         10
     6  C    0.000000
     7  H    2.154447   0.000000
     8  H    3.449828   4.985111   0.000000
     9  Cl   2.702168   4.855142   2.833597   0.000000
    10  H    3.434944   2.496436   4.313515   5.587703   0.000000
    11  H    3.925195   4.316069   2.490318   4.841577   2.487509
                   11
    11  H    0.000000
 Stoichiometry    C6H4Cl(1-)
 Framework group  CS[SG(C6H4Cl)]
 Deg. of freedom    19
 Full point group                 CS      NOp   2
 Largest Abelian subgroup         CS      NOp   2
 Largest concise Abelian subgroup C1      NOp   1
                         Standard orientation:                         
 ---------------------------------------------------------------------
 Center     Atomic      Atomic             Coordinates (Angstroms)
 Number     Number       Type             X           Y           Z
 ---------------------------------------------------------------------
      1          6           0       -1.415498   -1.390097    0.000000
      2          6           0       -0.300895   -2.228911    0.000000
      3          6           0        0.985056   -1.679388    0.000000
      4          6           0        1.146911   -0.292666    0.000000
      5          6           0        0.000000    0.506790    0.000000
      6          6           0       -1.290670   -0.000492    0.000000
      7          1           0       -2.420886   -1.834682    0.000000
      8          1           0        2.156280    0.140386    0.000000
      9         17           0        0.239111    2.226947    0.000000
     10          1           0       -0.416034   -3.322216    0.000000
     11          1           0        1.866321   -2.332994    0.000000
 ---------------------------------------------------------------------
 Rotational constants (GHZ):           5.9238755           1.5947499           1.2564929

 **********************************************************************

            Population analysis using the SCF Density.

 **********************************************************************

 Orbital symmetries:
       Occupied  (A') (A') (A') (A') (A') (A') (A') (A') (A') (A')
                 (A") (A') (A") (A') (A') (A") (A") (A')
       Virtual   (A") (A") (A') (A') (A") (A') (A') (A') (A') (A')
                 (A') (A') (A') (A')
 The electronic state is 1-A'.
 Alpha  occ. eigenvalues --   -1.24308  -1.17830  -0.95889  -0.92822  -0.65858
 Alpha  occ. eigenvalues --   -0.63984  -0.47015  -0.40516  -0.38440  -0.34955
 Alpha  occ. eigenvalues --   -0.33074  -0.31131  -0.27413  -0.27059  -0.24339
 Alpha  occ. eigenvalues --   -0.16996  -0.14640  -0.09494
 Alpha virt. eigenvalues --    0.19940   0.21671   0.24265   0.31022   0.31152
 Alpha virt. eigenvalues --    0.31830   0.32410   0.34439   0.36617   0.36798
 Alpha virt. eigenvalues --    0.37992   0.38913   0.41978   0.43214
          Condensed to atoms (all electrons):
               1          2          3          4          5          6
     1  C    4.155693   0.000000   0.000000   0.000000   0.000000   0.000000
     2  C    0.000000   4.168995   0.000000   0.000000   0.000000   0.000000
     3  C    0.000000   0.000000   4.222442   0.000000   0.000000   0.000000
     4  C    0.000000   0.000000   0.000000   4.158048   0.000000   0.000000
     5  C    0.000000   0.000000   0.000000   0.000000   4.063694   0.000000
     6  C    0.000000   0.000000   0.000000   0.000000   0.000000   4.383772
     7  H    0.000000   0.000000   0.000000   0.000000   0.000000   0.000000
     8  H    0.000000   0.000000   0.000000   0.000000   0.000000   0.000000
     9  Cl   0.000000   0.000000   0.000000   0.000000   0.000000   0.000000
    10  H    0.000000   0.000000   0.000000   0.000000   0.000000   0.000000
    11  H    0.000000   0.000000   0.000000   0.000000   0.000000   0.000000
               7          8          9         10         11
     1  C    0.000000   0.000000   0.000000   0.000000   0.000000
     2  C    0.000000   0.000000   0.000000   0.000000   0.000000
     3  C    0.000000   0.000000   0.000000   0.000000   0.000000
     4  C    0.000000   0.000000   0.000000   0.000000   0.000000
     5  C    0.000000   0.000000   0.000000   0.000000   0.000000
     6  C    0.000000   0.000000   0.000000   0.000000   0.000000
     7  H    0.919668   0.000000   0.000000   0.000000   0.000000
     8  H    0.000000   0.911911   0.000000   0.000000   0.000000
     9  Cl   0.000000   0.000000   7.165861   0.000000   0.000000
    10  H    0.000000   0.000000   0.000000   0.928602   0.000000
    11  H    0.000000   0.000000   0.000000   0.000000   0.921314
 Mulliken charges:
               1
     1  C   -0.155693
     2  C   -0.168995
     3  C   -0.222442
     4  C   -0.158048
     5  C   -0.063694
     6  C   -0.383772
     7  H    0.080332
     8  H    0.088089
     9  Cl  -0.165861
    10  H    0.071398
    11  H    0.078686
 Sum of Mulliken charges =  -1.00000
 Mulliken charges with hydrogens summed into heavy atoms:
               1
     1  C   -0.075361
     2  C   -0.097597
     3  C   -0.143756
     4  C   -0.069959
     5  C   -0.063694
     6  C   -0.383772
     9  Cl  -0.165861
 Charge=             -1.0000 electrons
 Dipole moment (field-independent basis, Debye):
    X=              3.8216    Y=             -0.8572    Z=              0.0000  Tot=              3.9165
 N-N= 1.527429872612D+02 E-N=-2.170470963311D+02  KE=-7.019227693459D+01
 Symmetry A'   KE=-5.535037814602D+01
 Symmetry A"   KE=-1.484189878857D+01
 1\1\GINC-SH03-01N34\FOpt\RAM1\ZDO\C6H4Cl1(1-)\JLAPIER\08-Dec-2025\0\\#
  opt am1 SCF(maxcyc=10000)\\Anion Intermediate (removed 1) _4\\-1,1\C,
 -3.1446593559,0.2745813904,0.\C,-1.9584291825,1.0086168635,0.\C,-0.727
 7475974,0.3444870332,0.\C,-0.6926028726,-1.051206198,0.\C,-1.907430211
 4,-1.7431095166,0.\C,-3.1466509564,-1.120617813,0.\H,-4.1054772169,0.8
 087065098,0.\H,0.2732272904,-1.5742082304,0.\Cl,-1.8256553827,-3.47787
 93575,0.\H,-1.9737201817,2.1078611927,0.\H,0.2092756669,0.915288126,0.
 \\Version=ES64L-G16RevB.01\State=1-A'\HF=0.0656626\RMSD=5.852e-09\RMSF
 =3.871e-05\Dipole=1.5279501,0.1991882,0.\PG=CS [SG(C6H4Cl1)]\\@


 HE WHO LAUGHS LAST PROBABLY DIDN'T GET THE JOKE.
 Job cpu time:       0 days  0 hours  0 minutes  3.8 seconds.
 Elapsed time:       0 days  0 hours  0 minutes 26.1 seconds.
 File lengths (MBytes):  RWF=     10 Int=      0 D2E=      0 Chk=      2 Scr=      1
 Normal termination of Gaussian 16 at Mon Dec  8 17:08:58 2025.
