 Entering Gaussian System, Link 0=g16
 Initial command:
 /share/software/user/restricted/gaussian/g16.B01/l1.exe "/home/users/jlapier/Chloroaromatics/Gau-16876.inp" -scrdir="/home/users/jlapier/Chloroaromatics/"
 Entering Link 1 = /share/software/user/restricted/gaussian/g16.B01/l1.exe PID=     16878.
  
 Copyright (c) 1988-2017, Gaussian, Inc.  All Rights Reserved.
  
 This is part of the Gaussian(R) 16 program.  It is based on
 the Gaussian(R) 09 system (copyright 2009, Gaussian, Inc.),
 the Gaussian(R) 03 system (copyright 2003, Gaussian, Inc.),
 the Gaussian(R) 98 system (copyright 1998, Gaussian, Inc.),
 the Gaussian(R) 94 system (copyright 1995, Gaussian, Inc.),
 the Gaussian 92(TM) system (copyright 1992, Gaussian, Inc.),
 the Gaussian 90(TM) system (copyright 1990, Gaussian, Inc.),
 the Gaussian 88(TM) system (copyright 1988, Gaussian, Inc.),
 the Gaussian 86(TM) system (copyright 1986, Carnegie Mellon
 University), and the Gaussian 82(TM) system (copyright 1983,
 Carnegie Mellon University). Gaussian is a federally registered
 trademark of Gaussian, Inc.
  
 This software contains proprietary and confidential information,
 including trade secrets, belonging to Gaussian, Inc.
  
 This software is provided under written license and may be
 used, copied, transmitted, or stored only in accord with that
 written license.
  
 The following legend is applicable only to US Government
 contracts under FAR:
  
                    RESTRICTED RIGHTS LEGEND
  
 Use, reproduction and disclosure by the US Government is
 subject to restrictions as set forth in subparagraphs (a)
 and (c) of the Commercial Computer Software - Restricted
 Rights clause in FAR 52.227-19.
  
 Gaussian, Inc.
 340 Quinnipiac St., Bldg. 40, Wallingford CT 06492
  
  
 ---------------------------------------------------------------
 Warning -- This program may not be used in any manner that
 competes with the business of Gaussian, Inc. or will provide
 assistance to any competitor of Gaussian, Inc.  The licensee
 of this program is prohibited from giving any competitor of
 Gaussian, Inc. access to this program.  By using this program,
 the user acknowledges that Gaussian, Inc. is engaged in the
 business of creating and licensing software in the field of
 computational chemistry and represents and warrants to the
 licensee that it is not a competitor of Gaussian, Inc. and that
 it will not use this program in any manner prohibited above.
 ---------------------------------------------------------------
  

 Cite this work as:
 Gaussian 16, Revision B.01,
 M. J. Frisch, G. W. Trucks, H. B. Schlegel, G. E. Scuseria, 
 M. A. Robb, J. R. Cheeseman, G. Scalmani, V. Barone, 
 G. A. Petersson, H. Nakatsuji, X. Li, M. Caricato, A. V. Marenich, 
 J. Bloino, B. G. Janesko, R. Gomperts, B. Mennucci, H. P. Hratchian, 
 J. V. Ortiz, A. F. Izmaylov, J. L. Sonnenberg, D. Williams-Young, 
 F. Ding, F. Lipparini, F. Egidi, J. Goings, B. Peng, A. Petrone, 
 T. Henderson, D. Ranasinghe, V. G. Zakrzewski, J. Gao, N. Rega, 
 G. Zheng, W. Liang, M. Hada, M. Ehara, K. Toyota, R. Fukuda, 
 J. Hasegawa, M. Ishida, T. Nakajima, Y. Honda, O. Kitao, H. Nakai, 
 T. Vreven, K. Throssell, J. A. Montgomery, Jr., J. E. Peralta, 
 F. Ogliaro, M. J. Bearpark, J. J. Heyd, E. N. Brothers, K. N. Kudin, 
 V. N. Staroverov, T. A. Keith, R. Kobayashi, J. Normand, 
 K. Raghavachari, A. P. Rendell, J. C. Burant, S. S. Iyengar, 
 J. Tomasi, M. Cossi, J. M. Millam, M. Klene, C. Adamo, R. Cammi, 
 J. W. Ochterski, R. L. Martin, K. Morokuma, O. Farkas, 
 J. B. Foresman, and D. J. Fox, Gaussian, Inc., Wallingford CT, 2016.
 
 ******************************************
 Gaussian 16:  ES64L-G16RevB.01 20-Dec-2017
                 8-Dec-2025 
 ******************************************
 %mem=2GB
 %nprocshare=1
 Will use up to    1 processors via shared memory.
 %chk=geometry_chks/_ClBzNeutralRadical.chk
 ---------
 # opt am1
 ---------
 1/18=20,19=15,26=1,38=1/1,3;
 2/9=110,12=2,17=6,18=5,40=1/2;
 3/5=2,25=1,41=700000,71=1/1,2,3;
 4/35=1/1;
 5/5=2,35=1,38=5/2;
 6/7=2,8=2,9=2,10=2,28=1/1;
 7//1,2,3,16;
 1/18=20,19=15,26=1/3(2);
 2/9=110/2;
 99//99;
 2/9=110/2;
 3/5=2,25=1,41=700000,71=1,135=20/1,2,3;
 4/5=5,16=3,35=1/1;
 5/5=2,35=1,38=5/2;
 7//1,2,3,16;
 1/18=20,19=15,26=1/3(-5);
 2/9=110/2;
 6/7=2,8=2,9=2,10=2,19=2,28=1/1;
 99/9=1/99;
 -----------------------------
 Neutral Radical (removed 1) _
 -----------------------------
 Symbolic Z-matrix:
 Charge =  0 Multiplicity = 2
 C                    -3.20928   0.19943   0. 
 C                    -2.0115    0.93555   0. 
 C                    -0.77511   0.2663    0. 
 C                    -0.7365   -1.13907   0. 
 C                    -1.93429  -1.87519   0. 
 C                    -3.17067  -1.20594   0. 
 H                    -4.76193   1.03987   0. 
 H                     0.81614  -1.97951   0. 
 H                    -1.8858   -3.64003   0. 
 H                    -2.05998   2.7004    0. 
 H                     0.72905   1.19071   0. 
 
 Add virtual bond connecting atoms H9         and C5         Dist= 3.34D+00.
 Add virtual bond connecting atoms H8         and C4         Dist= 3.34D+00.
 Add virtual bond connecting atoms H11        and C3         Dist= 3.34D+00.
 Add virtual bond connecting atoms H10        and C2         Dist= 3.34D+00.
 Add virtual bond connecting atoms H7         and C1         Dist= 3.34D+00.

 GradGradGradGradGradGradGradGradGradGradGradGradGradGradGradGradGradGrad
 Berny optimization.
 Initialization pass.
                           ----------------------------
                           !    Initial Parameters    !
                           ! (Angstroms and Degrees)  !
 --------------------------                            --------------------------
 ! Name  Definition              Value          Derivative Info.                !
 --------------------------------------------------------------------------------
 ! R1    R(1,2)                  1.4059         estimate D2E/DX2                !
 ! R2    R(1,6)                  1.4059         estimate D2E/DX2                !
 ! R3    R(1,7)                  1.7655         estimate D2E/DX2                !
 ! R4    R(2,3)                  1.4059         estimate D2E/DX2                !
 ! R5    R(2,10)                 1.7655         estimate D2E/DX2                !
 ! R6    R(3,4)                  1.4059         estimate D2E/DX2                !
 ! R7    R(3,11)                 1.7655         estimate D2E/DX2                !
 ! R8    R(4,5)                  1.4059         estimate D2E/DX2                !
 ! R9    R(4,8)                  1.7655         estimate D2E/DX2                !
 ! R10   R(5,6)                  1.4059         estimate D2E/DX2                !
 ! R11   R(5,9)                  1.7655         estimate D2E/DX2                !
 ! A1    A(2,1,6)              119.9999         estimate D2E/DX2                !
 ! A2    A(2,1,7)              119.9999         estimate D2E/DX2                !
 ! A3    A(6,1,7)              120.0001         estimate D2E/DX2                !
 ! A4    A(1,2,3)              120.0            estimate D2E/DX2                !
 ! A5    A(1,2,10)             120.0001         estimate D2E/DX2                !
 ! A6    A(3,2,10)             119.9999         estimate D2E/DX2                !
 ! A7    A(2,3,4)              120.0001         estimate D2E/DX2                !
 ! A8    A(2,3,11)             120.0            estimate D2E/DX2                !
 ! A9    A(4,3,11)             119.9999         estimate D2E/DX2                !
 ! A10   A(3,4,5)              119.9997         estimate D2E/DX2                !
 ! A11   A(3,4,8)              120.0003         estimate D2E/DX2                !
 ! A12   A(5,4,8)              120.0            estimate D2E/DX2                !
 ! A13   A(4,5,6)              120.0            estimate D2E/DX2                !
 ! A14   A(4,5,9)              119.9996         estimate D2E/DX2                !
 ! A15   A(6,5,9)              120.0004         estimate D2E/DX2                !
 ! A16   A(1,6,5)              120.0003         estimate D2E/DX2                !
 ! D1    D(6,1,2,3)              0.0            estimate D2E/DX2                !
 ! D2    D(6,1,2,10)           180.0            estimate D2E/DX2                !
 ! D3    D(7,1,2,3)            180.0            estimate D2E/DX2                !
 ! D4    D(7,1,2,10)             0.0            estimate D2E/DX2                !
 ! D5    D(2,1,6,5)              0.0            estimate D2E/DX2                !
 ! D6    D(7,1,6,5)            180.0            estimate D2E/DX2                !
 ! D7    D(1,2,3,4)              0.0            estimate D2E/DX2                !
 ! D8    D(1,2,3,11)           180.0            estimate D2E/DX2                !
 ! D9    D(10,2,3,4)           180.0            estimate D2E/DX2                !
 ! D10   D(10,2,3,11)            0.0            estimate D2E/DX2                !
 ! D11   D(2,3,4,5)              0.0            estimate D2E/DX2                !
 ! D12   D(2,3,4,8)            180.0            estimate D2E/DX2                !
 ! D13   D(11,3,4,5)           180.0            estimate D2E/DX2                !
 ! D14   D(11,3,4,8)             0.0            estimate D2E/DX2                !
 ! D15   D(3,4,5,6)              0.0            estimate D2E/DX2                !
 ! D16   D(3,4,5,9)            180.0            estimate D2E/DX2                !
 ! D17   D(8,4,5,6)            180.0            estimate D2E/DX2                !
 ! D18   D(8,4,5,9)              0.0            estimate D2E/DX2                !
 ! D19   D(4,5,6,1)              0.0            estimate D2E/DX2                !
 ! D20   D(9,5,6,1)            180.0            estimate D2E/DX2                !
 --------------------------------------------------------------------------------
 Trust Radius=3.00D-01 FncErr=1.00D-07 GrdErr=1.00D-07 EigMax=2.50D+02 EigMin=1.00D-04
 Number of steps in this run=     57 maximum allowed number of steps=    100.
 GradGradGradGradGradGradGradGradGradGradGradGradGradGradGradGradGradGrad

                          Input orientation:                          
 ---------------------------------------------------------------------
 Center     Atomic      Atomic             Coordinates (Angstroms)
 Number     Number       Type             X           Y           Z
 ---------------------------------------------------------------------
      1          6           0       -3.209280    0.199430    0.000000
      2          6           0       -2.011500    0.935550    0.000000
      3          6           0       -0.775110    0.266300    0.000000
      4          6           0       -0.736500   -1.139070    0.000000
      5          6           0       -1.934290   -1.875190    0.000000
      6          6           0       -3.170670   -1.205940    0.000000
      7          1           0       -4.761930    1.039870    0.000000
      8          1           0        0.816140   -1.979510    0.000000
      9          1           0       -1.885800   -3.640030    0.000000
     10          1           0       -2.059980    2.700400    0.000000
     11          1           0        0.729050    1.190710    0.000000
 ---------------------------------------------------------------------
                    Distance matrix (angstroms):
                    1          2          3          4          5
     1  C    0.000000
     2  C    1.405898   0.000000
     3  C    2.435088   1.405900   0.000000
     4  C    2.811801   2.435092   1.405900   0.000000
     5  C    2.435087   2.811800   2.435093   1.405907   0.000000
     6  C    1.405900   2.435088   2.811796   2.435088   1.405892
     7  H    1.765520   2.752408   4.061175   4.577321   4.061173
     8  H    4.577312   4.061173   2.752406   1.765511   2.752408
     9  H    4.061164   4.577306   4.061163   2.752397   1.765506
    10  H    2.752406   1.765516   2.752405   4.061173   4.577316
    11  H    4.061167   2.752403   1.765512   2.752401   4.061173
                    6          7          8          9         10
     6  C    0.000000
     7  H    2.752412   0.000000
     8  H    4.061165   6.342832   0.000000
     9  H    2.752396   5.493049   3.171404   0.000000
    10  H    4.061173   3.171418   5.493052   6.342822   0.000000
    11  H    4.577308   5.493051   3.171416   5.493040   3.171412
                   11
    11  H    0.000000
 Stoichiometry    C6H5(2)
 Framework group  CS[SG(C6H5)]
 Deg. of freedom    19
 Full point group                 CS      NOp   2
 Largest Abelian subgroup         CS      NOp   2
 Largest concise Abelian subgroup C1      NOp   1
                         Standard orientation:                         
 ---------------------------------------------------------------------
 Center     Atomic      Atomic             Coordinates (Angstroms)
 Number     Number       Type             X           Y           Z
 ---------------------------------------------------------------------
      1          6           0        1.284531   -0.664276    0.000000
      2          6           0        0.066987   -1.367224    0.000000
      3          6           0       -1.150557   -0.664272    0.000000
      4          6           0       -1.150557    0.741628    0.000000
      5          6           0        0.066997    1.444576    0.000000
      6          6           0        1.284531    0.741624    0.000000
      7          1           0        2.813514   -1.547040    0.000000
      8          1           0       -2.679531    1.624391    0.000000
      9          1           0        0.066992    3.210082    0.000000
     10          1           0        0.066981   -3.132740    0.000000
     11          1           0       -2.679537   -1.547025    0.000000
 ---------------------------------------------------------------------
 Rotational constants (GHZ):           5.5355837           4.9758856           2.6204168
 Standard basis: VSTO-6G (5D, 7F)
 There are    23 symmetry adapted cartesian basis functions of A'  symmetry.
 There are     6 symmetry adapted cartesian basis functions of A"  symmetry.
 There are    23 symmetry adapted basis functions of A'  symmetry.
 There are     6 symmetry adapted basis functions of A"  symmetry.
    29 basis functions,   174 primitive gaussians,    29 cartesian basis functions
    15 alpha electrons       14 beta electrons
       nuclear repulsion energy       107.7740489911 Hartrees.
 Integral buffers will be    131072 words long.
 Regular integral format.
 Two-electron integral symmetry is turned off.
 Do NDO integrals.
 One-electron integrals computed using PRISM.
 NBasis=    29 RedAO= T EigKep=  1.00D+00  NBF=    23     6
 NBsUse=    29 1.00D-06 EigRej= -1.00D+00 NBFU=    23     6
 Simple Huckel Guess.
 Initial guess orbital symmetries:
 Alpha Orbitals:
       Occupied  (A') (A') (A') (A') (A') (A') (A') (A") (A') (A')
                 (A') (A') (A") (A") (A')
       Virtual   (A') (A') (A") (A") (A') (A') (A') (A") (A') (A')
                 (A') (A') (A') (A')
 Beta  Orbitals:
       Occupied  (A') (A') (A') (A') (A') (A') (A') (A") (A') (A')
                 (A') (A') (A") (A")
       Virtual   (A') (A') (A') (A") (A") (A') (A') (A') (A") (A')
                 (A') (A') (A') (A') (A')
 The electronic state of the initial guess is 2-A'.
 Initial guess <Sx>= 0.0000 <Sy>= 0.0000 <Sz>= 0.5000 <S**2>= 0.7500 S= 0.5000
 Keep J ints in memory in canonical form, NReq=861446.
 Overlap will be assumed to be unity.
 Requested convergence on RMS density matrix=1.00D-08 within 128 cycles.
 Requested convergence on MAX density matrix=1.00D-06.
 Requested convergence on             energy=1.00D-06.
 No special actions if energy rises.
 Fock symm off for IB=2 I1=    1 I=   24 J=    4 Cut=1.00D-07 Err=1.43D-02
 Fock matrix is not symmetric: symmetry in diagonalization turned off.
 Rare condition: small coef for last iteration:  0.000D+00
 Rare condition: small coef for last iteration:  0.000D+00
 Rare condition: small coef for last iteration:  0.000D+00
 Rare condition: small coef for last iteration:  0.000D+00
 Rare condition: small coef for last iteration:  0.000D+00
 Rare condition: small coef for last iteration:  0.000D+00
 Rare condition: small coef for last iteration:  0.000D+00
 Rare condition: small coef for last iteration:  0.000D+00
 SCF Done:  E(UAM1) =  0.737700348376     A.U. after   55 cycles
            NFock= 54  Conv=0.98D-08     -V/T= 1.0160
 <Sx>= 0.0000 <Sy>= 0.0000 <Sz>= 0.5000 <S**2>= 1.1025 S= 0.6630
 <L.S>=  0.00000000000    
 Annihilation of the first spin contaminant:
 S**2 before annihilation     1.1025,   after     0.8433

 **********************************************************************

            Population analysis using the SCF Density.

 **********************************************************************

 Orbital symmetries:
 Alpha Orbitals:
       Occupied  (A') (A') (A') (A') (A') (A') (A') (A") (A') (A')
                 (A') (A') (A') (A") (A")
       Virtual   (A') (A') (A') (A") (A") (A') (A') (A") (A') (A')
                 (A') (A') (A') (A')
 Beta  Orbitals:
       Occupied  (A') (A') (A') (A') (A') (A') (A') (A") (A') (A')
                 (A') (A') (A") (A")
       Virtual   (A') (A') (A") (A') (A') (A") (A') (A') (A") (A')
                 (A') (A') (A') (A') (A')
 The electronic state is 2-A'.
 Alpha  occ. eigenvalues --   -1.36922  -1.07241  -1.06289  -0.76598  -0.75774
 Alpha  occ. eigenvalues --   -0.54731  -0.50776  -0.47577  -0.43825  -0.41857
 Alpha  occ. eigenvalues --   -0.41333  -0.36087  -0.34832  -0.34666  -0.33516
 Alpha virt. eigenvalues --   -0.00127   0.01522   0.01927   0.02377   0.03766
 Alpha virt. eigenvalues --    0.03936   0.05295   0.12015   0.17606   0.17639
 Alpha virt. eigenvalues --    0.20183   0.20682   0.20907   0.22868
  Beta  occ. eigenvalues --   -1.36602  -1.07181  -1.05451  -0.76495  -0.74853
  Beta  occ. eigenvalues --   -0.54468  -0.49943  -0.47414  -0.43322  -0.41636
  Beta  occ. eigenvalues --   -0.38227  -0.34810  -0.34644  -0.33172
  Beta virt. eigenvalues --   -0.00931   0.00963   0.02543   0.02950   0.03198
  Beta virt. eigenvalues --    0.03960   0.05366   0.05602   0.12279   0.17843
  Beta virt. eigenvalues --    0.17875   0.20546   0.20843   0.20960   0.23367
          Condensed to atoms (all electrons):
               1          2          3          4          5          6
     1  C    4.165479   0.000000   0.000000   0.000000   0.000000   0.000000
     2  C    0.000000   4.116510   0.000000   0.000000   0.000000   0.000000
     3  C    0.000000   0.000000   4.157450   0.000000   0.000000   0.000000
     4  C    0.000000   0.000000   0.000000   4.116513   0.000000   0.000000
     5  C    0.000000   0.000000   0.000000   0.000000   4.165478   0.000000
     6  C    0.000000   0.000000   0.000000   0.000000   0.000000   4.033213
     7  H    0.000000   0.000000   0.000000   0.000000   0.000000   0.000000
     8  H    0.000000   0.000000   0.000000   0.000000   0.000000   0.000000
     9  H    0.000000   0.000000   0.000000   0.000000   0.000000   0.000000
    10  H    0.000000   0.000000   0.000000   0.000000   0.000000   0.000000
    11  H    0.000000   0.000000   0.000000   0.000000   0.000000   0.000000
               7          8          9         10         11
     1  C    0.000000   0.000000   0.000000   0.000000   0.000000
     2  C    0.000000   0.000000   0.000000   0.000000   0.000000
     3  C    0.000000   0.000000   0.000000   0.000000   0.000000
     4  C    0.000000   0.000000   0.000000   0.000000   0.000000
     5  C    0.000000   0.000000   0.000000   0.000000   0.000000
     6  C    0.000000   0.000000   0.000000   0.000000   0.000000
     7  H    0.830334   0.000000   0.000000   0.000000   0.000000
     8  H    0.000000   0.871240   0.000000   0.000000   0.000000
     9  H    0.000000   0.000000   0.830335   0.000000   0.000000
    10  H    0.000000   0.000000   0.000000   0.871244   0.000000
    11  H    0.000000   0.000000   0.000000   0.000000   0.842205
          Atomic-Atomic Spin Densities.
               1          2          3          4          5          6
     1  C    0.083535   0.000000   0.000000   0.000000   0.000000   0.000000
     2  C    0.000000  -0.418571   0.000000   0.000000   0.000000   0.000000
     3  C    0.000000   0.000000   0.051389   0.000000   0.000000   0.000000
     4  C    0.000000   0.000000   0.000000  -0.418552   0.000000   0.000000
     5  C    0.000000   0.000000   0.000000   0.000000   0.083585   0.000000
     6  C    0.000000   0.000000   0.000000   0.000000   0.000000   0.943157
     7  H    0.000000   0.000000   0.000000   0.000000   0.000000   0.000000
     8  H    0.000000   0.000000   0.000000   0.000000   0.000000   0.000000
     9  H    0.000000   0.000000   0.000000   0.000000   0.000000   0.000000
    10  H    0.000000   0.000000   0.000000   0.000000   0.000000   0.000000
    11  H    0.000000   0.000000   0.000000   0.000000   0.000000   0.000000
               7          8          9         10         11
     1  C    0.000000   0.000000   0.000000   0.000000   0.000000
     2  C    0.000000   0.000000   0.000000   0.000000   0.000000
     3  C    0.000000   0.000000   0.000000   0.000000   0.000000
     4  C    0.000000   0.000000   0.000000   0.000000   0.000000
     5  C    0.000000   0.000000   0.000000   0.000000   0.000000
     6  C    0.000000   0.000000   0.000000   0.000000   0.000000
     7  H   -0.067867   0.000000   0.000000   0.000000   0.000000
     8  H    0.000000   0.405759   0.000000   0.000000   0.000000
     9  H    0.000000   0.000000  -0.067926   0.000000   0.000000
    10  H    0.000000   0.000000   0.000000   0.405780   0.000000
    11  H    0.000000   0.000000   0.000000   0.000000  -0.000289
 Mulliken charges and spin densities:
               1          2
     1  C   -0.165479   0.083535
     2  C   -0.116510  -0.418571
     3  C   -0.157450   0.051389
     4  C   -0.116513  -0.418552
     5  C   -0.165478   0.083585
     6  C   -0.033213   0.943157
     7  H    0.169666  -0.067867
     8  H    0.128760   0.405759
     9  H    0.169665  -0.067926
    10  H    0.128756   0.405780
    11  H    0.157795  -0.000289
 Sum of Mulliken charges =   0.00000   1.00000
 Mulliken charges and spin densities with hydrogens summed into heavy atoms:
               1          2
     1  C    0.004187   0.015669
     2  C    0.012246  -0.012791
     3  C    0.000345   0.051099
     4  C    0.012248  -0.012792
     5  C    0.004186   0.015659
     6  C   -0.033213   0.943157
 Charge=              0.0000 electrons
 Dipole moment (field-independent basis, Debye):
    X=             -1.1145    Y=             -0.6434    Z=              0.0000  Tot=              1.2869
 N-N= 1.077740489911D+02 E-N=-1.499965858696D+02  KE=-4.607369431053D+01
 Symmetry A'   KE=-3.684449669043D+01
 Symmetry A"   KE=-9.229197620104D+00
 Symmetry A'   SP= 1.000000000000D+00
 Symmetry A"   SP=-1.665334536938D-16
 Calling FoFJK, ICntrl=      2127 FMM=F ISym2X=1 I1Cent= 0 IOpClX= 1 NMat=1 NMatS=1 NMatT=0.
 ***** Axes restored to original set *****
 -------------------------------------------------------------------
 Center     Atomic                   Forces (Hartrees/Bohr)
 Number     Number              X              Y              Z
 -------------------------------------------------------------------
      1        6          -0.071729849    0.030089595    0.000000000
      2        6          -0.001238914    0.048760328    0.000000000
      3        6           0.060692830    0.037296998   -0.000000000
      4        6           0.042939965   -0.023131466    0.000000000
      5        6          -0.005546044   -0.077586882    0.000000000
      6        6           0.063187591    0.038838511   -0.000000000
      7        1           0.102840571   -0.056176688   -0.000000000
      8        1          -0.089765841    0.048451928   -0.000000000
      9        1          -0.003666566    0.117126370   -0.000000000
     10        1           0.002679564   -0.101970140   -0.000000000
     11        1          -0.100393308   -0.061698555   -0.000000000
 -------------------------------------------------------------------
 Cartesian Forces:  Max     0.117126370 RMS     0.052105657

 GradGradGradGradGradGradGradGradGradGradGradGradGradGradGradGradGradGrad
 Berny optimization.
 FormGI is forming the generalized inverse of G from B-inverse, IUseBI=4.
 Internal  Forces:  Max     0.117836870 RMS     0.040839163
 Search for a local minimum.
 Step number   1 out of a maximum of   57
 All quantities printed in internal units (Hartrees-Bohrs-Radians)
 Mixed Optimization -- RFO/linear search
 Second derivative matrix not updated -- first step.
 ITU=  0
     Eigenvalues ---    0.02011   0.02011   0.02011   0.02011   0.02011
     Eigenvalues ---    0.02011   0.02011   0.02011   0.06524   0.06524
     Eigenvalues ---    0.06524   0.06524   0.06524   0.16000   0.16000
     Eigenvalues ---    0.16000   0.16000   0.16000   0.22000   0.22000
     Eigenvalues ---    0.23189   0.40686   0.41317   0.44656   0.44657
     Eigenvalues ---    0.44657   0.44657
 RFO step:  Lambda=-2.32768281D-01 EMin= 2.01065650D-02
 Linear search not attempted -- first point.
 Maximum step size (   0.300) exceeded in Quadratic search.
    -- Step size scaled by   0.350
 Iteration  1 RMS(Cart)=  0.05088057 RMS(Int)=  0.00003957
 Iteration  2 RMS(Cart)=  0.00007100 RMS(Int)=  0.00000581
 Iteration  3 RMS(Cart)=  0.00000000 RMS(Int)=  0.00000581
 ClnCor:  largest displacement from symmetrization is 1.14D-09 for atom    11.
 Variable       Old X    -DE/DX   Delta X   Delta X   Delta X     New X
                                 (Linear)    (Quad)   (Total)
    R1        2.65676  -0.04993   0.00000  -0.02570  -0.02570   2.63106
    R2        2.65677  -0.05655   0.00000  -0.02919  -0.02918   2.62759
    R3        3.33635  -0.11718   0.00000  -0.13749  -0.13749   3.19886
    R4        2.65677  -0.04691   0.00000  -0.02406  -0.02407   2.63270
    R5        3.33634  -0.10201   0.00000  -0.11968  -0.11968   3.21666
    R6        2.65677  -0.04691   0.00000  -0.02406  -0.02407   2.63269
    R7        3.33633  -0.11784   0.00000  -0.13826  -0.13826   3.19808
    R8        2.65678  -0.04994   0.00000  -0.02570  -0.02570   2.63108
    R9        3.33633  -0.10201   0.00000  -0.11968  -0.11968   3.21665
   R10        2.65675  -0.05655   0.00000  -0.02918  -0.02918   2.62757
   R11        3.33632  -0.11718   0.00000  -0.13749  -0.13749   3.19883
    A1        2.09439  -0.00831   0.00000  -0.00641  -0.00640   2.08799
    A2        2.09439   0.00490   0.00000   0.00387   0.00387   2.09826
    A3        2.09440   0.00341   0.00000   0.00254   0.00253   2.09693
    A4        2.09439   0.00058   0.00000   0.00070   0.00069   2.09509
    A5        2.09440  -0.00049   0.00000  -0.00053  -0.00053   2.09387
    A6        2.09439  -0.00009   0.00000  -0.00017  -0.00017   2.09423
    A7        2.09440   0.00013   0.00000   0.00048   0.00046   2.09486
    A8        2.09440  -0.00007   0.00000  -0.00024  -0.00023   2.09416
    A9        2.09439  -0.00007   0.00000  -0.00024  -0.00023   2.09416
   A10        2.09439   0.00058   0.00000   0.00070   0.00069   2.09508
   A11        2.09440  -0.00009   0.00000  -0.00017  -0.00017   2.09423
   A12        2.09440  -0.00049   0.00000  -0.00053  -0.00053   2.09387
   A13        2.09439  -0.00831   0.00000  -0.00641  -0.00640   2.08799
   A14        2.09439   0.00490   0.00000   0.00387   0.00387   2.09825
   A15        2.09440   0.00341   0.00000   0.00254   0.00253   2.09694
   A16        2.09440   0.01531   0.00000   0.01093   0.01095   2.10535
    D1        0.00000  -0.00000   0.00000  -0.00000   0.00000   0.00000
    D2        3.14159  -0.00000   0.00000  -0.00000   0.00000   3.14159
    D3        3.14159   0.00000   0.00000   0.00000   0.00000   3.14159
    D4        0.00000   0.00000   0.00000   0.00000   0.00000   0.00000
    D5        0.00000   0.00000   0.00000   0.00000   0.00000   0.00000
    D6        3.14159  -0.00000   0.00000  -0.00000   0.00000   3.14159
    D7        0.00000  -0.00000   0.00000  -0.00000   0.00000   0.00000
    D8        3.14159  -0.00000   0.00000  -0.00000   0.00000   3.14159
    D9        3.14159   0.00000   0.00000   0.00000   0.00000   3.14159
   D10        0.00000  -0.00000   0.00000  -0.00000   0.00000   0.00000
   D11        0.00000   0.00000   0.00000   0.00000   0.00000   0.00000
   D12        3.14159  -0.00000   0.00000  -0.00000   0.00000   3.14159
   D13        3.14159   0.00000   0.00000   0.00000   0.00000   3.14159
   D14        0.00000  -0.00000   0.00000  -0.00000   0.00000   0.00000
   D15        0.00000  -0.00000   0.00000  -0.00000   0.00000   0.00000
   D16        3.14159  -0.00000   0.00000  -0.00000   0.00000   3.14159
   D17        3.14159   0.00000   0.00000   0.00000   0.00000   3.14159
   D18        0.00000  -0.00000   0.00000  -0.00000   0.00000   0.00000
   D19        0.00000  -0.00000   0.00000  -0.00000   0.00000   0.00000
   D20        3.14159   0.00000   0.00000   0.00000   0.00000   3.14159
         Item               Value     Threshold  Converged?
 Maximum Force            0.117837     0.000450     NO 
 RMS     Force            0.040839     0.000300     NO 
 Maximum Displacement     0.166274     0.001800     NO 
 RMS     Displacement     0.050894     0.001200     NO 
 Predicted change in Energy=-7.763361D-02
 GradGradGradGradGradGradGradGradGradGradGradGradGradGradGradGradGradGrad

                          Input orientation:                          
 ---------------------------------------------------------------------
 Center     Atomic      Atomic             Coordinates (Angstroms)
 Number     Number       Type             X           Y           Z
 ---------------------------------------------------------------------
      1          6           0       -3.192508    0.198489    0.000000
      2          6           0       -2.005642    0.926391    0.000000
      3          6           0       -0.780607    0.262921    0.000000
      4          6           0       -0.742025   -1.129706    0.000000
      5          6           0       -1.927553   -1.859801    0.000000
      6          6           0       -3.146712   -1.191216    0.000000
      7          1           0       -4.683537    0.999912    0.000000
      8          1           0        0.755238   -1.939402    0.000000
      9          1           0       -1.886038   -3.552041    0.000000
     10          1           0       -2.051706    2.627950    0.000000
     11          1           0        0.661221    1.149024    0.000000
 ---------------------------------------------------------------------
                    Distance matrix (angstroms):
                    1          2          3          4          5
     1  C    0.000000
     2  C    1.392298   0.000000
     3  C    2.412762   1.393163   0.000000
     4  C    2.787287   2.413351   1.393162   0.000000
     5  C    2.415920   2.787286   2.412765   1.392305   0.000000
     6  C    1.390459   2.405473   2.777224   2.405474   1.390452
     7  H    1.692763   2.678905   3.971904   4.480044   3.971575
     8  H    4.489463   3.979350   2.684967   1.702177   2.683972
     9  H    3.971567   4.480029   3.971891   2.678894   1.692749
    10  H    2.683973   1.702182   2.684968   3.979352   4.489468
    11  H    3.969225   2.676139   1.692349   2.676137   3.969229
                    6          7          8          9         10
     6  C    0.000000
     7  H    2.676354   0.000000
     8  H    3.973034   6.182221   0.000000
     9  H    2.676340   5.342872   3.094664   0.000000
    10  H    3.973042   3.094679   5.360937   6.182211   0.000000
    11  H    4.469573   5.346838   3.089857   5.346825   3.089854
                   11
    11  H    0.000000
 Stoichiometry    C6H5(2)
 Framework group  CS[SG(C6H5)]
 Deg. of freedom    19
 Full point group                 CS      NOp   2
 Largest Abelian subgroup         CS      NOp   2
 Largest concise Abelian subgroup C1      NOp   1
                         Standard orientation:                         
 ---------------------------------------------------------------------
 Center     Atomic      Atomic             Coordinates (Angstroms)
 Number     Number       Type             X           Y           Z
 ---------------------------------------------------------------------
      1          6           0        1.207961    0.772560   -0.000000
      2          6           0        1.206675   -0.619738   -0.000000
      3          6           0       -0.000000   -1.316041    0.000000
      4          6           0       -1.206676   -0.619741    0.000000
      5          6           0       -1.207959    0.772564    0.000000
      6          6           0       -0.000002    1.461183   -0.000000
      7          1           0        2.671441    1.623250   -0.000000
      8          1           0       -2.680468   -1.471411    0.000000
      9          1           0       -2.671432    1.623240    0.000000
     10          1           0        2.680469   -1.471417   -0.000000
     11          1           0        0.000000   -3.008390    0.000000
 ---------------------------------------------------------------------
 Rotational constants (GHZ):           5.7008765           5.1134808           2.6956130
 Standard basis: VSTO-6G (5D, 7F)
 There are    23 symmetry adapted cartesian basis functions of A'  symmetry.
 There are     6 symmetry adapted cartesian basis functions of A"  symmetry.
 There are    23 symmetry adapted basis functions of A'  symmetry.
 There are     6 symmetry adapted basis functions of A"  symmetry.
    29 basis functions,   174 primitive gaussians,    29 cartesian basis functions
    15 alpha electrons       14 beta electrons
       nuclear repulsion energy       108.7240909226 Hartrees.
 Integral buffers will be    131072 words long.
 Regular integral format.
 Two-electron integral symmetry is turned off.
 Do NDO integrals.
 One-electron integrals computed using PRISM.
 NBasis=    29 RedAO= T EigKep=  1.00D+00  NBF=    23     6
 NBsUse=    29 1.00D-06 EigRej= -1.00D+00 NBFU=    23     6
 Initial guess from the checkpoint file:  "geometry_chks/_ClBzNeutralRadical.chk"
 B after Tr=     0.000000    0.000000    0.000000
         Rot=    0.866025    0.000000    0.000000   -0.500001 Ang= -60.00 deg.
 Initial guess orbital symmetries:
 Alpha Orbitals:
       Occupied  (A') (A') (A') (A') (A') (A') (A') (A") (A') (A')
                 (A') (A') (A') (A") (A")
       Virtual   (A') (A') (A') (A") (A") (A') (A') (A") (A') (A')
                 (A') (A') (A') (A')
 Beta  Orbitals:
       Occupied  (A') (A') (A') (A') (A') (A') (A') (A") (A') (A')
                 (A') (A') (A") (A")
       Virtual   (A') (A') (A") (A') (A') (A") (A') (A') (A") (A')
                 (A') (A') (A') (A') (A')
 Initial guess <Sx>= 0.0000 <Sy>= 0.0000 <Sz>= 0.5000 <S**2>= 1.1025 S= 0.6630
 Keep J ints in memory in canonical form, NReq=861446.
 Overlap will be assumed to be unity.
 Requested convergence on RMS density matrix=1.00D-08 within 128 cycles.
 Requested convergence on MAX density matrix=1.00D-06.
 Requested convergence on             energy=1.00D-06.
 No special actions if energy rises.
 Fock symm off for IB=2 I1=    1 I=   24 J=    4 Cut=1.00D-07 Err=2.23D-03
 Fock matrix is not symmetric: symmetry in diagonalization turned off.
 Rare condition: small coef for last iteration:  0.000D+00
 Rare condition: small coef for last iteration:  0.000D+00
 Rare condition: small coef for last iteration:  0.000D+00
 Rare condition: small coef for last iteration:  0.000D+00
 Rare condition: small coef for last iteration:  0.000D+00
 Rare condition: small coef for last iteration:  0.000D+00
 Rare condition: small coef for last iteration:  0.000D+00
 Rare condition: small coef for last iteration:  0.000D+00
 Rare condition: small coef for last iteration:  0.000D+00
 Rare condition: small coef for last iteration:  0.000D+00
 Rare condition: small coef for last iteration:  0.000D+00
 Rare condition: small coef for last iteration:  0.000D+00
 Rare condition: small coef for last iteration:  0.000D+00
 Rare condition: small coef for last iteration:  0.000D+00
 Rare condition: small coef for last iteration:  0.000D+00
 Rare condition: small coef for last iteration:  0.000D+00
 Rare condition: small coef for last iteration:  0.000D+00
 Rare condition: small coef for last iteration:  0.000D+00
 Rare condition: small coef for last iteration:  0.000D+00
 Rare condition: small coef for last iteration:  0.000D+00
 Rare condition: small coef for last iteration:  0.000D+00
 Rare condition: small coef for last iteration:  0.000D+00
 Rare condition: small coef for last iteration:  0.000D+00
 Rare condition: small coef for last iteration:  0.000D+00
 Rare condition: small coef for last iteration:  0.000D+00
 Rare condition: small coef for last iteration:  0.000D+00
 Rare condition: small coef for last iteration:  0.000D+00
 Rare condition: small coef for last iteration:  0.000D+00
 Rare condition: small coef for last iteration:  0.000D+00
 Rare condition: small coef for last iteration:  0.000D+00
 Rare condition: small coef for last iteration:  0.000D+00
 Rare condition: small coef for last iteration:  0.000D+00
 Rare condition: small coef for last iteration:  0.000D+00
 Rare condition: small coef for last iteration:  0.000D+00
 Rare condition: small coef for last iteration:  0.000D+00
 Rare condition: small coef for last iteration:  0.000D+00
 Rare condition: small coef for last iteration:  0.000D+00
 Rare condition: small coef for last iteration:  0.000D+00
 Rare condition: small coef for last iteration:  0.000D+00
 Rare condition: small coef for last iteration:  0.000D+00
 Rare condition: small coef for last iteration:  0.000D+00
 Rare condition: small coef for last iteration:  0.000D+00
 Rare condition: small coef for last iteration:  0.000D+00
 Rare condition: small coef for last iteration:  0.000D+00
 Rare condition: small coef for last iteration:  0.000D+00
 Rare condition: small coef for last iteration:  0.000D+00
 Rare condition: small coef for last iteration:  0.000D+00
 Rare condition: small coef for last iteration:  0.000D+00
 Rare condition: small coef for last iteration:  0.000D+00
 Rare condition: small coef for last iteration:  0.000D+00
 Rare condition: small coef for last iteration:  0.000D+00
 >>>>>>>>>> Convergence criterion not met.
 SCF Done:  E(UAM1) =  0.656233707757     A.U. after  129 cycles
            NFock=128  Conv=0.55D-03     -V/T= 1.0142
 <Sx>= 0.0000 <Sy>= 0.0000 <Sz>= 0.5000 <S**2>= 1.1671 S= 0.6904
 <L.S>=  0.00000000000    
 Annihilation of the first spin contaminant:
 S**2 before annihilation     1.1671,   after     0.9545
 SCFChk:  SCF convergence  5.55D-04 required  1.00D-08


 SCF Error SCF Error SCF Error SCF Error SCF Error SCF Error SCF Error SCF Error

                                    ERROR!!!!

    SCF has not converged.  Gradients and post-SCF results would be GARBAGE!!

 SCF Error SCF Error SCF Error SCF Error SCF Error SCF Error SCF Error SCF Error


 Error termination via Lnk1e in /share/software/user/restricted/gaussian/g16.B01/l701.exe at Mon Dec  8 16:41:20 2025.
 Job cpu time:       0 days  0 hours  0 minutes  1.0 seconds.
 Elapsed time:       0 days  0 hours  0 minutes  2.3 seconds.
 File lengths (MBytes):  RWF=     10 Int=      0 D2E=      0 Chk=      2 Scr=      1
