 Entering Gaussian System, Link 0=g16
 Initial command:
 /share/software/user/restricted/gaussian/g16.B01/l1.exe "/home/users/jlapier/Chloroaromatics/Gau-20688.inp" -scrdir="/home/users/jlapier/Chloroaromatics/"
 Entering Link 1 = /share/software/user/restricted/gaussian/g16.B01/l1.exe PID=     20691.
  
 Copyright (c) 1988-2017, Gaussian, Inc.  All Rights Reserved.
  
 This is part of the Gaussian(R) 16 program.  It is based on
 the Gaussian(R) 09 system (copyright 2009, Gaussian, Inc.),
 the Gaussian(R) 03 system (copyright 2003, Gaussian, Inc.),
 the Gaussian(R) 98 system (copyright 1998, Gaussian, Inc.),
 the Gaussian(R) 94 system (copyright 1995, Gaussian, Inc.),
 the Gaussian 92(TM) system (copyright 1992, Gaussian, Inc.),
 the Gaussian 90(TM) system (copyright 1990, Gaussian, Inc.),
 the Gaussian 88(TM) system (copyright 1988, Gaussian, Inc.),
 the Gaussian 86(TM) system (copyright 1986, Carnegie Mellon
 University), and the Gaussian 82(TM) system (copyright 1983,
 Carnegie Mellon University). Gaussian is a federally registered
 trademark of Gaussian, Inc.
  
 This software contains proprietary and confidential information,
 including trade secrets, belonging to Gaussian, Inc.
  
 This software is provided under written license and may be
 used, copied, transmitted, or stored only in accord with that
 written license.
  
 The following legend is applicable only to US Government
 contracts under FAR:
  
                    RESTRICTED RIGHTS LEGEND
  
 Use, reproduction and disclosure by the US Government is
 subject to restrictions as set forth in subparagraphs (a)
 and (c) of the Commercial Computer Software - Restricted
 Rights clause in FAR 52.227-19.
  
 Gaussian, Inc.
 340 Quinnipiac St., Bldg. 40, Wallingford CT 06492
  
  
 ---------------------------------------------------------------
 Warning -- This program may not be used in any manner that
 competes with the business of Gaussian, Inc. or will provide
 assistance to any competitor of Gaussian, Inc.  The licensee
 of this program is prohibited from giving any competitor of
 Gaussian, Inc. access to this program.  By using this program,
 the user acknowledges that Gaussian, Inc. is engaged in the
 business of creating and licensing software in the field of
 computational chemistry and represents and warrants to the
 licensee that it is not a competitor of Gaussian, Inc. and that
 it will not use this program in any manner prohibited above.
 ---------------------------------------------------------------
  

 Cite this work as:
 Gaussian 16, Revision B.01,
 M. J. Frisch, G. W. Trucks, H. B. Schlegel, G. E. Scuseria, 
 M. A. Robb, J. R. Cheeseman, G. Scalmani, V. Barone, 
 G. A. Petersson, H. Nakatsuji, X. Li, M. Caricato, A. V. Marenich, 
 J. Bloino, B. G. Janesko, R. Gomperts, B. Mennucci, H. P. Hratchian, 
 J. V. Ortiz, A. F. Izmaylov, J. L. Sonnenberg, D. Williams-Young, 
 F. Ding, F. Lipparini, F. Egidi, J. Goings, B. Peng, A. Petrone, 
 T. Henderson, D. Ranasinghe, V. G. Zakrzewski, J. Gao, N. Rega, 
 G. Zheng, W. Liang, M. Hada, M. Ehara, K. Toyota, R. Fukuda, 
 J. Hasegawa, M. Ishida, T. Nakajima, Y. Honda, O. Kitao, H. Nakai, 
 T. Vreven, K. Throssell, J. A. Montgomery, Jr., J. E. Peralta, 
 F. Ogliaro, M. J. Bearpark, J. J. Heyd, E. N. Brothers, K. N. Kudin, 
 V. N. Staroverov, T. A. Keith, R. Kobayashi, J. Normand, 
 K. Raghavachari, A. P. Rendell, J. C. Burant, S. S. Iyengar, 
 J. Tomasi, M. Cossi, J. M. Millam, M. Klene, C. Adamo, R. Cammi, 
 J. W. Ochterski, R. L. Martin, K. Morokuma, O. Farkas, 
 J. B. Foresman, and D. J. Fox, Gaussian, Inc., Wallingford CT, 2016.
 
 ******************************************
 Gaussian 16:  ES64L-G16RevB.01 20-Dec-2017
                 8-Dec-2025 
 ******************************************
 %mem=2GB
 %nprocshare=1
 Will use up to    1 processors via shared memory.
 %chk=geometry_chks/_ClBzAnionIntermediate.chk
 ---------------------------
 # opt am1 SCF(maxcyc=10000)
 ---------------------------
 1/18=20,19=15,26=1,38=1/1,3;
 2/9=110,12=2,17=6,18=5,40=1/2;
 3/5=2,25=1,41=700000,71=1/1,2,3;
 4/35=1/1;
 5/5=2,7=10000,35=1,38=5/2;
 6/7=2,8=2,9=2,10=2,28=1/1;
 7//1,2,3,16;
 1/18=20,19=15,26=1/3(2);
 2/9=110/2;
 99//99;
 2/9=110/2;
 3/5=2,25=1,41=700000,71=1,135=20/1,2,3;
 4/5=5,16=3,35=1/1;
 5/5=2,7=10000,35=1,38=5/2;
 7//1,2,3,16;
 1/18=20,19=15,26=1/3(-5);
 2/9=110/2;
 6/7=2,8=2,9=2,10=2,19=2,28=1/1;
 99/9=1/99;
 --------------------------------
 Anion Intermediate (removed 1) _
 --------------------------------
 Symbolic Z-matrix:
 Charge = -1 Multiplicity = 1
 C                    -3.20928   0.19943   0. 
 C                    -2.0115    0.93555   0. 
 C                    -0.77511   0.2663    0. 
 C                    -0.7365   -1.13907   0. 
 C                    -1.93429  -1.87519   0. 
 C                    -3.17067  -1.20594   0. 
 H                    -4.76193   1.03987   0. 
 H                     0.81614  -1.97951   0. 
 H                    -1.8858   -3.64003   0. 
 H                    -2.05998   2.7004    0. 
 H                     0.72905   1.19071   0. 
 
 Add virtual bond connecting atoms H9         and C5         Dist= 3.34D+00.
 Add virtual bond connecting atoms H8         and C4         Dist= 3.34D+00.
 Add virtual bond connecting atoms H11        and C3         Dist= 3.34D+00.
 Add virtual bond connecting atoms H10        and C2         Dist= 3.34D+00.
 Add virtual bond connecting atoms H7         and C1         Dist= 3.34D+00.

 GradGradGradGradGradGradGradGradGradGradGradGradGradGradGradGradGradGrad
 Berny optimization.
 Initialization pass.
                           ----------------------------
                           !    Initial Parameters    !
                           ! (Angstroms and Degrees)  !
 --------------------------                            --------------------------
 ! Name  Definition              Value          Derivative Info.                !
 --------------------------------------------------------------------------------
 ! R1    R(1,2)                  1.4059         estimate D2E/DX2                !
 ! R2    R(1,6)                  1.4059         estimate D2E/DX2                !
 ! R3    R(1,7)                  1.7655         estimate D2E/DX2                !
 ! R4    R(2,3)                  1.4059         estimate D2E/DX2                !
 ! R5    R(2,10)                 1.7655         estimate D2E/DX2                !
 ! R6    R(3,4)                  1.4059         estimate D2E/DX2                !
 ! R7    R(3,11)                 1.7655         estimate D2E/DX2                !
 ! R8    R(4,5)                  1.4059         estimate D2E/DX2                !
 ! R9    R(4,8)                  1.7655         estimate D2E/DX2                !
 ! R10   R(5,6)                  1.4059         estimate D2E/DX2                !
 ! R11   R(5,9)                  1.7655         estimate D2E/DX2                !
 ! A1    A(2,1,6)              119.9999         estimate D2E/DX2                !
 ! A2    A(2,1,7)              119.9999         estimate D2E/DX2                !
 ! A3    A(6,1,7)              120.0001         estimate D2E/DX2                !
 ! A4    A(1,2,3)              120.0            estimate D2E/DX2                !
 ! A5    A(1,2,10)             120.0001         estimate D2E/DX2                !
 ! A6    A(3,2,10)             119.9999         estimate D2E/DX2                !
 ! A7    A(2,3,4)              120.0001         estimate D2E/DX2                !
 ! A8    A(2,3,11)             120.0            estimate D2E/DX2                !
 ! A9    A(4,3,11)             119.9999         estimate D2E/DX2                !
 ! A10   A(3,4,5)              119.9997         estimate D2E/DX2                !
 ! A11   A(3,4,8)              120.0003         estimate D2E/DX2                !
 ! A12   A(5,4,8)              120.0            estimate D2E/DX2                !
 ! A13   A(4,5,6)              120.0            estimate D2E/DX2                !
 ! A14   A(4,5,9)              119.9996         estimate D2E/DX2                !
 ! A15   A(6,5,9)              120.0004         estimate D2E/DX2                !
 ! A16   A(1,6,5)              120.0003         estimate D2E/DX2                !
 ! D1    D(6,1,2,3)              0.0            estimate D2E/DX2                !
 ! D2    D(6,1,2,10)           180.0            estimate D2E/DX2                !
 ! D3    D(7,1,2,3)            180.0            estimate D2E/DX2                !
 ! D4    D(7,1,2,10)             0.0            estimate D2E/DX2                !
 ! D5    D(2,1,6,5)              0.0            estimate D2E/DX2                !
 ! D6    D(7,1,6,5)            180.0            estimate D2E/DX2                !
 ! D7    D(1,2,3,4)              0.0            estimate D2E/DX2                !
 ! D8    D(1,2,3,11)           180.0            estimate D2E/DX2                !
 ! D9    D(10,2,3,4)           180.0            estimate D2E/DX2                !
 ! D10   D(10,2,3,11)            0.0            estimate D2E/DX2                !
 ! D11   D(2,3,4,5)              0.0            estimate D2E/DX2                !
 ! D12   D(2,3,4,8)            180.0            estimate D2E/DX2                !
 ! D13   D(11,3,4,5)           180.0            estimate D2E/DX2                !
 ! D14   D(11,3,4,8)             0.0            estimate D2E/DX2                !
 ! D15   D(3,4,5,6)              0.0            estimate D2E/DX2                !
 ! D16   D(3,4,5,9)            180.0            estimate D2E/DX2                !
 ! D17   D(8,4,5,6)            180.0            estimate D2E/DX2                !
 ! D18   D(8,4,5,9)              0.0            estimate D2E/DX2                !
 ! D19   D(4,5,6,1)              0.0            estimate D2E/DX2                !
 ! D20   D(9,5,6,1)            180.0            estimate D2E/DX2                !
 --------------------------------------------------------------------------------
 Trust Radius=3.00D-01 FncErr=1.00D-07 GrdErr=1.00D-07 EigMax=2.50D+02 EigMin=1.00D-04
 Number of steps in this run=     57 maximum allowed number of steps=    100.
 GradGradGradGradGradGradGradGradGradGradGradGradGradGradGradGradGradGrad

                          Input orientation:                          
 ---------------------------------------------------------------------
 Center     Atomic      Atomic             Coordinates (Angstroms)
 Number     Number       Type             X           Y           Z
 ---------------------------------------------------------------------
      1          6           0       -3.209280    0.199430    0.000000
      2          6           0       -2.011500    0.935550    0.000000
      3          6           0       -0.775110    0.266300    0.000000
      4          6           0       -0.736500   -1.139070    0.000000
      5          6           0       -1.934290   -1.875190    0.000000
      6          6           0       -3.170670   -1.205940    0.000000
      7          1           0       -4.761930    1.039870    0.000000
      8          1           0        0.816140   -1.979510    0.000000
      9          1           0       -1.885800   -3.640030    0.000000
     10          1           0       -2.059980    2.700400    0.000000
     11          1           0        0.729050    1.190710    0.000000
 ---------------------------------------------------------------------
                    Distance matrix (angstroms):
                    1          2          3          4          5
     1  C    0.000000
     2  C    1.405898   0.000000
     3  C    2.435088   1.405900   0.000000
     4  C    2.811801   2.435092   1.405900   0.000000
     5  C    2.435087   2.811800   2.435093   1.405907   0.000000
     6  C    1.405900   2.435088   2.811796   2.435088   1.405892
     7  H    1.765520   2.752408   4.061175   4.577321   4.061173
     8  H    4.577312   4.061173   2.752406   1.765511   2.752408
     9  H    4.061164   4.577306   4.061163   2.752397   1.765506
    10  H    2.752406   1.765516   2.752405   4.061173   4.577316
    11  H    4.061167   2.752403   1.765512   2.752401   4.061173
                    6          7          8          9         10
     6  C    0.000000
     7  H    2.752412   0.000000
     8  H    4.061165   6.342832   0.000000
     9  H    2.752396   5.493049   3.171404   0.000000
    10  H    4.061173   3.171418   5.493052   6.342822   0.000000
    11  H    4.577308   5.493051   3.171416   5.493040   3.171412
                   11
    11  H    0.000000
 Stoichiometry    C6H5(1-)
 Framework group  CS[SG(C6H5)]
 Deg. of freedom    19
 Full point group                 CS      NOp   2
 Largest Abelian subgroup         CS      NOp   2
 Largest concise Abelian subgroup C1      NOp   1
                         Standard orientation:                         
 ---------------------------------------------------------------------
 Center     Atomic      Atomic             Coordinates (Angstroms)
 Number     Number       Type             X           Y           Z
 ---------------------------------------------------------------------
      1          6           0        1.284531   -0.664276    0.000000
      2          6           0        0.066987   -1.367224    0.000000
      3          6           0       -1.150557   -0.664272    0.000000
      4          6           0       -1.150557    0.741628    0.000000
      5          6           0        0.066997    1.444576    0.000000
      6          6           0        1.284531    0.741624    0.000000
      7          1           0        2.813514   -1.547040    0.000000
      8          1           0       -2.679531    1.624391    0.000000
      9          1           0        0.066992    3.210082    0.000000
     10          1           0        0.066981   -3.132740    0.000000
     11          1           0       -2.679537   -1.547025    0.000000
 ---------------------------------------------------------------------
 Rotational constants (GHZ):           5.5355837           4.9758856           2.6204168
 Standard basis: VSTO-6G (5D, 7F)
 There are    23 symmetry adapted cartesian basis functions of A'  symmetry.
 There are     6 symmetry adapted cartesian basis functions of A"  symmetry.
 There are    23 symmetry adapted basis functions of A'  symmetry.
 There are     6 symmetry adapted basis functions of A"  symmetry.
    29 basis functions,   174 primitive gaussians,    29 cartesian basis functions
    15 alpha electrons       15 beta electrons
       nuclear repulsion energy       107.7740489911 Hartrees.
 Integral buffers will be    131072 words long.
 Regular integral format.
 Two-electron integral symmetry is turned off.
 Do NDO integrals.
 One-electron integrals computed using PRISM.
 NBasis=    29 RedAO= T EigKep=  1.00D+00  NBF=    23     6
 NBsUse=    29 1.00D-06 EigRej= -1.00D+00 NBFU=    23     6
 Simple Huckel Guess.
 Initial guess orbital symmetries:
       Occupied  (A') (A') (A') (A') (A') (A') (A') (A") (A') (A')
                 (A') (A') (A") (A") (A')
       Virtual   (A') (A') (A") (A") (A') (A') (A') (A") (A') (A')
                 (A') (A') (A') (A')
 The electronic state of the initial guess is 1-A'.
 Keep J ints in memory in canonical form, NReq=861446.
 Overlap will be assumed to be unity.
 Requested convergence on RMS density matrix=1.00D-08 within**** cycles.
 Requested convergence on MAX density matrix=1.00D-06.
 Requested convergence on             energy=1.00D-06.
 No special actions if energy rises.
 Fock symm off for IB=2 I1=    1 I=   24 J=    4 Cut=1.00D-07 Err=1.15D-02
 Fock matrix is not symmetric: symmetry in diagonalization turned off.
 SCF Done:  E(RAM1) =  0.693164471351     A.U. after   15 cycles
            NFock= 14  Conv=0.46D-08     -V/T= 1.0148

 **********************************************************************

            Population analysis using the SCF Density.

 **********************************************************************

 Orbital symmetries:
       Occupied  (A') (A') (A') (A') (A') (A') (A') (A") (A') (A')
                 (A') (A') (A") (A") (A')
       Virtual   (A') (A') (A') (A") (A') (A") (A') (A") (A') (A')
                 (A') (A') (A') (A')
 The electronic state is 1-A'.
 Alpha  occ. eigenvalues --   -1.18587  -0.89179  -0.87600  -0.58024  -0.57715
 Alpha  occ. eigenvalues --   -0.36284  -0.33272  -0.30044  -0.26499  -0.24717
 Alpha  occ. eigenvalues --   -0.22620  -0.18299  -0.17221  -0.15178  -0.09330
 Alpha virt. eigenvalues --    0.15531   0.17390   0.17829   0.20155   0.20583
 Alpha virt. eigenvalues --    0.21393   0.21788   0.30677   0.35315   0.35459
 Alpha virt. eigenvalues --    0.37992   0.38078   0.40216   0.42949
          Condensed to atoms (all electrons):
               1          2          3          4          5          6
     1  C    4.113656   0.000000   0.000000   0.000000   0.000000   0.000000
     2  C    0.000000   4.111609   0.000000   0.000000   0.000000   0.000000
     3  C    0.000000   0.000000   4.184845   0.000000   0.000000   0.000000
     4  C    0.000000   0.000000   0.000000   4.111609   0.000000   0.000000
     5  C    0.000000   0.000000   0.000000   0.000000   4.113660   0.000000
     6  C    0.000000   0.000000   0.000000   0.000000   0.000000   4.388093
     7  H    0.000000   0.000000   0.000000   0.000000   0.000000   0.000000
     8  H    0.000000   0.000000   0.000000   0.000000   0.000000   0.000000
     9  H    0.000000   0.000000   0.000000   0.000000   0.000000   0.000000
    10  H    0.000000   0.000000   0.000000   0.000000   0.000000   0.000000
    11  H    0.000000   0.000000   0.000000   0.000000   0.000000   0.000000
               7          8          9         10         11
     1  C    0.000000   0.000000   0.000000   0.000000   0.000000
     2  C    0.000000   0.000000   0.000000   0.000000   0.000000
     3  C    0.000000   0.000000   0.000000   0.000000   0.000000
     4  C    0.000000   0.000000   0.000000   0.000000   0.000000
     5  C    0.000000   0.000000   0.000000   0.000000   0.000000
     6  C    0.000000   0.000000   0.000000   0.000000   0.000000
     7  H    0.994629   0.000000   0.000000   0.000000   0.000000
     8  H    0.000000   1.006008   0.000000   0.000000   0.000000
     9  H    0.000000   0.000000   0.994627   0.000000   0.000000
    10  H    0.000000   0.000000   0.000000   1.006010   0.000000
    11  H    0.000000   0.000000   0.000000   0.000000   0.975254
 Mulliken charges:
               1
     1  C   -0.113656
     2  C   -0.111609
     3  C   -0.184845
     4  C   -0.111609
     5  C   -0.113660
     6  C   -0.388093
     7  H    0.005371
     8  H   -0.006008
     9  H    0.005373
    10  H   -0.006010
    11  H    0.024746
 Sum of Mulliken charges =  -1.00000
 Mulliken charges with hydrogens summed into heavy atoms:
               1
     1  C   -0.108285
     2  C   -0.117619
     3  C   -0.160099
     4  C   -0.117617
     5  C   -0.108288
     6  C   -0.388093
 Charge=             -1.0000 electrons
 Dipole moment (field-independent basis, Debye):
    X=             -3.2332    Y=             -1.8667    Z=              0.0000  Tot=              3.7334
 N-N= 1.077740489911D+02 E-N=-1.544523313081D+02  KE=-4.681807712475D+01
 Symmetry A'   KE=-3.759509115940D+01
 Symmetry A"   KE=-9.222985965349D+00
 Calling FoFJK, ICntrl=      2127 FMM=F ISym2X=1 I1Cent= 0 IOpClX= 0 NMat=1 NMatS=1 NMatT=0.
 ***** Axes restored to original set *****
 -------------------------------------------------------------------
 Center     Atomic                   Forces (Hartrees/Bohr)
 Number     Number              X              Y              Z
 -------------------------------------------------------------------
      1        6          -0.037495112    0.021682863    0.000000000
      2        6          -0.005265726    0.070490023    0.000000000
      3        6           0.057711263    0.035464614    0.000000000
      4        6           0.060506342   -0.036538693    0.000000000
      5        6           0.002417417   -0.043247063    0.000000000
      6        6           0.016401788    0.010085135   -0.000000000
      7        1           0.100368059   -0.053661925   -0.000000000
      8        1          -0.098099829    0.054848431   -0.000000000
      9        1          -0.002539836    0.113785397   -0.000000000
     10        1           0.004621787   -0.112296274   -0.000000000
     11        1          -0.098626153   -0.060612508   -0.000000000
 -------------------------------------------------------------------
 Cartesian Forces:  Max     0.113785397 RMS     0.050234467

 GradGradGradGradGradGradGradGradGradGradGradGradGradGradGradGradGradGrad
 Berny optimization.
 FormGI is forming the generalized inverse of G from B-inverse, IUseBI=4.
 Internal  Forces:  Max     0.115762663 RMS     0.041260458
 Search for a local minimum.
 Step number   1 out of a maximum of   57
 All quantities printed in internal units (Hartrees-Bohrs-Radians)
 Mixed Optimization -- RFO/linear search
 Second derivative matrix not updated -- first step.
 ITU=  0
     Eigenvalues ---    0.02011   0.02011   0.02011   0.02011   0.02011
     Eigenvalues ---    0.02011   0.02011   0.02011   0.06524   0.06524
     Eigenvalues ---    0.06524   0.06524   0.06524   0.16000   0.16000
     Eigenvalues ---    0.16000   0.16000   0.16000   0.22000   0.22000
     Eigenvalues ---    0.23189   0.40686   0.41317   0.44656   0.44657
     Eigenvalues ---    0.44657   0.44657
 RFO step:  Lambda=-2.37029077D-01 EMin= 2.01065650D-02
 Linear search not attempted -- first point.
 Maximum step size (   0.300) exceeded in Quadratic search.
    -- Step size scaled by   0.348
 Iteration  1 RMS(Cart)=  0.05255970 RMS(Int)=  0.00005357
 Iteration  2 RMS(Cart)=  0.00010070 RMS(Int)=  0.00000395
 Iteration  3 RMS(Cart)=  0.00000001 RMS(Int)=  0.00000395
 ClnCor:  largest displacement from symmetrization is 3.79D-12 for atom    11.
 Variable       Old X    -DE/DX   Delta X   Delta X   Delta X     New X
                                 (Linear)    (Quad)   (Total)
    R1        2.65676  -0.04645   0.00000  -0.02365  -0.02365   2.63311
    R2        2.65677  -0.04777   0.00000  -0.02435  -0.02435   2.63242
    R3        3.33635  -0.11381   0.00000  -0.13107  -0.13107   3.20528
    R4        2.65677  -0.05171   0.00000  -0.02630  -0.02631   2.63046
    R5        3.33634  -0.11238   0.00000  -0.12942  -0.12942   3.20692
    R6        2.65677  -0.05171   0.00000  -0.02630  -0.02631   2.63046
    R7        3.33633  -0.11576   0.00000  -0.13332  -0.13332   3.20302
    R8        2.65678  -0.04645   0.00000  -0.02366  -0.02366   2.63312
    R9        3.33633  -0.11238   0.00000  -0.12942  -0.12942   3.20691
   R10        2.65675  -0.04776   0.00000  -0.02435  -0.02435   2.63240
   R11        3.33632  -0.11381   0.00000  -0.13107  -0.13107   3.20525
    A1        2.09439   0.01474   0.00000   0.01102   0.01103   2.10542
    A2        2.09439  -0.00835   0.00000  -0.00637  -0.00637   2.08802
    A3        2.09440  -0.00639   0.00000  -0.00465  -0.00466   2.08974
    A4        2.09439  -0.00161   0.00000  -0.00134  -0.00135   2.09305
    A5        2.09440   0.00337   0.00000   0.00292   0.00292   2.09732
    A6        2.09439  -0.00176   0.00000  -0.00158  -0.00157   2.09282
    A7        2.09440  -0.00367   0.00000  -0.00287  -0.00288   2.09152
    A8        2.09440   0.00184   0.00000   0.00143   0.00144   2.09583
    A9        2.09439   0.00184   0.00000   0.00143   0.00144   2.09583
   A10        2.09439  -0.00161   0.00000  -0.00134  -0.00135   2.09304
   A11        2.09440  -0.00176   0.00000  -0.00158  -0.00157   2.09283
   A12        2.09440   0.00337   0.00000   0.00292   0.00292   2.09732
   A13        2.09439   0.01474   0.00000   0.01102   0.01103   2.10542
   A14        2.09439  -0.00835   0.00000  -0.00637  -0.00637   2.08802
   A15        2.09440  -0.00639   0.00000  -0.00465  -0.00466   2.08975
   A16        2.09440  -0.02260   0.00000  -0.01650  -0.01649   2.07791
    D1        0.00000  -0.00000   0.00000  -0.00000   0.00000   0.00000
    D2        3.14159  -0.00000   0.00000  -0.00000   0.00000   3.14159
    D3        3.14159   0.00000   0.00000   0.00000   0.00000   3.14159
    D4        0.00000   0.00000   0.00000   0.00000   0.00000   0.00000
    D5        0.00000   0.00000   0.00000   0.00000   0.00000   0.00000
    D6        3.14159  -0.00000   0.00000  -0.00000   0.00000   3.14159
    D7        0.00000  -0.00000   0.00000  -0.00000   0.00000   0.00000
    D8        3.14159  -0.00000   0.00000  -0.00000   0.00000   3.14159
    D9        3.14159   0.00000   0.00000   0.00000   0.00000   3.14159
   D10        0.00000  -0.00000   0.00000  -0.00000   0.00000   0.00000
   D11        0.00000   0.00000   0.00000   0.00000   0.00000   0.00000
   D12        3.14159  -0.00000   0.00000  -0.00000   0.00000   3.14159
   D13        3.14159   0.00000   0.00000   0.00000   0.00000   3.14159
   D14        0.00000  -0.00000   0.00000  -0.00000   0.00000   0.00000
   D15        0.00000   0.00000   0.00000   0.00000   0.00000   0.00000
   D16        3.14159  -0.00000   0.00000  -0.00000   0.00000   3.14159
   D17        3.14159   0.00000   0.00000   0.00000   0.00000   3.14159
   D18        0.00000  -0.00000   0.00000  -0.00000   0.00000   0.00000
   D19        0.00000  -0.00000   0.00000  -0.00000   0.00000   0.00000
   D20        3.14159   0.00000   0.00000   0.00000   0.00000   3.14159
         Item               Value     Threshold  Converged?
 Maximum Force            0.115763     0.000450     NO 
 RMS     Force            0.041260     0.000300     NO 
 Maximum Displacement     0.171928     0.001800     NO 
 RMS     Displacement     0.052553     0.001200     NO 
 Predicted change in Energy=-7.881608D-02
 GradGradGradGradGradGradGradGradGradGradGradGradGradGradGradGradGradGrad

                          Input orientation:                          
 ---------------------------------------------------------------------
 Center     Atomic      Atomic             Coordinates (Angstroms)
 Number     Number       Type             X           Y           Z
 ---------------------------------------------------------------------
      1          6           0       -3.188963    0.192032    0.000000
      2          6           0       -2.003884    0.924902    0.000000
      3          6           0       -0.778785    0.264041    0.000000
      4          6           0       -0.742559   -1.127466    0.000000
      5          6           0       -1.931712   -1.853721    0.000000
      6          6           0       -3.162187   -1.200726    0.000000
      7          1           0       -4.677711    1.004800    0.000000
      8          1           0        0.749960   -1.935101    0.000000
      9          1           0       -1.879046   -3.549050    0.000000
     10          1           0       -2.050254    2.621297    0.000000
     11          1           0        0.665270    1.151512    0.000000
 ---------------------------------------------------------------------
                    Distance matrix (angstroms):
                    1          2          3          4          5
     1  C    0.000000
     2  C    1.393381   0.000000
     3  C    2.411253   1.391979   0.000000
     4  C    2.779562   2.408974   1.391978   0.000000
     5  C    2.401205   2.779561   2.411256   1.393388   0.000000
     6  C    1.393015   2.420736   2.797525   2.420736   1.393008
     7  H    1.696161   2.675020   3.968670   4.475709   3.963793
     8  H    4.476584   3.970299   2.678299   1.697024   2.682906
     9  H    3.963783   4.475694   3.968657   2.675009   1.696146
    10  H    2.682906   1.697028   2.678299   3.970300   4.476588
    11  H    3.971865   2.678756   1.694963   2.678754   3.971869
                    6          7          8          9         10
     6  C    0.000000
     7  H    2.676033   0.000000
     8  H    3.980477   6.172732   0.000000
     9  H    2.676019   5.345097   3.084883   0.000000
    10  H    3.980484   3.084898   5.348080   6.172721   0.000000
    11  H    4.492488   5.344994   3.087775   5.344981   3.087772
                   11
    11  H    0.000000
 Stoichiometry    C6H5(1-)
 Framework group  CS[SG(C6H5)]
 Deg. of freedom    19
 Full point group                 CS      NOp   2
 Largest Abelian subgroup         CS      NOp   2
 Largest concise Abelian subgroup C1      NOp   1
                         Standard orientation:                         
 ---------------------------------------------------------------------
 Center     Atomic      Atomic             Coordinates (Angstroms)
 Number     Number       Type             X           Y           Z
 ---------------------------------------------------------------------
      1          6           0        1.200603    0.771053   -0.000000
      2          6           0        1.204486   -0.622323    0.000000
      3          6           0       -0.000000   -1.320046    0.000000
      4          6           0       -1.204487   -0.622326    0.000000
      5          6           0       -1.200602    0.771057   -0.000000
      6          6           0       -0.000002    1.477479   -0.000000
      7          1           0        2.672554    1.613860   -0.000000
      8          1           0       -2.674040   -1.471032    0.000000
      9          1           0       -2.672544    1.613850   -0.000000
     10          1           0        2.674040   -1.471038    0.000000
     11          1           0        0.000000   -3.015009    0.000000
 ---------------------------------------------------------------------
 Rotational constants (GHZ):           5.6563696           5.1452024           2.6943455
 Standard basis: VSTO-6G (5D, 7F)
 There are    23 symmetry adapted cartesian basis functions of A'  symmetry.
 There are     6 symmetry adapted cartesian basis functions of A"  symmetry.
 There are    23 symmetry adapted basis functions of A'  symmetry.
 There are     6 symmetry adapted basis functions of A"  symmetry.
    29 basis functions,   174 primitive gaussians,    29 cartesian basis functions
    15 alpha electrons       15 beta electrons
       nuclear repulsion energy       108.7077596929 Hartrees.
 Integral buffers will be    131072 words long.
 Regular integral format.
 Two-electron integral symmetry is turned off.
 Do NDO integrals.
 One-electron integrals computed using PRISM.
 NBasis=    29 RedAO= T EigKep=  1.00D+00  NBF=    23     6
 NBsUse=    29 1.00D-06 EigRej= -1.00D+00 NBFU=    23     6
 Initial guess from the checkpoint file:  "geometry_chks/_ClBzAnionIntermediate.chk"
 B after Tr=     0.000000   -0.000000   -0.000000
         Rot=    0.866025    0.000000   -0.000000   -0.500001 Ang= -60.00 deg.
 Initial guess orbital symmetries:
       Occupied  (A') (A') (A') (A') (A') (A') (A') (A") (A') (A')
                 (A') (A') (A") (A") (A')
       Virtual   (A') (A') (A') (A") (A') (A") (A') (A") (A') (A')
                 (A') (A') (A') (A')
 Keep J ints in memory in canonical form, NReq=861446.
 Overlap will be assumed to be unity.
 Requested convergence on RMS density matrix=1.00D-08 within**** cycles.
 Requested convergence on MAX density matrix=1.00D-06.
 Requested convergence on             energy=1.00D-06.
 No special actions if energy rises.
 Fock symm off for IB=2 I1=    1 I=   24 J=    4 Cut=1.00D-07 Err=2.11D-03
 Fock matrix is not symmetric: symmetry in diagonalization turned off.
 SCF Done:  E(RAM1) =  0.610928914749     A.U. after   13 cycles
            NFock= 12  Conv=0.52D-08     -V/T= 1.0130
 Calling FoFJK, ICntrl=      2127 FMM=F ISym2X=1 I1Cent= 0 IOpClX= 0 NMat=1 NMatS=1 NMatT=0.
 ***** Axes restored to original set *****
 -------------------------------------------------------------------
 Center     Atomic                   Forces (Hartrees/Bohr)
 Number     Number              X              Y              Z
 -------------------------------------------------------------------
      1        6          -0.060439217    0.035186618    0.000000000
      2        6          -0.007257981    0.092798969    0.000000000
      3        6           0.078222610    0.048071290    0.000000000
      4        6           0.079510020   -0.048393729    0.000000000
      5        6           0.004100395   -0.069816679   -0.000000000
      6        6           0.004341591    0.002672797    0.000000000
      7        1           0.103072686   -0.055493959   -0.000000000
      8        1          -0.101550490    0.056609997   -0.000000000
      9        1          -0.002952697    0.117025619   -0.000000000
     10        1           0.004634723   -0.116170640   -0.000000000
     11        1          -0.101681639   -0.062490282   -0.000000000
 -------------------------------------------------------------------
 Cartesian Forces:  Max     0.117025619 RMS     0.056206243

 GradGradGradGradGradGradGradGradGradGradGradGradGradGradGradGradGradGrad
 Berny optimization.
 Using GEDIIS/GDIIS optimizer.
 FormGI is forming the generalized inverse of G from B-inverse, IUseBI=4.
 Internal  Forces:  Max     0.119349031 RMS     0.039815862
 Search for a local minimum.
 Step number   2 out of a maximum of   57
 All quantities printed in internal units (Hartrees-Bohrs-Radians)
 Mixed Optimization -- RFO/linear search
 Update second derivatives using D2CorX and points    1    2
 DE= -8.22D-02 DEPred=-7.88D-02 R= 1.04D+00
 TightC=F SS=  1.41D+00  RLast= 3.00D-01 DXNew= 5.0454D-01 9.0000D-01
 Trust test= 1.04D+00 RLast= 3.00D-01 DXMaxT set to 5.05D-01
 ITU=  1  0
 Use linear search instead of GDIIS.
 Linear search step of   0.600 exceeds DXMaxT=   0.505 but not scaled.
 Quartic linear search produced a step of  2.00000.
 Iteration  1 RMS(Cart)=  0.08559120 RMS(Int)=  0.02016557
 Iteration  2 RMS(Cart)=  0.01994250 RMS(Int)=  0.00002333
 Iteration  3 RMS(Cart)=  0.00000603 RMS(Int)=  0.00002311
 Iteration  4 RMS(Cart)=  0.00000000 RMS(Int)=  0.00002311
 ClnCor:  largest displacement from symmetrization is 9.89D-09 for atom     2.
 Variable       Old X    -DE/DX   Delta X   Delta X   Delta X     New X
                                 (Linear)    (Quad)   (Total)
    R1        2.63311  -0.02822  -0.04731   0.00000  -0.04731   2.58580
    R2        2.63242  -0.02779  -0.04870   0.00000  -0.04867   2.58375
    R3        3.20528  -0.11706  -0.26214   0.00000  -0.26214   2.94314
    R4        2.63046  -0.03063  -0.05262   0.00000  -0.05265   2.57781
    R5        3.20692  -0.11625  -0.25885   0.00000  -0.25885   2.94807
    R6        2.63046  -0.03063  -0.05262   0.00000  -0.05265   2.57781
    R7        3.20302  -0.11935  -0.26663   0.00000  -0.26663   2.93638
    R8        2.63312  -0.02822  -0.04731   0.00000  -0.04731   2.58581
    R9        3.20691  -0.11625  -0.25885   0.00000  -0.25885   2.94806
   R10        2.63240  -0.02778  -0.04869   0.00000  -0.04866   2.58374
   R11        3.20525  -0.11706  -0.26214   0.00000  -0.26214   2.94311
    A1        2.10542   0.01205   0.02206   0.00000   0.02208   2.12751
    A2        2.08802  -0.00712  -0.01274   0.00000  -0.01276   2.07526
    A3        2.08974  -0.00493  -0.00931   0.00000  -0.00933   2.08041
    A4        2.09305  -0.00140  -0.00269   0.00000  -0.00273   2.09032
    A5        2.09732   0.00304   0.00584   0.00000   0.00586   2.10318
    A6        2.09282  -0.00164  -0.00315   0.00000  -0.00313   2.08969
    A7        2.09152  -0.00305  -0.00575   0.00000  -0.00582   2.08570
    A8        2.09583   0.00153   0.00288   0.00000   0.00291   2.09874
    A9        2.09583   0.00153   0.00288   0.00000   0.00291   2.09874
   A10        2.09304  -0.00140  -0.00269   0.00000  -0.00273   2.09031
   A11        2.09283  -0.00164  -0.00315   0.00000  -0.00313   2.08970
   A12        2.09732   0.00304   0.00584   0.00000   0.00586   2.10318
   A13        2.10542   0.01205   0.02206   0.00000   0.02209   2.12751
   A14        2.08802  -0.00712  -0.01274   0.00000  -0.01276   2.07526
   A15        2.08975  -0.00493  -0.00931   0.00000  -0.00933   2.08042
   A16        2.07791  -0.01826  -0.03297   0.00000  -0.03289   2.04503
    D1        0.00000  -0.00000   0.00000   0.00000  -0.00000   0.00000
    D2        3.14159  -0.00000   0.00000   0.00000   0.00000   3.14159
    D3        3.14159   0.00000   0.00000   0.00000   0.00000   3.14159
    D4       -0.00000   0.00000   0.00000   0.00000   0.00000   0.00000
    D5        0.00000   0.00000   0.00000   0.00000   0.00000   0.00000
    D6        3.14159  -0.00000   0.00000   0.00000   0.00000   3.14159
    D7       -0.00000   0.00000   0.00000   0.00000   0.00000   0.00000
    D8        3.14159  -0.00000   0.00000   0.00000   0.00000   3.14159
    D9        3.14159   0.00000   0.00000   0.00000   0.00000   3.14159
   D10        0.00000  -0.00000   0.00000   0.00000  -0.00000   0.00000
   D11       -0.00000   0.00000   0.00000   0.00000   0.00000   0.00000
   D12        3.14159  -0.00000   0.00000   0.00000   0.00000   3.14159
   D13        3.14159   0.00000   0.00000   0.00000   0.00000   3.14159
   D14        0.00000  -0.00000   0.00000   0.00000  -0.00000   0.00000
   D15        0.00000  -0.00000   0.00000   0.00000  -0.00000   0.00000
   D16        3.14159  -0.00000   0.00000   0.00000   0.00000   3.14159
   D17        3.14159   0.00000   0.00000   0.00000   0.00000   3.14159
   D18       -0.00000  -0.00000   0.00000   0.00000   0.00000   0.00000
   D19       -0.00000  -0.00000   0.00000   0.00000   0.00000   0.00000
   D20        3.14159   0.00000   0.00000   0.00000   0.00000   3.14159
         Item               Value     Threshold  Converged?
 Maximum Force            0.119349     0.000450     NO 
 RMS     Force            0.039816     0.000300     NO 
 Maximum Displacement     0.343903     0.001800     NO 
 RMS     Displacement     0.105067     0.001200     NO 
 Predicted change in Energy=-1.619089D-01
 GradGradGradGradGradGradGradGradGradGradGradGradGradGradGradGradGradGrad

                          Input orientation:                          
 ---------------------------------------------------------------------
 Center     Atomic      Atomic             Coordinates (Angstroms)
 Number     Number       Type             X           Y           Z
 ---------------------------------------------------------------------
      1          6           0       -3.148199    0.177465   -0.000000
      2          6           0       -1.988490    0.903724   -0.000000
      3          6           0       -0.786032    0.259586    0.000000
      4          6           0       -0.754501   -1.104166    0.000000
      5          6           0       -1.926293   -1.810772    0.000000
      6          6           0       -3.144397   -1.189791    0.000000
      7          1           0       -4.509846    0.933469   -0.000000
      8          1           0        0.617710   -1.846314    0.000000
      9          1           0       -1.866859   -3.367064    0.000000
     10          1           0       -2.030777    2.463203   -0.000000
     11          1           0        0.537813    1.073180    0.000000
 ---------------------------------------------------------------------
                    Distance matrix (angstroms):
                    1          2          3          4          5
     1  C    0.000000
     2  C    1.368347   0.000000
     3  C    2.363594   1.364119   0.000000
     4  C    2.715210   2.356766   1.364116   0.000000
     5  C    2.333697   2.715208   2.363594   1.368352   0.000000
     6  C    1.367262   2.391427   2.768137   2.391429   1.367258
     7  H    1.557442   2.521531   3.784298   4.272536   3.769032
     8  H    4.275249   3.788798   2.530871   1.560048   2.544251
     9  H    3.769021   4.272519   3.784281   2.521517   1.557427
    10  H    2.544254   1.560053   2.530873   3.788799   4.275252
    11  H    3.793282   2.531981   1.553866   2.531978   3.793283
                    6          7          8          9         10
     6  C    0.000000
     7  H    2.524417   0.000000
     8  H    3.818962   5.832583   0.000000
     9  H    2.524405   5.047768   2.913034   0.000000
    10  H    3.818968   2.913051   5.058303   5.832571   0.000000
    11  H    4.322003   5.049592   2.920587   5.049576   2.920586
                   11
    11  H    0.000000
 Stoichiometry    C6H5(1-)
 Framework group  CS[SG(C6H5)]
 Deg. of freedom    19
 Full point group                 CS      NOp   2
 Largest Abelian subgroup         CS      NOp   2
 Largest concise Abelian subgroup C1      NOp   1
                         Standard orientation:                         
 ---------------------------------------------------------------------
 Center     Atomic      Atomic             Coordinates (Angstroms)
 Number     Number       Type             X           Y           Z
 ---------------------------------------------------------------------
      1          6           0        1.166848    0.752565    0.000000
      2          6           0        1.178383   -0.615734    0.000000
      3          6           0       -0.000000   -1.302926   -0.000000
      4          6           0       -1.178383   -0.615738   -0.000000
      5          6           0       -1.166848    0.752565   -0.000000
      6          6           0       -0.000002    1.465211    0.000000
      7          1           0        2.523888    1.516808    0.000000
      8          1           0       -2.529150   -1.396236   -0.000000
      9          1           0       -2.523880    1.516793   -0.000000
     10          1           0        2.529152   -1.396238    0.000000
     11          1           0        0.000001   -2.856792   -0.000000
 ---------------------------------------------------------------------
 Rotational constants (GHZ):           5.9088145           5.5090637           2.8509706
 Standard basis: VSTO-6G (5D, 7F)
 There are    23 symmetry adapted cartesian basis functions of A'  symmetry.
 There are     6 symmetry adapted cartesian basis functions of A"  symmetry.
 There are    23 symmetry adapted basis functions of A'  symmetry.
 There are     6 symmetry adapted basis functions of A"  symmetry.
    29 basis functions,   174 primitive gaussians,    29 cartesian basis functions
    15 alpha electrons       15 beta electrons
       nuclear repulsion energy       110.6797040974 Hartrees.
 Integral buffers will be    131072 words long.
 Regular integral format.
 Two-electron integral symmetry is turned off.
 Do NDO integrals.
 One-electron integrals computed using PRISM.
 NBasis=    29 RedAO= T EigKep=  1.00D+00  NBF=    23     6
 NBsUse=    29 1.00D-06 EigRej= -1.00D+00 NBFU=    23     6
 Initial guess from the checkpoint file:  "geometry_chks/_ClBzAnionIntermediate.chk"
 B after Tr=    -0.000000    0.000000    0.000000
         Rot=    1.000000   -0.000000   -0.000000   -0.000000 Ang=  -0.00 deg.
 Initial guess orbital symmetries:
       Occupied  (A') (A') (A') (A') (A') (A') (A') (A") (A') (A')
                 (A') (A') (A") (A") (A')
       Virtual   (A') (A') (A') (A") (A") (A') (A') (A") (A') (A')
                 (A') (A') (A') (A')
 Keep J ints in memory in canonical form, NReq=861446.
 Overlap will be assumed to be unity.
 Requested convergence on RMS density matrix=1.00D-08 within**** cycles.
 Requested convergence on MAX density matrix=1.00D-06.
 Requested convergence on             energy=1.00D-06.
 No special actions if energy rises.
 Fock symm off for IB=2 I1=    1 I=   24 J=    4 Cut=1.00D-07 Err=4.11D-03
 Fock matrix is not symmetric: symmetry in diagonalization turned off.
 SCF Done:  E(RAM1) =  0.452788820211     A.U. after   13 cycles
            NFock= 12  Conv=0.52D-08     -V/T= 1.0096
 Calling FoFJK, ICntrl=      2127 FMM=F ISym2X=1 I1Cent= 0 IOpClX= 0 NMat=1 NMatS=1 NMatT=0.
 ***** Axes restored to original set *****
 -------------------------------------------------------------------
 Center     Atomic                   Forces (Hartrees/Bohr)
 Number     Number              X              Y              Z
 -------------------------------------------------------------------
      1        6          -0.106661850    0.061891341    0.000000000
      2        6          -0.011805676    0.137218588    0.000000000
      3        6           0.119289318    0.073312140    0.000000000
      4        6           0.117086476   -0.072516684    0.000000000
      5        6           0.007043918   -0.123117201   -0.000000000
      6        6          -0.023105141   -0.014196863    0.000000000
      7        1           0.102866096   -0.056118237   -0.000000000
      8        1          -0.103185693    0.057084609   -0.000000000
      9        1          -0.003603076    0.117122310   -0.000000000
     10        1           0.004319533   -0.117844248   -0.000000000
     11        1          -0.102243905   -0.062835753   -0.000000000
 -------------------------------------------------------------------
 Cartesian Forces:  Max     0.137218588 RMS     0.069274664

 GradGradGradGradGradGradGradGradGradGradGradGradGradGradGradGradGradGrad
 Berny optimization.
 Using GEDIIS/GDIIS optimizer.
 FormGI is forming the generalized inverse of G from B-inverse, IUseBI=4.
 Internal  Forces:  Max     0.120008950 RMS     0.038998665
 Search for a local minimum.
 Step number   3 out of a maximum of   57
 All quantities printed in internal units (Hartrees-Bohrs-Radians)
 Mixed Optimization -- RFO/linear search
 Update second derivatives using D2CorX and points    2    3
 ITU=  0  1  0
 Use linear search instead of GDIIS.
 Linear search step of   1.200 exceeds DXMaxT=   0.505 scaled by   0.841
 Quartic linear search produced a step of  1.68179.
 Iteration  1 RMS(Cart)=  0.10146655 RMS(Int)=  0.07837884
 Iteration  2 RMS(Cart)=  0.06452998 RMS(Int)=  0.01322324
 Iteration  3 RMS(Cart)=  0.01308143 RMS(Int)=  0.00006578
 Iteration  4 RMS(Cart)=  0.00000059 RMS(Int)=  0.00006578
 ClnCor:  largest displacement from symmetrization is 1.30D-08 for atom    11.
 Variable       Old X    -DE/DX   Delta X   Delta X   Delta X     New X
                                 (Linear)    (Quad)   (Total)
    R1        2.58580   0.01381  -0.07956   0.00000  -0.07956   2.50624
    R2        2.58375   0.01724  -0.08185   0.00000  -0.08176   2.50199
    R3        2.94314  -0.11717  -0.44087   0.00000  -0.44087   2.50227
    R4        2.57781   0.01835  -0.08854   0.00000  -0.08863   2.48918
    R5        2.94807  -0.11792  -0.43533   0.00000  -0.43533   2.51275
    R6        2.57781   0.01835  -0.08855   0.00000  -0.08864   2.48917
    R7        2.93638  -0.12001  -0.44842   0.00000  -0.44842   2.48796
    R8        2.58581   0.01381  -0.07957   0.00000  -0.07957   2.50624
    R9        2.94806  -0.11792  -0.43533   0.00000  -0.43533   2.51274
   R10        2.58374   0.01724  -0.08184   0.00000  -0.08175   2.50200
   R11        2.94311  -0.11717  -0.44087   0.00000  -0.44087   2.50224
    A1        2.12751   0.00538   0.03714   0.00000   0.03722   2.16472
    A2        2.07526  -0.00397  -0.02146   0.00000  -0.02149   2.05377
    A3        2.08041  -0.00141  -0.01569   0.00000  -0.01572   2.06469
    A4        2.09032  -0.00110  -0.00459   0.00000  -0.00470   2.08562
    A5        2.10318   0.00221   0.00986   0.00000   0.00991   2.11309
    A6        2.08969  -0.00110  -0.00526   0.00000  -0.00521   2.08448
    A7        2.08570  -0.00151  -0.00979   0.00000  -0.00999   2.07571
    A8        2.09874   0.00075   0.00490   0.00000   0.00499   2.10374
    A9        2.09874   0.00075   0.00490   0.00000   0.00499   2.10374
   A10        2.09031  -0.00110  -0.00459   0.00000  -0.00470   2.08562
   A11        2.08970  -0.00111  -0.00526   0.00000  -0.00521   2.08449
   A12        2.10318   0.00221   0.00986   0.00000   0.00991   2.11308
   A13        2.12751   0.00538   0.03714   0.00000   0.03722   2.16473
   A14        2.07526  -0.00397  -0.02146   0.00000  -0.02149   2.05377
   A15        2.08042  -0.00141  -0.01569   0.00000  -0.01572   2.06469
   A16        2.04503  -0.00705  -0.05531   0.00000  -0.05505   1.98998
    D1        0.00000   0.00000   0.00000   0.00000   0.00000   0.00000
    D2        3.14159  -0.00000   0.00000   0.00000   0.00000   3.14159
    D3        3.14159   0.00000   0.00000   0.00000   0.00000   3.14159
    D4       -0.00000   0.00000   0.00000   0.00000   0.00000   0.00000
    D5        0.00000  -0.00000   0.00000   0.00000  -0.00000   0.00000
    D6        3.14159  -0.00000   0.00000   0.00000   0.00000   3.14159
    D7       -0.00000  -0.00000   0.00000   0.00000   0.00000   0.00000
    D8        3.14159  -0.00000   0.00000   0.00000   0.00000   3.14159
    D9        3.14159   0.00000   0.00000   0.00000   0.00000   3.14159
   D10        0.00000  -0.00000   0.00000   0.00000  -0.00000   0.00000
   D11        0.00000  -0.00000   0.00000   0.00000   0.00000   0.00000
   D12        3.14159  -0.00000   0.00000   0.00000   0.00000   3.14159
   D13        3.14159   0.00000   0.00000   0.00000   0.00000   3.14159
   D14       -0.00000  -0.00000   0.00000   0.00000   0.00000   0.00000
   D15        0.00000   0.00000   0.00000   0.00000   0.00000   0.00000
   D16        3.14159  -0.00000   0.00000   0.00000   0.00000   3.14159
   D17        3.14159   0.00000   0.00000   0.00000   0.00000   3.14159
   D18       -0.00000   0.00000   0.00000   0.00000   0.00000   0.00000
   D19       -0.00000   0.00000   0.00000   0.00000   0.00000   0.00000
   D20        3.14159   0.00000   0.00000   0.00000   0.00000   3.14159
         Item               Value     Threshold  Converged?
 Maximum Force            0.120009     0.000450     NO 
 RMS     Force            0.038999     0.000300     NO 
 Maximum Displacement     0.578330     0.001800     NO 
 RMS     Displacement     0.176570     0.001200     NO 
 Predicted change in Energy=-2.338708D-01
 GradGradGradGradGradGradGradGradGradGradGradGradGradGradGradGradGradGrad

                          Input orientation:                          
 ---------------------------------------------------------------------
 Center     Atomic      Atomic             Coordinates (Angstroms)
 Number     Number       Type             X           Y           Z
 ---------------------------------------------------------------------
      1          6           0       -3.079289    0.153684   -0.000000
      2          6           0       -1.962136    0.868456   -0.000000
      3          6           0       -0.797932    0.252271    0.000000
      4          6           0       -0.774062   -1.064723    0.000000
      5          6           0       -1.916379   -1.738548    0.000000
      6          6           0       -3.112047   -1.169908   -0.000000
      7          1           0       -4.229303    0.810059   -0.000000
      8          1           0        0.395659   -1.697028    0.000000
      9          1           0       -1.850237   -3.061025    0.000000
     10          1           0       -1.997890    2.197664   -0.000000
     11          1           0        0.323745    0.941617    0.000000
 ---------------------------------------------------------------------
                    Distance matrix (angstroms):
                    1          2          3          4          5
     1  C    0.000000
     2  C    1.326247   0.000000
     3  C    2.283486   1.317215   0.000000
     4  C    2.607410   2.269075   1.317211   0.000000
     5  C    2.221014   2.607406   2.283481   1.326246   0.000000
     6  C    1.323997   2.340347   2.716196   2.340350   1.323999
     7  H    1.324145   2.267919   3.476411   3.931094   3.441659
     8  H    3.937055   3.484381   2.285701   1.329683   2.312411
     9  H    3.441645   3.931074   3.476389   2.267901   1.324130
    10  H    2.312418   1.329689   2.285706   3.484383   3.937056
    11  H    3.493062   2.287051   1.316570   2.287047   3.493057
                    6          7          8          9         10
     6  C    0.000000
     7  H    2.273440   0.000000
     8  H    3.547092   5.260776   0.000000
     9  H    2.273431   4.543704   2.627649   0.000000
    10  H    3.547095   2.627670   4.571401   5.260762   0.000000
    11  H    4.032766   4.554948   2.639625   4.554925   2.639629
                   11
    11  H    0.000000
 Stoichiometry    C6H5(1-)
 Framework group  CS[SG(C6H5)]
 Deg. of freedom    19
 Full point group                 CS      NOp   2
 Largest Abelian subgroup         CS      NOp   2
 Largest concise Abelian subgroup C1      NOp   1
                         Standard orientation:                         
 ---------------------------------------------------------------------
 Center     Atomic      Atomic             Coordinates (Angstroms)
 Number     Number       Type             X           Y           Z
 ---------------------------------------------------------------------
      1          6           0        1.110506    0.721492   -0.000000
      2          6           0        1.134538   -0.604537    0.000000
      3          6           0       -0.000000   -1.273775    0.000000
      4          6           0       -1.134537   -0.604544    0.000000
      5          6           0       -1.110508    0.721485   -0.000000
      6          6           0       -0.000002    1.442422   -0.000000
      7          1           0        2.271855    1.357596   -0.000000
      8          1           0       -2.285697   -1.270041    0.000000
      9          1           0       -2.271849    1.357571   -0.000000
     10          1           0        2.285703   -1.270038    0.000000
     11          1           0        0.000002   -2.590345    0.000000
 ---------------------------------------------------------------------
 Rotational constants (GHZ):           6.3685575           6.2067848           3.1433153
 Standard basis: VSTO-6G (5D, 7F)
 There are    23 symmetry adapted cartesian basis functions of A'  symmetry.
 There are     6 symmetry adapted cartesian basis functions of A"  symmetry.
 There are    23 symmetry adapted basis functions of A'  symmetry.
 There are     6 symmetry adapted basis functions of A"  symmetry.
    29 basis functions,   174 primitive gaussians,    29 cartesian basis functions
    15 alpha electrons       15 beta electrons
       nuclear repulsion energy       114.3655123138 Hartrees.
 Integral buffers will be    131072 words long.
 Regular integral format.
 Two-electron integral symmetry is turned off.
 Do NDO integrals.
 One-electron integrals computed using PRISM.
 NBasis=    29 RedAO= T EigKep=  1.00D+00  NBF=    23     6
 NBsUse=    29 1.00D-06 EigRej= -1.00D+00 NBFU=    23     6
 Initial guess from the checkpoint file:  "geometry_chks/_ClBzAnionIntermediate.chk"
 B after Tr=     0.000000    0.000000   -0.000000
         Rot=    1.000000   -0.000000   -0.000000   -0.000001 Ang=  -0.00 deg.
 Initial guess orbital symmetries:
       Occupied  (A') (A') (A') (A') (A') (A') (A') (A") (A') (A')
                 (A') (A') (A") (A") (A')
       Virtual   (A') (A") (A') (A') (A") (A') (A') (A") (A') (A')
                 (A') (A') (A') (A')
 Keep J ints in memory in canonical form, NReq=861446.
 Overlap will be assumed to be unity.
 Requested convergence on RMS density matrix=1.00D-08 within**** cycles.
 Requested convergence on MAX density matrix=1.00D-06.
 Requested convergence on             energy=1.00D-06.
 No special actions if energy rises.
 Fock symm off for IB=2 I1=    1 I=   24 J=    4 Cut=1.00D-07 Err=6.39D-03
 Fock matrix is not symmetric: symmetry in diagonalization turned off.
 SCF Done:  E(RAM1) =  0.248363187069     A.U. after   13 cycles
            NFock= 12  Conv=0.20D-08     -V/T= 1.0052
 Calling FoFJK, ICntrl=      2127 FMM=F ISym2X=1 I1Cent= 0 IOpClX= 0 NMat=1 NMatS=1 NMatT=0.
 ***** Axes restored to original set *****
 -------------------------------------------------------------------
 Center     Atomic                   Forces (Hartrees/Bohr)
 Number     Number              X              Y              Z
 -------------------------------------------------------------------
      1        6          -0.176958979    0.099247197    0.000000000
      2        6          -0.021254442    0.202841740    0.000000000
      3        6           0.180432110    0.110894282    0.000000000
      4        6           0.171367927   -0.110590527    0.000000000
      5        6           0.008609441   -0.202705784    0.000000000
      6        6          -0.081024140   -0.049797436   -0.000000000
      7        1           0.075073307   -0.041703310   -0.000000000
      8        1          -0.079760881    0.042905640   -0.000000000
      9        1          -0.003296649    0.085811959   -0.000000000
     10        1           0.002250599   -0.090542075   -0.000000000
     11        1          -0.075438292   -0.046361685   -0.000000000
 -------------------------------------------------------------------
 Cartesian Forces:  Max     0.202841740 RMS     0.088491683

 GradGradGradGradGradGradGradGradGradGradGradGradGradGradGradGradGradGrad
 Berny optimization.
 Using GEDIIS/GDIIS optimizer.
 FormGI is forming the generalized inverse of G from B-inverse, IUseBI=4.
 Internal  Forces:  Max     0.124633638 RMS     0.049772611
 Search for a local minimum.
 Step number   4 out of a maximum of   57
 All quantities printed in internal units (Hartrees-Bohrs-Radians)
 Mixed Optimization -- RFO/linear search
 Update second derivatives using D2CorX and points    3    4
 ITU=  0  0  1  0
 Use linear search instead of GDIIS.
 Linear search step of   0.583 exceeds DXMaxT=   0.505 but not scaled.
 Quartic linear search produced a step of  0.57818.
 Iteration  1 RMS(Cart)=  0.08482207 RMS(Int)=  0.01780692
 Iteration  2 RMS(Cart)=  0.01759009 RMS(Int)=  0.00003547
 Iteration  3 RMS(Cart)=  0.00000644 RMS(Int)=  0.00003519
 Iteration  4 RMS(Cart)=  0.00000000 RMS(Int)=  0.00003519
 ClnCor:  largest displacement from symmetrization is 1.61D-09 for atom     1.
 Variable       Old X    -DE/DX   Delta X   Delta X   Delta X     New X
                                 (Linear)    (Quad)   (Total)
    R1        2.50624   0.10416  -0.04600   0.00000  -0.04600   2.46024
    R2        2.50199   0.10948  -0.04727   0.00000  -0.04722   2.45477
    R3        2.50227  -0.08587  -0.25490   0.00000  -0.25490   2.24737
    R4        2.48918   0.12463  -0.05125   0.00000  -0.05130   2.43788
    R5        2.51275  -0.09057  -0.25170   0.00000  -0.25170   2.26105
    R6        2.48917   0.12463  -0.05125   0.00000  -0.05130   2.43787
    R7        2.48796  -0.08855  -0.25927   0.00000  -0.25927   2.22869
    R8        2.50624   0.10416  -0.04600   0.00000  -0.04600   2.46024
    R9        2.51274  -0.09057  -0.25170   0.00000  -0.25170   2.26104
   R10        2.50200   0.10947  -0.04727   0.00000  -0.04722   2.45478
   R11        2.50224  -0.08587  -0.25490   0.00000  -0.25490   2.24734
    A1        2.16472  -0.00969   0.02152   0.00000   0.02156   2.18628
    A2        2.05377   0.00360  -0.01243   0.00000  -0.01245   2.04133
    A3        2.06469   0.00609  -0.00909   0.00000  -0.00911   2.05558
    A4        2.08562  -0.00131  -0.00272   0.00000  -0.00277   2.08285
    A5        2.11309   0.00042   0.00573   0.00000   0.00576   2.11884
    A6        2.08448   0.00089  -0.00301   0.00000  -0.00298   2.08150
    A7        2.07571   0.00181  -0.00577   0.00000  -0.00588   2.06983
    A8        2.10374  -0.00090   0.00289   0.00000   0.00294   2.10668
    A9        2.10374  -0.00090   0.00289   0.00000   0.00294   2.10668
   A10        2.08562  -0.00131  -0.00272   0.00000  -0.00277   2.08284
   A11        2.08449   0.00089  -0.00301   0.00000  -0.00299   2.08150
   A12        2.11308   0.00042   0.00573   0.00000   0.00576   2.11884
   A13        2.16473  -0.00969   0.02152   0.00000   0.02156   2.18628
   A14        2.05377   0.00360  -0.01243   0.00000  -0.01245   2.04132
   A15        2.06469   0.00609  -0.00909   0.00000  -0.00911   2.05558
   A16        1.98998   0.02019  -0.03183   0.00000  -0.03169   1.95828
    D1        0.00000  -0.00000   0.00000   0.00000   0.00000   0.00000
    D2        3.14159  -0.00000   0.00000   0.00000   0.00000   3.14159
    D3        3.14159   0.00000   0.00000   0.00000   0.00000   3.14159
    D4       -0.00000   0.00000   0.00000   0.00000   0.00000   0.00000
    D5       -0.00000   0.00000   0.00000   0.00000   0.00000   0.00000
    D6        3.14159  -0.00000   0.00000   0.00000   0.00000   3.14159
    D7       -0.00000   0.00000   0.00000   0.00000   0.00000   0.00000
    D8        3.14159  -0.00000   0.00000   0.00000   0.00000   3.14159
    D9        3.14159   0.00000   0.00000   0.00000   0.00000   3.14159
   D10        0.00000  -0.00000   0.00000   0.00000   0.00000   0.00000
   D11        0.00000   0.00000   0.00000   0.00000   0.00000   0.00000
   D12        3.14159  -0.00000   0.00000   0.00000   0.00000   3.14159
   D13        3.14159   0.00000   0.00000   0.00000   0.00000   3.14159
   D14       -0.00000   0.00000   0.00000   0.00000   0.00000   0.00000
   D15       -0.00000  -0.00000   0.00000   0.00000   0.00000   0.00000
   D16        3.14159  -0.00000   0.00000   0.00000   0.00000   3.14159
   D17        3.14159   0.00000   0.00000   0.00000   0.00000   3.14159
   D18        0.00000  -0.00000   0.00000   0.00000   0.00000   0.00000
   D19        0.00000   0.00000   0.00000   0.00000   0.00000   0.00000
   D20        3.14159   0.00000   0.00000   0.00000   0.00000   3.14159
         Item               Value     Threshold  Converged?
 Maximum Force            0.124634     0.000450     NO 
 RMS     Force            0.049773     0.000300     NO 
 Maximum Displacement     0.334238     0.001800     NO 
 RMS     Displacement     0.102010     0.001200     NO 
 Predicted change in Energy=-5.877726D-02
 GradGradGradGradGradGradGradGradGradGradGradGradGradGradGradGradGradGrad

                          Input orientation:                          
 ---------------------------------------------------------------------
 Center     Atomic      Atomic             Coordinates (Angstroms)
 Number     Number       Type             X           Y           Z
 ---------------------------------------------------------------------
      1          6           0       -3.039268    0.140363   -0.000000
      2          6           0       -1.946643    0.848267   -0.000000
      3          6           0       -0.804663    0.248133    0.000000
      4          6           0       -0.785076   -1.041782    0.000000
      5          6           0       -1.910184   -1.696825    0.000000
      6          6           0       -3.091981   -1.157574   -0.000000
      7          1           0       -4.068138    0.736818   -0.000000
      8          1           0        0.267501   -1.610701    0.000000
      9          1           0       -1.842781   -2.884154    0.000000
     10          1           0       -1.978761    2.044332   -0.000000
     11          1           0        0.200124    0.865642    0.000000
 ---------------------------------------------------------------------
                    Distance matrix (angstroms):
                    1          2          3          4          5
     1  C    0.000000
     2  C    1.301905   0.000000
     3  C    2.237203   1.290070   0.000000
     4  C    2.545358   2.218451   1.290064   0.000000
     5  C    2.156407   2.545353   2.237195   1.301902   0.000000
     6  C    1.299007   2.309805   2.684742   2.309809   1.299013
     7  H    1.189256   2.124420   3.299861   3.733887   3.252596
     8  H    3.741784   3.308922   2.145880   1.196490   2.179388
     9  H    3.252581   3.733866   3.299835   2.124400   1.189241
    10  H    2.179398   1.196496   2.145888   3.308925   3.741785
    11  H    3.319592   2.146837   1.179369   2.146832   3.319584
                    6          7          8          9         10
     6  C    0.000000
     7  H    2.131104   0.000000
     8  H    3.389903   4.930377   0.000000
     9  H    2.131098   4.250135   2.464746   0.000000
    10  H    3.389906   2.464770   4.290100   4.930361   0.000000
    11  H    3.864111   4.270205   2.477260   4.270179   2.477266
                   11
    11  H    0.000000
 Stoichiometry    C6H5(1-)
 Framework group  CS[SG(C6H5)]
 Deg. of freedom    19
 Full point group                 CS      NOp   2
 Largest Abelian subgroup         CS      NOp   2
 Largest concise Abelian subgroup C1      NOp   1
                         Standard orientation:                         
 ---------------------------------------------------------------------
 Center     Atomic      Atomic             Coordinates (Angstroms)
 Number     Number       Type             X           Y           Z
 ---------------------------------------------------------------------
      1          6           0        1.078202    0.703536   -0.000000
      2          6           0        1.109227   -0.598000   -0.000000
      3          6           0       -0.000000   -1.256708   -0.000000
      4          6           0       -1.109225   -0.598007    0.000000
      5          6           0       -1.078205    0.703525    0.000000
      6          6           0       -0.000002    1.428033    0.000000
      7          1           0        2.125070    1.267803   -0.000000
      8          1           0       -2.145046   -1.196891    0.000000
      9          1           0       -2.125065    1.267774    0.000000
     10          1           0        2.145054   -1.196885   -0.000000
     11          1           0        0.000002   -2.436078   -0.000000
 ---------------------------------------------------------------------
 Rotational constants (GHZ):           6.6666815           6.6562443           3.3307294
 Standard basis: VSTO-6G (5D, 7F)
 There are    23 symmetry adapted cartesian basis functions of A'  symmetry.
 There are     6 symmetry adapted cartesian basis functions of A"  symmetry.
 There are    23 symmetry adapted basis functions of A'  symmetry.
 There are     6 symmetry adapted basis functions of A"  symmetry.
    29 basis functions,   174 primitive gaussians,    29 cartesian basis functions
    15 alpha electrons       15 beta electrons
       nuclear repulsion energy       116.7518901682 Hartrees.
 Integral buffers will be    131072 words long.
 Regular integral format.
 Two-electron integral symmetry is turned off.
 Do NDO integrals.
 One-electron integrals computed using PRISM.
 NBasis=    29 RedAO= T EigKep=  1.00D+00  NBF=    23     6
 NBsUse=    29 1.00D-06 EigRej= -1.00D+00 NBFU=    23     6
 Initial guess from the checkpoint file:  "geometry_chks/_ClBzAnionIntermediate.chk"
 B after Tr=    -0.000000   -0.000000    0.000000
         Rot=    1.000000    0.000000   -0.000000   -0.000000 Ang=  -0.00 deg.
 Initial guess orbital symmetries:
       Occupied  (A') (A') (A') (A') (A') (A') (A') (A") (A') (A')
                 (A') (A') (A") (A") (A')
       Virtual   (A") (A") (A') (A') (A') (A') (A') (A") (A') (A')
                 (A') (A') (A') (A')
 Keep J ints in memory in canonical form, NReq=861446.
 Overlap will be assumed to be unity.
 Requested convergence on RMS density matrix=1.00D-08 within**** cycles.
 Requested convergence on MAX density matrix=1.00D-06.
 Requested convergence on             energy=1.00D-06.
 No special actions if energy rises.
 Fock symm off for IB=2 I1=    1 I=   24 J=    4 Cut=1.00D-07 Err=3.26D-03
 Fock matrix is not symmetric: symmetry in diagonalization turned off.
 SCF Done:  E(RAM1) =  0.207541555850     A.U. after   12 cycles
            NFock= 11  Conv=0.34D-08     -V/T= 1.0043
 Calling FoFJK, ICntrl=      2127 FMM=F ISym2X=1 I1Cent= 0 IOpClX= 0 NMat=1 NMatS=1 NMatT=0.
 ***** Axes restored to original set *****
 -------------------------------------------------------------------
 Center     Atomic                   Forces (Hartrees/Bohr)
 Number     Number              X              Y              Z
 -------------------------------------------------------------------
      1        6          -0.202294431    0.108894124    0.000000000
      2        6          -0.027755994    0.224799109   -0.000000000
      3        6           0.200379491    0.123157445    0.000000000
      4        6           0.188022629   -0.126309974    0.000000000
      5        6           0.005764108   -0.229663891    0.000000000
      6        6          -0.122732448   -0.075434734   -0.000000000
      7        1           0.032386892   -0.017824658   -0.000000000
      8        1          -0.040313335    0.020156578   -0.000000000
      9        1          -0.001274253    0.036938757   -0.000000000
     10        1          -0.000226749   -0.045074075   -0.000000000
     11        1          -0.031955912   -0.019638683   -0.000000000
 -------------------------------------------------------------------
 Cartesian Forces:  Max     0.229663891 RMS     0.094138447

 GradGradGradGradGradGradGradGradGradGradGradGradGradGradGradGradGradGrad
 Berny optimization.
 Using GEDIIS/GDIIS optimizer.
 FormGI is forming the generalized inverse of G from B-inverse, IUseBI=4.
 Internal  Forces:  Max     0.200925476 RMS     0.066578671
 Search for a local minimum.
 Step number   5 out of a maximum of   57
 All quantities printed in internal units (Hartrees-Bohrs-Radians)
 Mixed Optimization -- RFO/linear search
 Update second derivatives using D2CorX and points    4    5
 ITU=  0  0  0  1  0
 Use linear search instead of GDIIS.
     Eigenvalues ---    0.02011   0.02011   0.02011   0.02011   0.02011
     Eigenvalues ---    0.02011   0.02011   0.02011   0.06515   0.06524
     Eigenvalues ---    0.06524   0.06524   0.11659   0.15999   0.16000
     Eigenvalues ---    0.16000   0.16000   0.16003   0.21993   0.22000
     Eigenvalues ---    0.23339   0.39759   0.41181   0.44656   0.44657
     Eigenvalues ---    0.44657   0.72902
 RFO step:  Lambda=-2.70023851D-01 EMin= 2.01065579D-02
 Quartic linear search produced a step of -0.03681.
 Maximum step size (   0.505) exceeded in Quadratic search.
    -- Step size scaled by   0.759
 Iteration  1 RMS(Cart)=  0.06076239 RMS(Int)=  0.00067778
 Iteration  2 RMS(Cart)=  0.00069745 RMS(Int)=  0.00005093
 Iteration  3 RMS(Cart)=  0.00000068 RMS(Int)=  0.00005092
 ClnCor:  largest displacement from symmetrization is 1.18D-08 for atom     8.
 Variable       Old X    -DE/DX   Delta X   Delta X   Delta X     New X
                                 (Linear)    (Quad)   (Total)
    R1        2.46024   0.16889   0.00169   0.14884   0.15053   2.61078
    R2        2.45477   0.17244   0.00174   0.15338   0.15505   2.60982
    R3        2.24737  -0.03696   0.00938  -0.13217  -0.12279   2.12458
    R4        2.43788   0.20091   0.00189   0.17739   0.17934   2.61722
    R5        2.26105  -0.04505   0.00926  -0.14620  -0.13694   2.12411
    R6        2.43787   0.20093   0.00189   0.17739   0.17935   2.61722
    R7        2.22869  -0.03751   0.00954  -0.13595  -0.12641   2.10228
    R8        2.46024   0.16889   0.00169   0.14885   0.15054   2.61078
    R9        2.26104  -0.04505   0.00926  -0.14620  -0.13693   2.12411
   R10        2.45478   0.17243   0.00174   0.15337   0.15504   2.60982
   R11        2.24734  -0.03695   0.00938  -0.13216  -0.12278   2.12456
    A1        2.18628  -0.02005  -0.00079  -0.02517  -0.02602   2.16026
    A2        2.04133   0.00910   0.00046   0.01084   0.01132   2.05265
    A3        2.05558   0.01095   0.00034   0.01433   0.01470   2.07028
    A4        2.08285  -0.00210   0.00010  -0.00108  -0.00090   2.08195
    A5        2.11884  -0.00058  -0.00021  -0.00145  -0.00170   2.11714
    A6        2.08150   0.00267   0.00011   0.00253   0.00260   2.08410
    A7        2.06983   0.00389   0.00022   0.00667   0.00704   2.07687
    A8        2.10668  -0.00195  -0.00011  -0.00334  -0.00352   2.10316
    A9        2.10668  -0.00195  -0.00011  -0.00334  -0.00352   2.10316
   A10        2.08284  -0.00210   0.00010  -0.00108  -0.00090   2.08195
   A11        2.08150   0.00267   0.00011   0.00253   0.00260   2.08410
   A12        2.11884  -0.00057  -0.00021  -0.00145  -0.00170   2.11714
   A13        2.18628  -0.02005  -0.00079  -0.02517  -0.02602   2.16026
   A14        2.04132   0.00910   0.00046   0.01084   0.01133   2.05265
   A15        2.05558   0.01095   0.00034   0.01433   0.01470   2.07028
   A16        1.95828   0.04040   0.00117   0.04583   0.04680   2.00508
    D1       -0.00000  -0.00000   0.00000  -0.00000   0.00000   0.00000
    D2        3.14159  -0.00000   0.00000  -0.00000   0.00000   3.14159
    D3        3.14159   0.00000   0.00000   0.00000   0.00000   3.14159
    D4        0.00000  -0.00000   0.00000  -0.00000  -0.00000   0.00000
    D5        0.00000   0.00000   0.00000   0.00000   0.00000   0.00000
    D6        3.14159  -0.00000   0.00000  -0.00000   0.00000   3.14159
    D7        0.00000   0.00000   0.00000   0.00000  -0.00000   0.00000
    D8        3.14159  -0.00000   0.00000  -0.00000   0.00000   3.14159
    D9        3.14159   0.00000   0.00000   0.00000   0.00000   3.14159
   D10       -0.00000   0.00000   0.00000  -0.00000   0.00000   0.00000
   D11       -0.00000  -0.00000   0.00000   0.00000   0.00000   0.00000
   D12        3.14159  -0.00000   0.00000  -0.00000   0.00000   3.14159
   D13        3.14159   0.00000   0.00000   0.00000   0.00000   3.14159
   D14        0.00000   0.00000   0.00000   0.00000  -0.00000   0.00000
   D15       -0.00000  -0.00000   0.00000  -0.00000   0.00000   0.00000
   D16        3.14159  -0.00000   0.00000  -0.00000   0.00000   3.14159
   D17        3.14159   0.00000   0.00000   0.00000   0.00000   3.14159
   D18        0.00000  -0.00000   0.00000  -0.00000  -0.00000   0.00000
   D19        0.00000   0.00000   0.00000   0.00000  -0.00000   0.00000
   D20        3.14159   0.00000   0.00000   0.00000   0.00000   3.14159
         Item               Value     Threshold  Converged?
 Maximum Force            0.200925     0.000450     NO 
 RMS     Force            0.066579     0.000300     NO 
 Maximum Displacement     0.179076     0.001800     NO 
 RMS     Displacement     0.060816     0.001200     NO 
 Predicted change in Energy=-1.613327D-01
 GradGradGradGradGradGradGradGradGradGradGradGradGradGradGradGradGradGrad

                          Input orientation:                          
 ---------------------------------------------------------------------
 Center     Atomic      Atomic             Coordinates (Angstroms)
 Number     Number       Type             X           Y           Z
 ---------------------------------------------------------------------
      1          6           0       -3.119430    0.191815   -0.000000
      2          6           0       -1.957987    0.939990   -0.000000
      3          6           0       -0.734271    0.291397    0.000000
      4          6           0       -0.708369   -1.093334    0.000000
      5          6           0       -1.900494   -1.791588    0.000000
      6          6           0       -3.143173   -1.189037   -0.000000
      7          1           0       -4.096954    0.747196   -0.000000
      8          1           0        0.280955   -1.626887    0.000000
      9          1           0       -1.846545   -2.914561    0.000000
     10          1           0       -1.987125    2.063645   -0.000000
     11          1           0        0.213524    0.873883    0.000000
 ---------------------------------------------------------------------
                    Distance matrix (angstroms):
                    1          2          3          4          5
     1  C    0.000000
     2  C    1.381564   0.000000
     3  C    2.387237   1.384974   0.000000
     4  C    2.732183   2.386619   1.384973   0.000000
     5  C    2.328023   2.732183   2.387237   1.381565   0.000000
     6  C    1.381057   2.436684   2.827454   2.436684   1.381057
     7  H    1.124278   2.147638   3.393433   3.856171   3.357061
     8  H    3.856202   3.406129   2.170368   1.124029   2.187658
     9  H    3.357054   3.856162   3.393423   2.147630   1.124269
    10  H    2.187661   1.124032   2.170369   3.406131   3.856205
    11  H    3.402029   2.172517   1.112477   2.172516   3.402029
                    6          7          8          9         10
     6  C    0.000000
     7  H    2.158402   0.000000
     8  H    3.452009   4.980196   0.000000
     9  H    2.158397   4.298000   2.486838   0.000000
    10  H    3.452012   2.486848   4.331767   4.980190   0.000000
    11  H    3.939931   4.312339   2.501678   4.312330   2.501677
                   11
    11  H    0.000000
 Stoichiometry    C6H5(1-)
 Framework group  CS[SG(C6H5)]
 Deg. of freedom    19
 Full point group                 CS      NOp   2
 Largest Abelian subgroup         CS      NOp   2
 Largest concise Abelian subgroup C1      NOp   1
                         Standard orientation:                         
 ---------------------------------------------------------------------
 Center     Atomic      Atomic             Coordinates (Angstroms)
 Number     Number       Type             X           Y           Z
 ---------------------------------------------------------------------
      1          6           0        1.164011    0.746906    0.000000
      2          6           0        1.193310   -0.634347    0.000000
      3          6           0       -0.000000   -1.337315   -0.000000
      4          6           0       -1.193310   -0.634348   -0.000000
      5          6           0       -1.164012    0.746906   -0.000000
      6          6           0       -0.000000    1.490139    0.000000
      7          1           0        2.149003    1.288932    0.000000
      8          1           0       -2.165883   -1.197856   -0.000000
      9          1           0       -2.148998    1.288924   -0.000000
     10          1           0        2.165884   -1.197859    0.000000
     11          1           0        0.000001   -2.449792   -0.000000
 ---------------------------------------------------------------------
 Rotational constants (GHZ):           6.0613680           5.9137675           2.9933290
 Standard basis: VSTO-6G (5D, 7F)
 There are    23 symmetry adapted cartesian basis functions of A'  symmetry.
 There are     6 symmetry adapted cartesian basis functions of A"  symmetry.
 There are    23 symmetry adapted basis functions of A'  symmetry.
 There are     6 symmetry adapted basis functions of A"  symmetry.
    29 basis functions,   174 primitive gaussians,    29 cartesian basis functions
    15 alpha electrons       15 beta electrons
       nuclear repulsion energy       113.7977121043 Hartrees.
 Integral buffers will be    131072 words long.
 Regular integral format.
 Two-electron integral symmetry is turned off.
 Do NDO integrals.
 One-electron integrals computed using PRISM.
 NBasis=    29 RedAO= T EigKep=  1.00D+00  NBF=    23     6
 NBsUse=    29 1.00D-06 EigRej= -1.00D+00 NBFU=    23     6
 Initial guess from the checkpoint file:  "geometry_chks/_ClBzAnionIntermediate.chk"
 B after Tr=     0.000000    0.000000   -0.000000
         Rot=    1.000000   -0.000000   -0.000000    0.000001 Ang=   0.00 deg.
 Initial guess orbital symmetries:
       Occupied  (A') (A') (A') (A') (A') (A') (A') (A') (A") (A')
                 (A') (A') (A") (A") (A')
       Virtual   (A") (A") (A') (A') (A') (A') (A") (A') (A') (A')
                 (A') (A') (A') (A')
 Keep J ints in memory in canonical form, NReq=861446.
 Overlap will be assumed to be unity.
 Requested convergence on RMS density matrix=1.00D-08 within**** cycles.
 Requested convergence on MAX density matrix=1.00D-06.
 Requested convergence on             energy=1.00D-06.
 No special actions if energy rises.
 Fock symm off for IB=2 I1=    1 I=   24 J=    5 Cut=1.00D-07 Err=6.54D-03
 Fock matrix is not symmetric: symmetry in diagonalization turned off.
 SCF Done:  E(RAM1) =  0.947810699712E-01 A.U. after   13 cycles
            NFock= 12  Conv=0.31D-08     -V/T= 1.0020
 Calling FoFJK, ICntrl=      2127 FMM=F ISym2X=1 I1Cent= 0 IOpClX= 0 NMat=1 NMatS=1 NMatT=0.
 ***** Axes restored to original set *****
 -------------------------------------------------------------------
[...]
 Requested convergence on MAX density matrix=1.00D-06.
 Requested convergence on             energy=1.00D-06.
 No special actions if energy rises.
 Fock symm off for IB=2 I1=    1 I=   24 J=    6 Cut=1.00D-07 Err=1.45D-04
 Fock matrix is not symmetric: symmetry in diagonalization turned off.
 SCF Done:  E(RAM1) =  0.912942721684E-01 A.U. after    9 cycles
            NFock=  8  Conv=0.61D-08     -V/T= 1.0019
 Calling FoFJK, ICntrl=      2127 FMM=F ISym2X=1 I1Cent= 0 IOpClX= 0 NMat=1 NMatS=1 NMatT=0.
 ***** Axes restored to original set *****
 -------------------------------------------------------------------
 Center     Atomic                   Forces (Hartrees/Bohr)
 Number     Number              X              Y              Z
 -------------------------------------------------------------------
      1        6           0.000053341   -0.000300303    0.000000000
      2        6          -0.000176317    0.000198714    0.000000000
      3        6           0.000308800    0.000189980    0.000000000
      4        6           0.000097543   -0.000247050    0.000000000
      5        6          -0.000243933    0.000183305   -0.000000000
      6        6           0.000165594    0.000101797    0.000000000
      7        1          -0.000035272   -0.000018188   -0.000000000
      8        1          -0.000060251    0.000020518   -0.000000000
      9        1          -0.000032177   -0.000023479   -0.000000000
     10        1          -0.000008911   -0.000063261   -0.000000000
     11        1          -0.000068417   -0.000042033   -0.000000000
 -------------------------------------------------------------------
 Cartesian Forces:  Max     0.000308800 RMS     0.000124831

 GradGradGradGradGradGradGradGradGradGradGradGradGradGradGradGradGradGrad
 Berny optimization.
 Using GEDIIS/GDIIS optimizer.
 FormGI is forming the generalized inverse of G from B-inverse, IUseBI=4.
 Internal  Forces:  Max     0.000246174 RMS     0.000077757
 Search for a local minimum.
 Step number  12 out of a maximum of   57
 All quantities printed in internal units (Hartrees-Bohrs-Radians)
 Mixed Optimization -- En-DIIS/RFO-DIIS
 Update second derivatives using D2CorX and points    6    7    8    9   11
                                                     10   12
 DE= -3.48D-05 DEPred=-3.68D-05 R= 9.45D-01
 TightC=F SS=  1.41D+00  RLast= 1.46D-02 DXNew= 7.1352D-01 4.3718D-02
 Trust test= 9.45D-01 RLast= 1.46D-02 DXMaxT set to 4.24D-01
 ITU=  1 -1  1  1  0  0  1  0  0  0  1  0
 Use linear search instead of GDIIS.
     Eigenvalues ---    0.02011   0.02011   0.02011   0.02011   0.02011
     Eigenvalues ---    0.02011   0.02011   0.02011   0.06524   0.06524
     Eigenvalues ---    0.15919   0.15997   0.16000   0.16000   0.16000
     Eigenvalues ---    0.21493   0.22000   0.23183   0.35062   0.37080
     Eigenvalues ---    0.38274   0.40522   0.43454   0.44656   0.44657
     Eigenvalues ---    0.45559   0.78770
 RFO step:  Lambda=-6.55760754D-07 EMin= 2.01065599D-02
 Quartic linear search produced a step of -0.03251.
 Iteration  1 RMS(Cart)=  0.00030040 RMS(Int)=  0.00000004
 Iteration  2 RMS(Cart)=  0.00000005 RMS(Int)=  0.00000001
 ClnCor:  largest displacement from symmetrization is 1.19D-13 for atom     9.
 Variable       Old X    -DE/DX   Delta X   Delta X   Delta X     New X
                                 (Linear)    (Quad)   (Total)
    R1        2.63712   0.00005   0.00001   0.00013   0.00014   2.63725
    R2        2.63773  -0.00025  -0.00003  -0.00055  -0.00058   2.63716
    R3        2.07845   0.00002   0.00027  -0.00017   0.00010   2.07854
    R4        2.63966   0.00021   0.00003   0.00049   0.00052   2.64018
    R5        2.07833  -0.00006  -0.00014  -0.00008  -0.00022   2.07812
    R6        2.63966   0.00021   0.00003   0.00049   0.00052   2.64018
    R7        2.07369  -0.00008  -0.00019  -0.00009  -0.00028   2.07341
    R8        2.63712   0.00005   0.00001   0.00013   0.00014   2.63725
    R9        2.07833  -0.00006  -0.00014  -0.00008  -0.00021   2.07812
   R10        2.63773  -0.00025  -0.00003  -0.00055  -0.00058   2.63716
   R11        2.07845   0.00002   0.00027  -0.00017   0.00010   2.07855
    A1        2.12950   0.00008   0.00001   0.00023   0.00024   2.12975
    A2        2.07255  -0.00000   0.00001   0.00008   0.00009   2.07264
    A3        2.08113  -0.00007  -0.00002  -0.00032  -0.00034   2.08080
    A4        2.08982  -0.00004   0.00000  -0.00009  -0.00009   2.08973
    A5        2.11286   0.00001  -0.00001  -0.00000  -0.00001   2.11285
    A6        2.08050   0.00003   0.00001   0.00010   0.00010   2.08061
    A7        2.08281  -0.00012  -0.00002  -0.00031  -0.00034   2.08248
    A8        2.10019   0.00006   0.00001   0.00016   0.00017   2.10035
    A9        2.10019   0.00006   0.00001   0.00016   0.00017   2.10035
   A10        2.08982  -0.00004   0.00000  -0.00009  -0.00009   2.08973
   A11        2.08050   0.00003   0.00001   0.00010   0.00010   2.08061
   A12        2.11286   0.00001  -0.00001  -0.00000  -0.00001   2.11285
   A13        2.12950   0.00008   0.00001   0.00023   0.00024   2.12975
   A14        2.07255  -0.00000   0.00001   0.00008   0.00010   2.07264
   A15        2.08113  -0.00007  -0.00002  -0.00032  -0.00034   2.08080
   A16        2.04490   0.00005   0.00000   0.00003   0.00004   2.04494
    D1        0.00000  -0.00000   0.00000  -0.00000   0.00000   0.00000
    D2        3.14159  -0.00000   0.00000  -0.00000   0.00000   3.14159
    D3        3.14159   0.00000   0.00000   0.00000   0.00000   3.14159
    D4       -0.00000   0.00000   0.00000   0.00000   0.00000   0.00000
    D5       -0.00000  -0.00000   0.00000  -0.00000   0.00000   0.00000
    D6        3.14159  -0.00000   0.00000  -0.00000   0.00000   3.14159
    D7       -0.00000   0.00000   0.00000   0.00000   0.00000   0.00000
    D8        3.14159  -0.00000   0.00000  -0.00000   0.00000   3.14159
    D9        3.14159   0.00000   0.00000   0.00000   0.00000   3.14159
   D10       -0.00000   0.00000   0.00000   0.00000   0.00000   0.00000
   D11        0.00000  -0.00000   0.00000  -0.00000   0.00000   0.00000
   D12        3.14159  -0.00000   0.00000  -0.00000   0.00000   3.14159
   D13        3.14159   0.00000   0.00000   0.00000   0.00000   3.14159
   D14       -0.00000   0.00000   0.00000   0.00000   0.00000   0.00000
   D15        0.00000  -0.00000   0.00000  -0.00000   0.00000   0.00000
   D16        3.14159  -0.00000   0.00000  -0.00000   0.00000   3.14159
   D17        3.14159   0.00000   0.00000   0.00000   0.00000   3.14159
   D18       -0.00000   0.00000   0.00000   0.00000   0.00000   0.00000
   D19        0.00000   0.00000   0.00000   0.00000  -0.00000   0.00000
   D20        3.14159   0.00000   0.00000   0.00000   0.00000   3.14159
         Item               Value     Threshold  Converged?
 Maximum Force            0.000246     0.000450     YES
 RMS     Force            0.000078     0.000300     YES
 Maximum Displacement     0.000977     0.001800     YES
 RMS     Displacement     0.000300     0.001200     YES
 Predicted change in Energy=-3.675922D-07
 Optimization completed.
    -- Stationary point found.
                           ----------------------------
                           !   Optimized Parameters   !
                           ! (Angstroms and Degrees)  !
 --------------------------                            --------------------------
 ! Name  Definition              Value          Derivative Info.                !
 --------------------------------------------------------------------------------
 ! R1    R(1,2)                  1.3955         -DE/DX =    0.0001              !
 ! R2    R(1,6)                  1.3958         -DE/DX =   -0.0002              !
 ! R3    R(1,7)                  1.0999         -DE/DX =    0.0                 !
 ! R4    R(2,3)                  1.3968         -DE/DX =    0.0002              !
 ! R5    R(2,10)                 1.0998         -DE/DX =   -0.0001              !
 ! R6    R(3,4)                  1.3968         -DE/DX =    0.0002              !
 ! R7    R(3,11)                 1.0973         -DE/DX =   -0.0001              !
 ! R8    R(4,5)                  1.3955         -DE/DX =    0.0001              !
 ! R9    R(4,8)                  1.0998         -DE/DX =   -0.0001              !
 ! R10   R(5,6)                  1.3958         -DE/DX =   -0.0002              !
 ! R11   R(5,9)                  1.0999         -DE/DX =    0.0                 !
 ! A1    A(2,1,6)              122.0116         -DE/DX =    0.0001              !
 ! A2    A(2,1,7)              118.7484         -DE/DX =    0.0                 !
 ! A3    A(6,1,7)              119.2401         -DE/DX =   -0.0001              !
 ! A4    A(1,2,3)              119.7381         -DE/DX =    0.0                 !
 ! A5    A(1,2,10)             121.0579         -DE/DX =    0.0                 !
 ! A6    A(3,2,10)             119.204          -DE/DX =    0.0                 !
 ! A7    A(2,3,4)              119.3365         -DE/DX =   -0.0001              !
 ! A8    A(2,3,11)             120.3318         -DE/DX =    0.0001              !
 ! A9    A(4,3,11)             120.3318         -DE/DX =    0.0001              !
 ! A10   A(3,4,5)              119.7381         -DE/DX =    0.0                 !
 ! A11   A(3,4,8)              119.204          -DE/DX =    0.0                 !
 ! A12   A(5,4,8)              121.0579         -DE/DX =    0.0                 !
 ! A13   A(4,5,6)              122.0116         -DE/DX =    0.0001              !
 ! A14   A(4,5,9)              118.7484         -DE/DX =    0.0                 !
 ! A15   A(6,5,9)              119.2401         -DE/DX =   -0.0001              !
 ! A16   A(1,6,5)              117.1642         -DE/DX =    0.0001              !
 ! D1    D(6,1,2,3)              0.0            -DE/DX =    0.0                 !
 ! D2    D(6,1,2,10)           180.0            -DE/DX =    0.0                 !
 ! D3    D(7,1,2,3)            180.0            -DE/DX =    0.0                 !
 ! D4    D(7,1,2,10)             0.0            -DE/DX =    0.0                 !
 ! D5    D(2,1,6,5)              0.0            -DE/DX =    0.0                 !
 ! D6    D(7,1,6,5)            180.0            -DE/DX =    0.0                 !
 ! D7    D(1,2,3,4)              0.0            -DE/DX =    0.0                 !
 ! D8    D(1,2,3,11)           180.0            -DE/DX =    0.0                 !
 ! D9    D(10,2,3,4)           180.0            -DE/DX =    0.0                 !
 ! D10   D(10,2,3,11)            0.0            -DE/DX =    0.0                 !
 ! D11   D(2,3,4,5)              0.0            -DE/DX =    0.0                 !
 ! D12   D(2,3,4,8)            180.0            -DE/DX =    0.0                 !
 ! D13   D(11,3,4,5)           180.0            -DE/DX =    0.0                 !
 ! D14   D(11,3,4,8)             0.0            -DE/DX =    0.0                 !
 ! D15   D(3,4,5,6)              0.0            -DE/DX =    0.0                 !
 ! D16   D(3,4,5,9)            180.0            -DE/DX =    0.0                 !
 ! D17   D(8,4,5,6)            180.0            -DE/DX =    0.0                 !
 ! D18   D(8,4,5,9)              0.0            -DE/DX =    0.0                 !
 ! D19   D(4,5,6,1)              0.0            -DE/DX =    0.0                 !
 ! D20   D(9,5,6,1)            180.0            -DE/DX =    0.0                 !
 --------------------------------------------------------------------------------
 GradGradGradGradGradGradGradGradGradGradGradGradGradGradGradGradGradGrad

                          Input orientation:                          
 ---------------------------------------------------------------------
 Center     Atomic      Atomic             Coordinates (Angstroms)
 Number     Number       Type             X           Y           Z
 ---------------------------------------------------------------------
      1          6           0       -3.140221    0.210931   -0.000000
      2          6           0       -1.958932    0.953886   -0.000000
      3          6           0       -0.726672    0.296068   -0.000000
      4          6           0       -0.696400   -1.100453    0.000000
      5          6           0       -1.892831   -1.818770    0.000000
      6          6           0       -3.136428   -1.184892   -0.000000
      7          1           0       -4.101401    0.745574   -0.000000
      8          1           0        0.275012   -1.616141    0.000000
      9          1           0       -1.850004   -2.917803    0.000000
     10          1           0       -1.980226    2.053487   -0.000000
     11          1           0        0.208233    0.870631   -0.000000
 ---------------------------------------------------------------------
                    Distance matrix (angstroms):
                    1          2          3          4          5
     1  C    0.000000
     2  C    1.395502   0.000000
     3  C    2.415050   1.396850   0.000000
     4  C    2.773444   2.411286   1.396850   0.000000
     5  C    2.382366   2.773444   2.415049   1.395502   0.000000
     6  C    1.395828   2.441489   2.828456   2.441489   1.395828
     7  H    1.099867   2.152572   3.404533   3.873222   3.384322
     8  H    3.873243   3.405224   2.158684   1.099807   2.177292
     9  H    3.384322   3.873221   3.404532   2.152571   1.099867
    10  H    2.177292   1.099807   2.158684   3.405224   3.873243
    11  H    3.412821   2.168764   1.097347   2.168764   3.412821
                    6          7          8          9         10
     6  C    0.000000
     7  H    2.158209   0.000000
     8  H    3.438590   4.972996   0.000000
     9  H    2.158209   4.299897   2.491991   0.000000
    10  H    3.438590   2.491992   4.307235   4.972995   0.000000
    11  H    3.925803   4.311447   2.487669   4.311447   2.487669
                   11
    11  H    0.000000
 Stoichiometry    C6H5(1-)
 Framework group  CS[SG(C6H5)]
 Deg. of freedom    19
 Full point group                 CS      NOp   2
 Largest Abelian subgroup         CS      NOp   2
 Largest concise Abelian subgroup C1      NOp   1
                         Standard orientation:                         
 ---------------------------------------------------------------------
 Center     Atomic      Atomic             Coordinates (Angstroms)
 Number     Number       Type             X           Y           Z
 ---------------------------------------------------------------------
      1          6           0        0.756362   -1.191183   -0.000000
      2          6           0       -0.639065   -1.205643   -0.000000
      3          6           0       -1.344482    0.000000   -0.000000
      4          6           0       -0.639065    1.205643    0.000000
      5          6           0        0.756362    1.191183    0.000000
      6          6           0        1.483974   -0.000000    0.000000
      7          1           0        1.295322   -2.149949   -0.000000
      8          1           0       -1.196667    2.153617    0.000000
      9          1           0        1.295322    2.149948    0.000000
     10          1           0       -1.196667   -2.153617   -0.000000
     11          1           0       -2.441829    0.000000   -0.000000
 ---------------------------------------------------------------------
 Rotational constants (GHZ):           6.0262705           5.7688089           2.9473649

 **********************************************************************

            Population analysis using the SCF Density.

 **********************************************************************

 Orbital symmetries:
       Occupied  (A') (A') (A') (A') (A') (A') (A') (A') (A') (A")
                 (A') (A') (A") (A") (A')
       Virtual   (A") (A") (A') (A") (A') (A') (A') (A') (A') (A')
                 (A') (A') (A') (A')
 The electronic state is 1-A'.
 Alpha  occ. eigenvalues --   -1.21737  -0.94672  -0.91204  -0.63966  -0.61529
 Alpha  occ. eigenvalues --   -0.44746  -0.38066  -0.35025  -0.32357  -0.28709
 Alpha  occ. eigenvalues --   -0.28594  -0.22758  -0.15786  -0.13180  -0.07523
 Alpha virt. eigenvalues --    0.22017   0.23412   0.32398   0.33189   0.33251
 Alpha virt. eigenvalues --    0.33365   0.36093   0.36096   0.38815   0.39246
 Alpha virt. eigenvalues --    0.39984   0.40993   0.44453   0.45565
          Condensed to atoms (all electrons):
               1          2          3          4          5          6
     1  C    4.171510   0.000000   0.000000   0.000000   0.000000   0.000000
     2  C    0.000000   4.168766   0.000000   0.000000   0.000000   0.000000
     3  C    0.000000   0.000000   4.234935   0.000000   0.000000   0.000000
     4  C    0.000000   0.000000   0.000000   4.168766   0.000000   0.000000
     5  C    0.000000   0.000000   0.000000   0.000000   4.171510   0.000000
     6  C    0.000000   0.000000   0.000000   0.000000   0.000000   4.412883
     7  H    0.000000   0.000000   0.000000   0.000000   0.000000   0.000000
     8  H    0.000000   0.000000   0.000000   0.000000   0.000000   0.000000
     9  H    0.000000   0.000000   0.000000   0.000000   0.000000   0.000000
    10  H    0.000000   0.000000   0.000000   0.000000   0.000000   0.000000
    11  H    0.000000   0.000000   0.000000   0.000000   0.000000   0.000000
               7          8          9         10         11
     1  C    0.000000   0.000000   0.000000   0.000000   0.000000
     2  C    0.000000   0.000000   0.000000   0.000000   0.000000
     3  C    0.000000   0.000000   0.000000   0.000000   0.000000
     4  C    0.000000   0.000000   0.000000   0.000000   0.000000
     5  C    0.000000   0.000000   0.000000   0.000000   0.000000
     6  C    0.000000   0.000000   0.000000   0.000000   0.000000
     7  H    0.931801   0.000000   0.000000   0.000000   0.000000
     8  H    0.000000   0.938096   0.000000   0.000000   0.000000
     9  H    0.000000   0.000000   0.931801   0.000000   0.000000
    10  H    0.000000   0.000000   0.000000   0.938096   0.000000
    11  H    0.000000   0.000000   0.000000   0.000000   0.931837
 Mulliken charges:
               1
     1  C   -0.171510
     2  C   -0.168766
     3  C   -0.234935
     4  C   -0.168766
     5  C   -0.171510
     6  C   -0.412883
     7  H    0.068199
     8  H    0.061904
     9  H    0.068199
    10  H    0.061904
    11  H    0.068163
 Sum of Mulliken charges =  -1.00000
 Mulliken charges with hydrogens summed into heavy atoms:
               1
     1  C   -0.103311
     2  C   -0.106862
     3  C   -0.166772
     4  C   -0.106862
     5  C   -0.103311
     6  C   -0.412883
 Charge=             -1.0000 electrons
 Dipole moment (field-independent basis, Debye):
    X=             -4.5157    Y=             -0.0000    Z=              0.0000  Tot=              4.5157
 N-N= 1.134571962508D+02 E-N=-1.646259643996D+02  KE=-4.810878547037D+01
 Symmetry A'   KE=-3.888098093415D+01
 Symmetry A"   KE=-9.227804536223D+00
 1\1\GINC-SH03-01N39\FOpt\RAM1\ZDO\C6H5(1-)\JLAPIER\08-Dec-2025\0\\# op
 t am1 SCF(maxcyc=10000)\\Anion Intermediate (removed 1) _\\-1,1\C,-3.1
 402211008,0.2109313949,0.\C,-1.9589324008,0.9538863563,0.\C,-0.7266724
 787,0.296068192,0.\C,-0.6963998346,-1.1004532969,0.\C,-1.8928305198,-1
 .8187697124,0.\C,-3.1364280652,-1.1848916479,0.\H,-4.1014006317,0.7455
 736092,0.\H,0.2750121367,-1.6161409981,0.\H,-1.8500042296,-2.917802748
 1,0.\H,-1.9802256453,2.0534873584,0.\H,0.2082327697,0.8706314924,0.\\V
 ersion=ES64L-G16RevB.01\State=1-A'\HF=0.0912943\RMSD=6.140e-09\RMSF=1.
 248e-04\Dipole=1.5136024,0.9302125,0.\PG=CS [SG(C6H5)]\\@


 KINETICS       FACT
 ---------  =  -------
 MECHANISM     FICTION
 Job cpu time:       0 days  0 hours  0 minutes  3.5 seconds.
 Elapsed time:       0 days  0 hours  0 minutes 18.1 seconds.
 File lengths (MBytes):  RWF=     10 Int=      0 D2E=      0 Chk=      2 Scr=      1
 Normal termination of Gaussian 16 at Mon Dec  8 17:08:50 2025.
