 Entering Gaussian System, Link 0=g16
 Initial command:
 /share/software/user/restricted/gaussian/g16.B01/l1.exe "/home/users/jlapier/Chloroaromatics/Gau-27363.inp" -scrdir="/home/users/jlapier/Chloroaromatics/"
 Entering Link 1 = /share/software/user/restricted/gaussian/g16.B01/l1.exe PID=     27364.
  
 Copyright (c) 1988-2017, Gaussian, Inc.  All Rights Reserved.
  
 This is part of the Gaussian(R) 16 program.  It is based on
 the Gaussian(R) 09 system (copyright 2009, Gaussian, Inc.),
 the Gaussian(R) 03 system (copyright 2003, Gaussian, Inc.),
 the Gaussian(R) 98 system (copyright 1998, Gaussian, Inc.),
 the Gaussian(R) 94 system (copyright 1995, Gaussian, Inc.),
 the Gaussian 92(TM) system (copyright 1992, Gaussian, Inc.),
 the Gaussian 90(TM) system (copyright 1990, Gaussian, Inc.),
 the Gaussian 88(TM) system (copyright 1988, Gaussian, Inc.),
 the Gaussian 86(TM) system (copyright 1986, Carnegie Mellon
 University), and the Gaussian 82(TM) system (copyright 1983,
 Carnegie Mellon University). Gaussian is a federally registered
 trademark of Gaussian, Inc.
  
 This software contains proprietary and confidential information,
 including trade secrets, belonging to Gaussian, Inc.
  
 This software is provided under written license and may be
 used, copied, transmitted, or stored only in accord with that
 written license.
  
 The following legend is applicable only to US Government
 contracts under FAR:
  
                    RESTRICTED RIGHTS LEGEND
  
 Use, reproduction and disclosure by the US Government is
 subject to restrictions as set forth in subparagraphs (a)
 and (c) of the Commercial Computer Software - Restricted
 Rights clause in FAR 52.227-19.
  
 Gaussian, Inc.
 340 Quinnipiac St., Bldg. 40, Wallingford CT 06492
  
  
 ---------------------------------------------------------------
 Warning -- This program may not be used in any manner that
 competes with the business of Gaussian, Inc. or will provide
 assistance to any competitor of Gaussian, Inc.  The licensee
 of this program is prohibited from giving any competitor of
 Gaussian, Inc. access to this program.  By using this program,
 the user acknowledges that Gaussian, Inc. is engaged in the
 business of creating and licensing software in the field of
 computational chemistry and represents and warrants to the
 licensee that it is not a competitor of Gaussian, Inc. and that
 it will not use this program in any manner prohibited above.
 ---------------------------------------------------------------
  

 Cite this work as:
 Gaussian 16, Revision B.01,
 M. J. Frisch, G. W. Trucks, H. B. Schlegel, G. E. Scuseria, 
 M. A. Robb, J. R. Cheeseman, G. Scalmani, V. Barone, 
 G. A. Petersson, H. Nakatsuji, X. Li, M. Caricato, A. V. Marenich, 
 J. Bloino, B. G. Janesko, R. Gomperts, B. Mennucci, H. P. Hratchian, 
 J. V. Ortiz, A. F. Izmaylov, J. L. Sonnenberg, D. Williams-Young, 
 F. Ding, F. Lipparini, F. Egidi, J. Goings, B. Peng, A. Petrone, 
 T. Henderson, D. Ranasinghe, V. G. Zakrzewski, J. Gao, N. Rega, 
 G. Zheng, W. Liang, M. Hada, M. Ehara, K. Toyota, R. Fukuda, 
 J. Hasegawa, M. Ishida, T. Nakajima, Y. Honda, O. Kitao, H. Nakai, 
 T. Vreven, K. Throssell, J. A. Montgomery, Jr., J. E. Peralta, 
 F. Ogliaro, M. J. Bearpark, J. J. Heyd, E. N. Brothers, K. N. Kudin, 
 V. N. Staroverov, T. A. Keith, R. Kobayashi, J. Normand, 
 K. Raghavachari, A. P. Rendell, J. C. Burant, S. S. Iyengar, 
 J. Tomasi, M. Cossi, J. M. Millam, M. Klene, C. Adamo, R. Cammi, 
 J. W. Ochterski, R. L. Martin, K. Morokuma, O. Farkas, 
 J. B. Foresman, and D. J. Fox, Gaussian, Inc., Wallingford CT, 2016.
 
 ******************************************
 Gaussian 16:  ES64L-G16RevB.01 20-Dec-2017
                11-Dec-2025 
 ******************************************
 %mem=2GB
 %nprocshare=1
 Will use up to    1 processors via shared memory.
 %chk=geometry_chks/benzene.chk
 -----------------
 # opt am1 SCF=XQC
 -----------------
 1/18=20,19=15,26=1,38=1/1,3;
 2/9=110,12=2,17=6,18=5,40=1/2;
 3/5=2,25=1,41=700000,71=1/1,2,3;
 4/35=1/1;
 5/5=2,8=3,13=1,35=1,38=5/2,8;
 6/7=2,8=2,9=2,10=2,28=1/1;
 7//1,2,3,16;
 1/18=20,19=15,26=1/3(2);
 2/9=110/2;
 99//99;
 2/9=110/2;
 3/5=2,25=1,41=700000,71=1,135=20/1,2,3;
 4/5=5,16=3,35=1/1;
 5/5=2,8=3,13=1,35=1,38=5/2,8;
 7//1,2,3,16;
 1/18=20,19=15,26=1/3(-5);
 2/9=110/2;
 6/7=2,8=2,9=2,10=2,19=2,28=1/1;
 99/9=1/99;
 -------
 Benzene
 -------
 Symbolic Z-matrix:
 Charge =  0 Multiplicity = 1
 C                    -3.20928   0.19943   0. 
 C                    -2.0115    0.93555   0. 
 C                    -0.77511   0.2663    0. 
 C                    -0.7365   -1.13907   0. 
 C                    -1.93429  -1.87519   0. 
 C                    -3.17067  -1.20594   0. 
 H                    -4.67483  -2.13035   0. 
 H                    -4.76193   1.03987   0. 
 H                    -2.05998   2.7004    0. 
 H                     0.72905   1.19071   0. 
 H                     0.81614  -1.97951   0. 
 H                    -1.8858   -3.64003   0. 
 
 Add virtual bond connecting atoms H12        and C5         Dist= 3.34D+00.
 Add virtual bond connecting atoms H11        and C4         Dist= 3.34D+00.
 Add virtual bond connecting atoms H7         and C6         Dist= 3.34D+00.
 Add virtual bond connecting atoms H10        and C3         Dist= 3.34D+00.
 Add virtual bond connecting atoms H9         and C2         Dist= 3.34D+00.
 Add virtual bond connecting atoms H8         and C1         Dist= 3.34D+00.

 GradGradGradGradGradGradGradGradGradGradGradGradGradGradGradGradGradGrad
 Berny optimization.
 Initialization pass.
                           ----------------------------
                           !    Initial Parameters    !
                           ! (Angstroms and Degrees)  !
 --------------------------                            --------------------------
 ! Name  Definition              Value          Derivative Info.                !
 --------------------------------------------------------------------------------
 ! R1    R(1,2)                  1.4059         estimate D2E/DX2                !
 ! R2    R(1,6)                  1.4059         estimate D2E/DX2                !
 ! R3    R(1,8)                  1.7655         estimate D2E/DX2                !
 ! R4    R(2,3)                  1.4059         estimate D2E/DX2                !
 ! R5    R(2,9)                  1.7655         estimate D2E/DX2                !
 ! R6    R(3,4)                  1.4059         estimate D2E/DX2                !
 ! R7    R(3,10)                 1.7655         estimate D2E/DX2                !
 ! R8    R(4,5)                  1.4059         estimate D2E/DX2                !
 ! R9    R(4,11)                 1.7655         estimate D2E/DX2                !
 ! R10   R(5,6)                  1.4059         estimate D2E/DX2                !
 ! R11   R(5,12)                 1.7655         estimate D2E/DX2                !
 ! R12   R(6,7)                  1.7655         estimate D2E/DX2                !
 ! A1    A(2,1,6)              119.9999         estimate D2E/DX2                !
 ! A2    A(2,1,8)              119.9999         estimate D2E/DX2                !
 ! A3    A(6,1,8)              120.0001         estimate D2E/DX2                !
 ! A4    A(1,2,3)              120.0            estimate D2E/DX2                !
 ! A5    A(1,2,9)              120.0001         estimate D2E/DX2                !
 ! A6    A(3,2,9)              119.9999         estimate D2E/DX2                !
 ! A7    A(2,3,4)              120.0001         estimate D2E/DX2                !
 ! A8    A(2,3,10)             120.0            estimate D2E/DX2                !
 ! A9    A(4,3,10)             119.9999         estimate D2E/DX2                !
 ! A10   A(3,4,5)              119.9997         estimate D2E/DX2                !
 ! A11   A(3,4,11)             120.0003         estimate D2E/DX2                !
 ! A12   A(5,4,11)             120.0            estimate D2E/DX2                !
 ! A13   A(4,5,6)              120.0            estimate D2E/DX2                !
 ! A14   A(4,5,12)             119.9996         estimate D2E/DX2                !
 ! A15   A(6,5,12)             120.0004         estimate D2E/DX2                !
 ! A16   A(1,6,5)              120.0003         estimate D2E/DX2                !
 ! A17   A(1,6,7)              119.9999         estimate D2E/DX2                !
 ! A18   A(5,6,7)              119.9998         estimate D2E/DX2                !
 ! D1    D(6,1,2,3)              0.0            estimate D2E/DX2                !
 ! D2    D(6,1,2,9)            180.0            estimate D2E/DX2                !
 ! D3    D(8,1,2,3)            180.0            estimate D2E/DX2                !
 ! D4    D(8,1,2,9)              0.0            estimate D2E/DX2                !
 ! D5    D(2,1,6,5)              0.0            estimate D2E/DX2                !
 ! D6    D(2,1,6,7)            180.0            estimate D2E/DX2                !
 ! D7    D(8,1,6,5)            180.0            estimate D2E/DX2                !
 ! D8    D(8,1,6,7)              0.0            estimate D2E/DX2                !
 ! D9    D(1,2,3,4)              0.0            estimate D2E/DX2                !
 ! D10   D(1,2,3,10)           180.0            estimate D2E/DX2                !
 ! D11   D(9,2,3,4)            180.0            estimate D2E/DX2                !
 ! D12   D(9,2,3,10)             0.0            estimate D2E/DX2                !
 ! D13   D(2,3,4,5)              0.0            estimate D2E/DX2                !
 ! D14   D(2,3,4,11)           180.0            estimate D2E/DX2                !
 ! D15   D(10,3,4,5)           180.0            estimate D2E/DX2                !
 ! D16   D(10,3,4,11)            0.0            estimate D2E/DX2                !
 ! D17   D(3,4,5,6)              0.0            estimate D2E/DX2                !
 ! D18   D(3,4,5,12)           180.0            estimate D2E/DX2                !
 ! D19   D(11,4,5,6)           180.0            estimate D2E/DX2                !
 ! D20   D(11,4,5,12)            0.0            estimate D2E/DX2                !
 ! D21   D(4,5,6,1)              0.0            estimate D2E/DX2                !
 ! D22   D(4,5,6,7)            180.0            estimate D2E/DX2                !
 ! D23   D(12,5,6,1)           180.0            estimate D2E/DX2                !
 ! D24   D(12,5,6,7)             0.0            estimate D2E/DX2                !
 --------------------------------------------------------------------------------
 Trust Radius=3.00D-01 FncErr=1.00D-07 GrdErr=1.00D-07 EigMax=2.50D+02 EigMin=1.00D-04
 Number of steps in this run=     64 maximum allowed number of steps=    100.
 GradGradGradGradGradGradGradGradGradGradGradGradGradGradGradGradGradGrad

                          Input orientation:                          
 ---------------------------------------------------------------------
 Center     Atomic      Atomic             Coordinates (Angstroms)
 Number     Number       Type             X           Y           Z
 ---------------------------------------------------------------------
      1          6           0       -3.209280    0.199430    0.000000
      2          6           0       -2.011500    0.935550    0.000000
      3          6           0       -0.775110    0.266300    0.000000
      4          6           0       -0.736500   -1.139070    0.000000
      5          6           0       -1.934290   -1.875190    0.000000
      6          6           0       -3.170670   -1.205940    0.000000
      7          1           0       -4.674830   -2.130350    0.000000
      8          1           0       -4.761930    1.039870    0.000000
      9          1           0       -2.059980    2.700400    0.000000
     10          1           0        0.729050    1.190710    0.000000
     11          1           0        0.816140   -1.979510    0.000000
     12          1           0       -1.885800   -3.640030    0.000000
 ---------------------------------------------------------------------
                    Distance matrix (angstroms):
                    1          2          3          4          5
     1  C    0.000000
     2  C    1.405898   0.000000
     3  C    2.435088   1.405900   0.000000
     4  C    2.811801   2.435092   1.405900   0.000000
     5  C    2.435087   2.811800   2.435093   1.405907   0.000000
     6  C    1.405900   2.435088   2.811796   2.435088   1.405892
     7  H    2.752401   4.061166   4.577308   4.061167   2.752393
     8  H    1.765520   2.752408   4.061175   4.577321   4.061173
     9  H    2.752406   1.765516   2.752405   4.061173   4.577316
    10  H    4.061167   2.752403   1.765512   2.752401   4.061173
    11  H    4.577312   4.061173   2.752406   1.765511   2.752408
    12  H    4.061164   4.577306   4.061163   2.752397   1.765506
                    6          7          8          9         10
     6  C    0.000000
     7  H    1.765512   0.000000
     8  H    2.752412   3.171416   0.000000
     9  H    4.061173   5.493049   3.171418   0.000000
    10  H    4.577308   6.342819   5.493051   3.171412   0.000000
    11  H    4.061165   5.493041   6.342832   5.493052   3.171416
    12  H    2.752396   3.171407   5.493049   6.342822   5.493040
                   11         12
    11  H    0.000000
    12  H    3.171404   0.000000
 This structure is nearly, but not quite of a higher symmetry.
 Consider Symm=Loose if the higher symmetry is desired.
 Stoichiometry    C6H6
 Framework group  CS[SG(C6H6)]
 Deg. of freedom    21
 Full point group                 CS      NOp   2
 Largest Abelian subgroup         CS      NOp   2
 Largest concise Abelian subgroup C1      NOp   1
                         Standard orientation:                         
 ---------------------------------------------------------------------
 Center     Atomic      Atomic             Coordinates (Angstroms)
 Number     Number       Type             X           Y           Z
 ---------------------------------------------------------------------
      1          6           0        0.000001   -1.405899    0.000000
      2          6           0        1.217545   -0.702951    0.000000
      3          6           0        1.217545    0.702950    0.000000
      4          6           0        0.000001    1.405902   -0.000000
      5          6           0       -1.217548    0.702945   -0.000000
      6          6           0       -1.217544   -0.702946   -0.000000
      7          1           0       -2.746521   -1.585702   -0.000000
      8          1           0        0.000001   -3.171419    0.000000
      9          1           0        2.746528   -1.585706    0.000000
     10          1           0        2.746522    1.585706    0.000000
     11          1           0       -0.000005    3.171413   -0.000000
     12          1           0       -2.746518    1.585704   -0.000000
 ---------------------------------------------------------------------
 Rotational constants (GHZ):           4.9758910           4.9758838           2.4879437
 Standard basis: VSTO-6G (5D, 7F)
 There are    24 symmetry adapted cartesian basis functions of A'  symmetry.
 There are     6 symmetry adapted cartesian basis functions of A"  symmetry.
 There are    24 symmetry adapted basis functions of A'  symmetry.
 There are     6 symmetry adapted basis functions of A"  symmetry.
    30 basis functions,   180 primitive gaussians,    30 cartesian basis functions
    15 alpha electrons       15 beta electrons
       nuclear repulsion energy       112.7579205119 Hartrees.
 Integral buffers will be    131072 words long.
 Regular integral format.
 Two-electron integral symmetry is turned off.
 Do NDO integrals.
 One-electron integrals computed using PRISM.
 NBasis=    30 RedAO= T EigKep=  1.00D+00  NBF=    24     6
 NBsUse=    30 1.00D-06 EigRej= -1.00D+00 NBFU=    24     6
 Simple Huckel Guess.
 Initial guess orbital symmetries:
       Occupied  (A') (A') (A') (A') (A') (A') (A') (A") (A') (A')
                 (A') (A') (A') (A") (A")
       Virtual   (A') (A') (A') (A") (A") (A') (A') (A') (A") (A')
                 (A') (A') (A') (A') (A')
 The electronic state of the initial guess is 1-A'.
 Keep J ints in memory in canonical form, NReq=861540.
 Overlap will be assumed to be unity.
 Requested convergence on RMS density matrix=1.00D-08 within  32 cycles.
 Requested convergence on MAX density matrix=1.00D-06.
 Requested convergence on             energy=1.00D-06.
 No special actions if energy rises.
 Fock symm off for IB=2 I1=    1 I=   25 J=    4 Cut=1.00D-07 Err=1.30D-02
 Fock matrix is not symmetric: symmetry in diagonalization turned off.
 SCF Done:  E(RAM1) =  0.769526857393     A.U. after   12 cycles
            NFock= 11  Conv=0.85D-08     -V/T= 1.0165
 QCSCF skips out because SCF is already converged.

 **********************************************************************

            Population analysis using the SCF Density.

 **********************************************************************

 Orbital symmetries:
       Occupied  (A') (A') (A') (A') (A') (A') (A') (A") (A') (A')
                 (A') (A') (A') (A") (A")
       Virtual   (A') (A') (A') (A') (A") (A") (A') (A') (A") (A')
                 (A') (A') (A') (A') (A')
 The electronic state is 1-A'.
 Alpha  occ. eigenvalues --   -1.35799  -1.05817  -1.05817  -0.75380  -0.75380
 Alpha  occ. eigenvalues --   -0.53901  -0.50220  -0.46670  -0.43022  -0.40753
 Alpha  occ. eigenvalues --   -0.40753  -0.34460  -0.34460  -0.33231  -0.33231
 Alpha virt. eigenvalues --    0.00445   0.01988   0.02676   0.02677   0.03947
 Alpha virt. eigenvalues --    0.03947   0.05550   0.05550   0.12797   0.18917
 Alpha virt. eigenvalues --    0.18917   0.21491   0.21491   0.21977   0.23550
          Condensed to atoms (all electrons):
               1          2          3          4          5          6
     1  C    4.139951   0.000000   0.000000   0.000000   0.000000   0.000000
     2  C    0.000000   4.139951   0.000000   0.000000   0.000000   0.000000
     3  C    0.000000   0.000000   4.139952   0.000000   0.000000   0.000000
     4  C    0.000000   0.000000   0.000000   4.139952   0.000000   0.000000
     5  C    0.000000   0.000000   0.000000   0.000000   4.139952   0.000000
     6  C    0.000000   0.000000   0.000000   0.000000   0.000000   4.139951
     7  H    0.000000   0.000000   0.000000   0.000000   0.000000   0.000000
     8  H    0.000000   0.000000   0.000000   0.000000   0.000000   0.000000
     9  H    0.000000   0.000000   0.000000   0.000000   0.000000   0.000000
    10  H    0.000000   0.000000   0.000000   0.000000   0.000000   0.000000
    11  H    0.000000   0.000000   0.000000   0.000000   0.000000   0.000000
    12  H    0.000000   0.000000   0.000000   0.000000   0.000000   0.000000
               7          8          9         10         11         12
     1  C    0.000000   0.000000   0.000000   0.000000   0.000000   0.000000
     2  C    0.000000   0.000000   0.000000   0.000000   0.000000   0.000000
     3  C    0.000000   0.000000   0.000000   0.000000   0.000000   0.000000
     4  C    0.000000   0.000000   0.000000   0.000000   0.000000   0.000000
     5  C    0.000000   0.000000   0.000000   0.000000   0.000000   0.000000
     6  C    0.000000   0.000000   0.000000   0.000000   0.000000   0.000000
     7  H    0.860050   0.000000   0.000000   0.000000   0.000000   0.000000
     8  H    0.000000   0.860049   0.000000   0.000000   0.000000   0.000000
     9  H    0.000000   0.000000   0.860049   0.000000   0.000000   0.000000
    10  H    0.000000   0.000000   0.000000   0.860049   0.000000   0.000000
    11  H    0.000000   0.000000   0.000000   0.000000   0.860048   0.000000
    12  H    0.000000   0.000000   0.000000   0.000000   0.000000   0.860048
 Mulliken charges:
               1
     1  C   -0.139951
     2  C   -0.139951
     3  C   -0.139952
     4  C   -0.139952
     5  C   -0.139952
     6  C   -0.139951
     7  H    0.139950
     8  H    0.139951
     9  H    0.139951
    10  H    0.139951
    11  H    0.139952
    12  H    0.139952
 Sum of Mulliken charges =   0.00000
 Mulliken charges with hydrogens summed into heavy atoms:
               1
     1  C    0.000001
     2  C    0.000000
     3  C   -0.000001
     4  C    0.000001
     5  C    0.000000
     6  C   -0.000001
 Charge=              0.0000 electrons
 Dipole moment (field-independent basis, Debye):
    X=              0.0000    Y=              0.0000    Z=              0.0000  Tot=              0.0000
 N-N= 1.127579205119D+02 E-N=-1.590549623624D+02  KE=-4.674395710008D+01
 Symmetry A'   KE=-3.751330209336D+01
 Symmetry A"   KE=-9.230655006721D+00
 Calling FoFJK, ICntrl=      2127 FMM=F ISym2X=1 I1Cent= 0 IOpClX= 0 NMat=1 NMatS=1 NMatT=0.
 ***** Axes restored to original set *****
 -------------------------------------------------------------------
 Center     Atomic                   Forces (Hartrees/Bohr)
 Number     Number              X              Y              Z
 -------------------------------------------------------------------
      1        6          -0.060479082    0.032738248   -0.000000000
      2        6          -0.001888646    0.068745310    0.000000000
      3        6           0.058592191    0.036005807   -0.000000000
      4        6           0.060475163   -0.032737491   -0.000000000
      5        6           0.001898794   -0.068746111   -0.000000000
      6        6          -0.058596836   -0.036006965   -0.000000000
      7        1           0.100184400    0.061570337    0.000000000
      8        1           0.103413283   -0.055977079    0.000000000
      9        1           0.003228957   -0.117547340    0.000000000
     10        1          -0.100184605   -0.061570302    0.000000000
     11        1          -0.103413784    0.055977663    0.000000000
     12        1          -0.003229835    0.117547922    0.000000000
 -------------------------------------------------------------------
 Cartesian Forces:  Max     0.117547922 RMS     0.055613809

 GradGradGradGradGradGradGradGradGradGradGradGradGradGradGradGradGradGrad
 Berny optimization.
 FormGI is forming the generalized inverse of G from B-inverse, IUseBI=4.
 Internal  Forces:  Max     0.117592287 RMS     0.042441158
 Search for a local minimum.
 Step number   1 out of a maximum of   64
 All quantities printed in internal units (Hartrees-Bohrs-Radians)
 Mixed Optimization -- RFO/linear search
 Second derivative matrix not updated -- first step.
 ITU=  0
     Eigenvalues ---    0.02011   0.02011   0.02011   0.02011   0.02011
     Eigenvalues ---    0.02011   0.02011   0.02011   0.02011   0.06524
     Eigenvalues ---    0.06524   0.06524   0.06524   0.06524   0.06524
     Eigenvalues ---    0.16000   0.16000   0.16000   0.16000   0.16000
     Eigenvalues ---    0.16000   0.22000   0.22000   0.22000   0.40685
     Eigenvalues ---    0.40686   0.44656   0.44657   0.44657   0.44657
 RFO step:  Lambda=-2.68555103D-01 EMin= 2.01065826D-02
 Linear search not attempted -- first point.
 Maximum step size (   0.300) exceeded in Quadratic search.
    -- Step size scaled by   0.341
 Iteration  1 RMS(Cart)=  0.04847228 RMS(Int)=  0.00000001
 Iteration  2 RMS(Cart)=  0.00000002 RMS(Int)=  0.00000000
 ClnCor:  largest displacement from symmetrization is 4.59D-15 for atom    10.
 Variable       Old X    -DE/DX   Delta X   Delta X   Delta X     New X
                                 (Linear)    (Quad)   (Total)
    R1        2.65676  -0.04882   0.00000  -0.02330  -0.02330   2.63346
    R2        2.65677  -0.04882   0.00000  -0.02330  -0.02330   2.63347
    R3        3.33635  -0.11759   0.00000  -0.12024  -0.12024   3.21611
    R4        2.65677  -0.04882   0.00000  -0.02330  -0.02330   2.63347
    R5        3.33634  -0.11759   0.00000  -0.12024  -0.12024   3.21610
    R6        2.65677  -0.04882   0.00000  -0.02330  -0.02330   2.63347
    R7        3.33633  -0.11759   0.00000  -0.12024  -0.12024   3.21610
    R8        2.65678  -0.04882   0.00000  -0.02330  -0.02330   2.63348
    R9        3.33633  -0.11759   0.00000  -0.12024  -0.12024   3.21610
   R10        2.65675  -0.04881   0.00000  -0.02330  -0.02330   2.63345
   R11        3.33632  -0.11759   0.00000  -0.12024  -0.12024   3.21609
   R12        3.33633  -0.11759   0.00000  -0.12024  -0.12024   3.21610
    A1        2.09439  -0.00000   0.00000  -0.00000  -0.00000   2.09439
    A2        2.09439   0.00000   0.00000   0.00000   0.00000   2.09439
    A3        2.09440   0.00000   0.00000   0.00000   0.00000   2.09440
    A4        2.09439   0.00000   0.00000   0.00000   0.00000   2.09439
    A5        2.09440  -0.00000   0.00000  -0.00000  -0.00000   2.09440
    A6        2.09439  -0.00000   0.00000  -0.00000  -0.00000   2.09439
    A7        2.09440   0.00000   0.00000   0.00000   0.00000   2.09440
    A8        2.09440  -0.00000   0.00000  -0.00000  -0.00000   2.09440
    A9        2.09439  -0.00000   0.00000  -0.00000  -0.00000   2.09439
   A10        2.09439   0.00000   0.00000   0.00000   0.00000   2.09439
   A11        2.09440  -0.00000   0.00000  -0.00000  -0.00000   2.09440
   A12        2.09440  -0.00000   0.00000  -0.00000  -0.00000   2.09439
   A13        2.09439   0.00000   0.00000   0.00000   0.00000   2.09439
   A14        2.09439   0.00000   0.00000   0.00000   0.00000   2.09439
   A15        2.09440  -0.00000   0.00000  -0.00000  -0.00000   2.09440
   A16        2.09440  -0.00000   0.00000  -0.00000  -0.00000   2.09440
   A17        2.09439   0.00000   0.00000   0.00000   0.00000   2.09439
   A18        2.09439   0.00000   0.00000   0.00000   0.00000   2.09439
    D1       -0.00000   0.00000   0.00000   0.00000   0.00000   0.00000
    D2        3.14159   0.00000   0.00000   0.00000   0.00000   3.14159
    D3        3.14159  -0.00000   0.00000  -0.00000   0.00000   3.14159
    D4        0.00000  -0.00000   0.00000  -0.00000   0.00000   0.00000
    D5       -0.00000  -0.00000   0.00000  -0.00000   0.00000   0.00000
    D6        3.14159  -0.00000   0.00000  -0.00000   0.00000   3.14159
    D7        3.14159   0.00000   0.00000   0.00000   0.00000   3.14159
    D8        0.00000   0.00000   0.00000   0.00000   0.00000   0.00000
    D9       -0.00000  -0.00000   0.00000  -0.00000   0.00000   0.00000
   D10        3.14159   0.00000   0.00000   0.00000   0.00000   3.14159
   D11        3.14159  -0.00000   0.00000  -0.00000   0.00000   3.14159
   D12       -0.00000  -0.00000   0.00000  -0.00000   0.00000   0.00000
   D13        0.00000   0.00000   0.00000   0.00000   0.00000   0.00000
   D14        3.14159   0.00000   0.00000   0.00000   0.00000   3.14159
   D15        3.14159  -0.00000   0.00000  -0.00000   0.00000   3.14159
   D16       -0.00000   0.00000   0.00000   0.00000   0.00000   0.00000
   D17       -0.00000  -0.00000   0.00000  -0.00000   0.00000   0.00000
   D18        3.14159   0.00000   0.00000   0.00000   0.00000   3.14159
   D19        3.14159  -0.00000   0.00000  -0.00000   0.00000   3.14159
   D20        0.00000  -0.00000   0.00000  -0.00000   0.00000   0.00000
   D21       -0.00000  -0.00000   0.00000  -0.00000   0.00000   0.00000
   D22        3.14159   0.00000   0.00000   0.00000   0.00000   3.14159
   D23        3.14159  -0.00000   0.00000  -0.00000   0.00000   3.14159
   D24       -0.00000  -0.00000   0.00000  -0.00000   0.00000   0.00000
         Item               Value     Threshold  Converged?
 Maximum Force            0.117592     0.000450     NO 
 RMS     Force            0.042441     0.000300     NO 
 Maximum Displacement     0.143484     0.001800     NO 
 RMS     Displacement     0.048472     0.001200     NO 
 Predicted change in Energy=-8.810217D-02
 GradGradGradGradGradGradGradGradGradGradGradGradGradGradGradGradGradGrad

                          Input orientation:                          
 ---------------------------------------------------------------------
 Center     Atomic      Atomic             Coordinates (Angstroms)
 Number     Number       Type             X           Y           Z
 ---------------------------------------------------------------------
      1          6           0       -3.198437    0.193561   -0.000000
      2          6           0       -2.011162    0.923224   -0.000000
      3          6           0       -0.785615    0.259843   -0.000000
      4          6           0       -0.747344   -1.133201    0.000000
      5          6           0       -1.934627   -1.862865    0.000000
      6          6           0       -3.160166   -1.199484    0.000000
      7          1           0       -4.610118   -2.090579    0.000000
      8          1           0       -4.695132    1.003713   -0.000000
      9          1           0       -2.057894    2.624471   -0.000000
     10          1           0        0.664337    1.150939   -0.000000
     11          1           0        0.749341   -1.943352    0.000000
     12          1           0       -1.887884   -3.564101    0.000000
 ---------------------------------------------------------------------
                    Distance matrix (angstroms):
                    1          2          3          4          5
     1  C    0.000000
     2  C    1.393568   0.000000
     3  C    2.413732   1.393570   0.000000
     4  C    2.787141   2.413736   1.393570   0.000000
     5  C    2.413732   2.787140   2.413736   1.393575   0.000000
     6  C    1.393570   2.413732   2.787136   2.413732   1.393563
     7  H    2.685170   3.979647   4.489021   3.979648   2.685163
     8  H    1.701893   2.685177   3.979656   4.489034   3.979654
     9  H    2.685175   1.701889   2.685174   3.979653   4.489029
    10  H    3.979648   2.685171   1.701885   2.685169   3.979651
    11  H    4.489025   3.979652   2.685174   1.701884   2.685175
    12  H    3.979645   4.489019   3.979642   2.685165   1.701879
                    6          7          8          9         10
     6  C    0.000000
     7  H    1.701885   0.000000
     8  H    2.685181   3.095460   0.000000
     9  H    3.979653   5.361488   3.095461   0.000000
    10  H    4.489021   6.190905   5.361490   3.095455   0.000000
    11  H    3.979646   5.361481   6.190918   5.361490   3.095458
    12  H    2.685166   3.095452   5.361489   6.190908   5.361477
                   11         12
    11  H    0.000000
    12  H    3.095446   0.000000
 Stoichiometry    C6H6
 Framework group  CS[SG(C6H6)]
 Deg. of freedom    21
 Full point group                 CS      NOp   2
 Largest Abelian subgroup         CS      NOp   2
 Largest concise Abelian subgroup C1      NOp   1
                         Standard orientation:                         
 ---------------------------------------------------------------------
 Center     Atomic      Atomic             Coordinates (Angstroms)
 Number     Number       Type             X           Y           Z
 ---------------------------------------------------------------------
      1          6           0       -1.206865   -0.696787   -0.000000
      2          6           0        0.000001   -1.393570   -0.000000
      3          6           0        1.206868   -0.696782    0.000000
      4          6           0        1.206868    0.696788    0.000000
      5          6           0       -0.000007    1.393570    0.000000
      6          6           0       -1.206865    0.696783   -0.000000
      7          1           0       -2.680742    1.547723   -0.000000
      8          1           0       -2.680746   -1.547737   -0.000000
      9          1           0        0.000008   -3.095459   -0.000000
     10          1           0        2.680744   -1.547722    0.000000
     11          1           0        2.680739    1.547736    0.000000
     12          1           0       -0.000002    3.095449    0.000000
 ---------------------------------------------------------------------
 Rotational constants (GHZ):           5.1108427           5.1108358           2.5554196
 Standard basis: VSTO-6G (5D, 7F)
 There are    24 symmetry adapted cartesian basis functions of A'  symmetry.
 There are     6 symmetry adapted cartesian basis functions of A"  symmetry.
 There are    24 symmetry adapted basis functions of A'  symmetry.
 There are     6 symmetry adapted basis functions of A"  symmetry.
    30 basis functions,   180 primitive gaussians,    30 cartesian basis functions
    15 alpha electrons       15 beta electrons
       nuclear repulsion energy       113.7193351008 Hartrees.
 Integral buffers will be    131072 words long.
 Regular integral format.
 Two-electron integral symmetry is turned off.
 Do NDO integrals.
 One-electron integrals computed using PRISM.
 NBasis=    30 RedAO= T EigKep=  1.00D+00  NBF=    24     6
 NBsUse=    30 1.00D-06 EigRej= -1.00D+00 NBFU=    24     6
 Initial guess from the checkpoint file:  "geometry_chks/benzene.chk"
 B after Tr=    -0.000000   -0.000000    0.000000
         Rot=    0.866026   -0.000000    0.000000    0.499999 Ang=  60.00 deg.
 Initial guess orbital symmetries:
       Occupied  (A') (A') (A') (A') (A') (A') (A') (A") (A') (A')
                 (A') (A') (A') (A") (A")
       Virtual   (A') (A') (A') (A') (A") (A") (A') (A') (A") (A')
                 (A') (A') (A') (A') (A')
 Keep J ints in memory in canonical form, NReq=861540.
 Overlap will be assumed to be unity.
 Requested convergence on RMS density matrix=1.00D-08 within  32 cycles.
 Requested convergence on MAX density matrix=1.00D-06.
 Requested convergence on             energy=1.00D-06.
 No special actions if energy rises.
 Fock symm off for IB=2 I1=    1 I=   25 J=    4 Cut=1.00D-07 Err=1.73D-03
 Fock matrix is not symmetric: symmetry in diagonalization turned off.
 SCF Done:  E(RAM1) =  0.677893053528     A.U. after   10 cycles
            NFock=  9  Conv=0.77D-08     -V/T= 1.0145
 QCSCF skips out because SCF is already converged.
 Calling FoFJK, ICntrl=      2127 FMM=F ISym2X=1 I1Cent= 0 IOpClX= 0 NMat=1 NMatS=1 NMatT=0.
 ***** Axes restored to original set *****
 -------------------------------------------------------------------
 Center     Atomic                   Forces (Hartrees/Bohr)
 Number     Number              X              Y              Z
 -------------------------------------------------------------------
      1        6          -0.079361678    0.042958701   -0.000000000
      2        6          -0.002477823    0.090208531   -0.000000000
      3        6           0.076884756    0.047248868   -0.000000000
      4        6           0.079358106   -0.042958739   -0.000000000
      5        6           0.002487063   -0.090209098   -0.000000000
      6        6          -0.076888864   -0.047249173   -0.000000000
      7        1           0.102903898    0.063241654    0.000000000
      8        1           0.106220571   -0.057496681    0.000000000
      9        1           0.003316573   -0.120738227    0.000000000
     10        1          -0.102904101   -0.063241585    0.000000000
     11        1          -0.106220925    0.057497133    0.000000000
     12        1          -0.003317575    0.120738616    0.000000000
 -------------------------------------------------------------------
 Cartesian Forces:  Max     0.120738616 RMS     0.061552839

 GradGradGradGradGradGradGradGradGradGradGradGradGradGradGradGradGradGrad
 Berny optimization.
 Using GEDIIS/GDIIS optimizer.
 FormGI is forming the generalized inverse of G from B-inverse, IUseBI=4.
 Internal  Forces:  Max     0.120784186 RMS     0.041528447
 Search for a local minimum.
 Step number   2 out of a maximum of   64
 All quantities printed in internal units (Hartrees-Bohrs-Radians)
 Mixed Optimization -- RFO/linear search
 Update second derivatives using D2CorX and points    1    2
 DE= -9.16D-02 DEPred=-8.81D-02 R= 1.04D+00
 TightC=F SS=  1.41D+00  RLast= 3.00D-01 DXNew= 5.0454D-01 9.0000D-01
 Trust test= 1.04D+00 RLast= 3.00D-01 DXMaxT set to 5.05D-01
 ITU=  1  0
 Use linear search instead of GDIIS.
     Eigenvalues ---    0.00012   0.02011   0.02011   0.02011   0.02011
     Eigenvalues ---    0.02011   0.02011   0.02011   0.02011   0.02011
     Eigenvalues ---    0.06524   0.06524   0.06524   0.06524   0.06524
     Eigenvalues ---    0.16000   0.16000   0.16000   0.16000   0.16000
     Eigenvalues ---    0.16000   0.22000   0.22000   0.22000   0.40627
     Eigenvalues ---    0.40628   0.44656   0.44657   0.44657   8.54526
 RFO could not converge Lambda in  999 iterations.
 Skip linear search -- no minimum in search direction.
 Steepest descent instead of Quadratic search.
 Iteration  1 RMS(Cart)=  0.02572937 RMS(Int)=  0.00000001
 Iteration  2 RMS(Cart)=  0.00000001 RMS(Int)=  0.00000000
 ClnCor:  largest displacement from symmetrization is 7.67D-15 for atom     8.
 Variable       Old X    -DE/DX   Delta X   Delta X   Delta X     New X
                                 (Linear)    (Quad)   (Total)
    R1        2.63346  -0.03054   0.00000  -0.01527  -0.01527   2.61819
    R2        2.63347  -0.03054   0.00000  -0.01527  -0.01527   2.61820
    R3        3.21611  -0.12078   0.00000  -0.06039  -0.06039   3.15572
    R4        2.63347  -0.03054   0.00000  -0.01527  -0.01527   2.61820
    R5        3.21610  -0.12078   0.00000  -0.06039  -0.06039   3.15571
    R6        2.63347  -0.03054   0.00000  -0.01527  -0.01527   2.61819
    R7        3.21610  -0.12078   0.00000  -0.06039  -0.06039   3.15570
    R8        2.63348  -0.03054   0.00000  -0.01527  -0.01527   2.61820
    R9        3.21610  -0.12078   0.00000  -0.06039  -0.06039   3.15570
   R10        2.63345  -0.03054   0.00000  -0.01527  -0.01527   2.61818
   R11        3.21609  -0.12078   0.00000  -0.06039  -0.06039   3.15569
   R12        3.21610  -0.12078   0.00000  -0.06039  -0.06039   3.15570
    A1        2.09439  -0.00000   0.00000  -0.00000  -0.00000   2.09439
    A2        2.09439   0.00000   0.00000   0.00000   0.00000   2.09439
    A3        2.09440   0.00000   0.00000   0.00000   0.00000   2.09440
    A4        2.09439   0.00000   0.00000   0.00000   0.00000   2.09439
    A5        2.09440  -0.00000   0.00000  -0.00000  -0.00000   2.09440
    A6        2.09439  -0.00000   0.00000  -0.00000  -0.00000   2.09439
    A7        2.09440   0.00000   0.00000   0.00000   0.00000   2.09440
    A8        2.09440  -0.00000   0.00000  -0.00000  -0.00000   2.09439
    A9        2.09439  -0.00000   0.00000  -0.00000  -0.00000   2.09439
   A10        2.09439   0.00000   0.00000   0.00000   0.00000   2.09439
   A11        2.09440  -0.00000   0.00000  -0.00000  -0.00000   2.09440
   A12        2.09439  -0.00000   0.00000  -0.00000  -0.00000   2.09439
   A13        2.09439   0.00000   0.00000   0.00000   0.00000   2.09439
   A14        2.09439   0.00000   0.00000   0.00000   0.00000   2.09439
   A15        2.09440  -0.00000   0.00000  -0.00000  -0.00000   2.09440
   A16        2.09440  -0.00000   0.00000  -0.00000  -0.00000   2.09440
   A17        2.09439   0.00000   0.00000   0.00000   0.00000   2.09439
   A18        2.09439   0.00000   0.00000   0.00000   0.00000   2.09439
    D1        0.00000  -0.00000   0.00000  -0.00000  -0.00000   0.00000
    D2        3.14159   0.00000   0.00000   0.00000   0.00000   3.14159
    D3        3.14159  -0.00000   0.00000  -0.00000   0.00000   3.14159
    D4       -0.00000   0.00000   0.00000   0.00000   0.00000   0.00000
    D5       -0.00000   0.00000   0.00000   0.00000   0.00000   0.00000
    D6        3.14159  -0.00000   0.00000  -0.00000   0.00000   3.14159
    D7        3.14159   0.00000   0.00000   0.00000   0.00000   3.14159
    D8        0.00000   0.00000   0.00000   0.00000   0.00000   0.00000
    D9       -0.00000   0.00000   0.00000   0.00000   0.00000   0.00000
   D10        3.14159   0.00000   0.00000   0.00000   0.00000   3.14159
   D11        3.14159  -0.00000   0.00000  -0.00000   0.00000   3.14159
   D12        0.00000  -0.00000   0.00000  -0.00000  -0.00000   0.00000
   D13        0.00000   0.00000   0.00000  -0.00000  -0.00000   0.00000
   D14        3.14159   0.00000   0.00000   0.00000   0.00000   3.14159
   D15        3.14159  -0.00000   0.00000  -0.00000   0.00000   3.14159
   D16       -0.00000   0.00000   0.00000   0.00000   0.00000   0.00000
   D17        0.00000   0.00000   0.00000   0.00000  -0.00000   0.00000
   D18        3.14159   0.00000   0.00000   0.00000   0.00000   3.14159
   D19        3.14159  -0.00000   0.00000  -0.00000   0.00000   3.14159
   D20       -0.00000  -0.00000   0.00000  -0.00000   0.00000   0.00000
   D21        0.00000  -0.00000   0.00000  -0.00000   0.00000   0.00000
   D22        3.14159   0.00000   0.00000   0.00000   0.00000   3.14159
   D23        3.14159  -0.00000   0.00000  -0.00000   0.00000   3.14159
   D24       -0.00000  -0.00000   0.00000   0.00000   0.00000   0.00000
         Item               Value     Threshold  Converged?
 Maximum Force            0.120784     0.000450     NO 
 RMS     Force            0.041528     0.000300     NO 
 Maximum Displacement     0.075634     0.001800     NO 
 RMS     Displacement     0.025729     0.001200     NO 
 Predicted change in Energy=-4.601962D-02
 GradGradGradGradGradGradGradGradGradGradGradGradGradGradGradGradGradGrad

                          Input orientation:                          
 ---------------------------------------------------------------------
 Center     Atomic      Atomic             Coordinates (Angstroms)
 Number     Number       Type             X           Y           Z
 ---------------------------------------------------------------------
      1          6           0       -3.191331    0.189714   -0.000000
      2          6           0       -2.010940    0.915146   -0.000000
      3          6           0       -0.792500    0.255612   -0.000000
      4          6           0       -0.754450   -1.129354    0.000000
      5          6           0       -1.934848   -1.854787    0.000000
      6          6           0       -3.153282   -1.195253    0.000000
      7          1           0       -4.576006   -2.069615    0.000000
      8          1           0       -4.659920    0.984654   -0.000000
      9          1           0       -2.056794    2.584448   -0.000000
     10          1           0        0.630225    1.129974   -0.000000
     11          1           0        0.714130   -1.924292    0.000000
     12          1           0       -1.888983   -3.524078    0.000000
 ---------------------------------------------------------------------
                    Distance matrix (angstroms):
                    1          2          3          4          5
     1  C    0.000000
     2  C    1.385487   0.000000
     3  C    2.399736   1.385490   0.000000
     4  C    2.770979   2.399739   1.385488   0.000000
     5  C    2.399736   2.770978   2.399738   1.385493   0.000000
     6  C    1.385490   2.399735   2.770975   2.399736   1.385484
     7  H    2.649886   3.935527   4.440901   3.935528   2.649880
     8  H    1.669935   2.649893   3.935536   4.440915   3.935535
     9  H    2.649891   1.669931   2.649890   3.935533   4.440909
    10  H    3.935528   2.649887   1.669927   2.649885   3.935530
    11  H    4.440906   3.935532   2.649889   1.669926   2.649890
    12  H    3.935526   4.440899   3.935521   2.649880   1.669921
                    6          7          8          9         10
     6  C    0.000000
     7  H    1.669927   0.000000
     8  H    2.649896   3.055421   0.000000
     9  H    3.935533   5.292139   3.055423   0.000000
    10  H    4.440901   6.110828   5.292141   3.055416   0.000000
    11  H    3.935526   5.292132   6.110841   5.292140   3.055418
    12  H    2.649882   3.055414   5.292141   6.110830   5.292127
                   11         12
    11  H    0.000000
    12  H    3.055407   0.000000
 Stoichiometry    C6H6
 Framework group  CS[SG(C6H6)]
 Deg. of freedom    21
 Full point group                 CS      NOp   2
 Largest Abelian subgroup         CS      NOp   2
 Largest concise Abelian subgroup C1      NOp   1
                         Standard orientation:                         
 ---------------------------------------------------------------------
 Center     Atomic      Atomic             Coordinates (Angstroms)
 Number     Number       Type             X           Y           Z
 ---------------------------------------------------------------------
      1          6           0       -1.199870    0.692743    0.000000
      2          6           0       -1.199868   -0.692745   -0.000000
      3          6           0        0.000002   -1.385488   -0.000000
      4          6           0        1.199871   -0.692744   -0.000000
      5          6           0        1.199866    0.692749    0.000000
      6          6           0        0.000000    1.385487    0.000000
      7          1           0       -0.000002    3.055413    0.000000
      8          1           0       -2.646077    1.527708    0.000000
      9          1           0       -2.646068   -1.527715   -0.000000
     10          1           0        0.000004   -3.055414   -0.000000
     11          1           0        2.646072   -1.527702   -0.000000
     12          1           0        2.646063    1.527704    0.000000
 ---------------------------------------------------------------------
 Rotational constants (GHZ):           5.1923946           5.1923861           2.5961952
 Standard basis: VSTO-6G (5D, 7F)
 There are    24 symmetry adapted cartesian basis functions of A'  symmetry.
 There are     6 symmetry adapted cartesian basis functions of A"  symmetry.
 There are    24 symmetry adapted basis functions of A'  symmetry.
 There are     6 symmetry adapted basis functions of A"  symmetry.
    30 basis functions,   180 primitive gaussians,    30 cartesian basis functions
    15 alpha electrons       15 beta electrons
       nuclear repulsion energy       114.2878739755 Hartrees.
 Integral buffers will be    131072 words long.
 Regular integral format.
 Two-electron integral symmetry is turned off.
 Do NDO integrals.
 One-electron integrals computed using PRISM.
 NBasis=    30 RedAO= T EigKep=  1.00D+00  NBF=    24     6
 NBsUse=    30 1.00D-06 EigRej= -1.00D+00 NBFU=    24     6
 Initial guess from the checkpoint file:  "geometry_chks/benzene.chk"
 B after Tr=    -0.000000    0.000000    0.000000
         Rot=    0.866025   -0.000000    0.000000    0.500000 Ang=  60.00 deg.
 Initial guess orbital symmetries:
       Occupied  (A') (A') (A') (A') (A') (A') (A') (A") (A') (A')
                 (A') (A') (A') (A") (A")
       Virtual   (A') (A') (A') (A') (A") (A") (A') (A') (A") (A')
                 (A') (A') (A') (A') (A')
 Keep J ints in memory in canonical form, NReq=861540.
 Overlap will be assumed to be unity.
 Requested convergence on RMS density matrix=1.00D-08 within  32 cycles.
 Requested convergence on MAX density matrix=1.00D-06.
 Requested convergence on             energy=1.00D-06.
 No special actions if energy rises.
 Fock symm off for IB=2 I1=    1 I=   25 J=    4 Cut=1.00D-07 Err=1.06D-03
 Fock matrix is not symmetric: symmetry in diagonalization turned off.
 SCF Done:  E(RAM1) =  0.631709698578     A.U. after    9 cycles
            NFock=  8  Conv=0.56D-08     -V/T= 1.0135
 QCSCF skips out because SCF is already converged.
 Calling FoFJK, ICntrl=      2127 FMM=F ISym2X=1 I1Cent= 0 IOpClX= 0 NMat=1 NMatS=1 NMatT=0.
 ***** Axes restored to original set *****
 -------------------------------------------------------------------
 Center     Atomic                   Forces (Hartrees/Bohr)
 Number     Number              X              Y              Z
 -------------------------------------------------------------------
      1        6          -0.091270103    0.049404234   -0.000000000
      2        6          -0.002849332    0.103744431   -0.000000000
      3        6           0.088421027    0.054339511   -0.000000000
      4        6           0.091266927   -0.049404819   -0.000000000
      5        6           0.002857599   -0.103744835   -0.000000000
      6        6          -0.088424582   -0.054339244    0.000000000
      7        1           0.103732708    0.063751009    0.000000000
      8        1           0.107076166   -0.057959834    0.000000000
      9        1           0.003343259   -0.121710711    0.000000000
     10        1          -0.103732899   -0.063750914    0.000000000
     11        1          -0.107076422    0.057960193    0.000000000
     12        1          -0.003344349    0.121710978    0.000000000
 -------------------------------------------------------------------
 Cartesian Forces:  Max     0.121710978 RMS     0.065314320

 GradGradGradGradGradGradGradGradGradGradGradGradGradGradGradGradGradGrad
 Berny optimization.
 Using GEDIIS/GDIIS optimizer.
 FormGI is forming the generalized inverse of G from B-inverse, IUseBI=4.
 Internal  Forces:  Max     0.121756917 RMS     0.041025361
 Search for a local minimum.
 Step number   3 out of a maximum of   64
 All quantities printed in internal units (Hartrees-Bohrs-Radians)
 Mixed Optimization -- RFO/linear search
 Update second derivatives using D2CorX and points    1    2    3
 DE= -4.62D-02 DEPred=-4.60D-02 R= 1.00D+00
 TightC=F SS=  1.41D+00  RLast= 1.53D-01 DXNew= 8.4853D-01 4.5776D-01
 Trust test= 1.00D+00 RLast= 1.53D-01 DXMaxT set to 5.05D-01
 ITU=  1  1  0
 Use linear search instead of GDIIS.
     Eigenvalues ---    0.00112   0.02011   0.02011   0.02011   0.02011
     Eigenvalues ---    0.02011   0.02011   0.02011   0.02011   0.02011
     Eigenvalues ---    0.06524   0.06524   0.06524   0.06524   0.06524
     Eigenvalues ---    0.16000   0.16000   0.16000   0.16000   0.16000
     Eigenvalues ---    0.16000   0.22000   0.22000   0.22000   0.40589
     Eigenvalues ---    0.40589   0.44656   0.44657   0.44657   1.23216
 RFO step:  Lambda=-1.81522866D-02 EMin= 1.11549820D-03
 Quartic linear search produced a step of  2.00000.
 Maximum step size (   0.505) exceeded in Quadratic search.
    -- Step size scaled by   0.646
 Iteration  1 RMS(Cart)=  0.07677983 RMS(Int)=  0.04225037
 Iteration  2 RMS(Cart)=  0.04225037 RMS(Int)=  0.00000003
 Iteration  3 RMS(Cart)=  0.00000006 RMS(Int)=  0.00000000
 ClnCor:  largest displacement from symmetrization is 6.42D-12 for atom    11.
 Variable       Old X    -DE/DX   Delta X   Delta X   Delta X     New X
                                 (Linear)    (Quad)   (Total)
    R1        2.61819  -0.01797  -0.03054   0.00198  -0.02856   2.58963
    R2        2.61820  -0.01797  -0.03054   0.00198  -0.02856   2.58963
    R3        3.15572  -0.12176  -0.12078  -0.20597  -0.32675   2.82897
    R4        2.61820  -0.01797  -0.03054   0.00198  -0.02856   2.58963
    R5        3.15571  -0.12176  -0.12078  -0.20597  -0.32675   2.82896
    R6        2.61819  -0.01797  -0.03054   0.00198  -0.02856   2.58963
    R7        3.15570  -0.12176  -0.12078  -0.20597  -0.32675   2.82895
    R8        2.61820  -0.01798  -0.03054   0.00198  -0.02856   2.58964
    R9        3.15570  -0.12176  -0.12078  -0.20597  -0.32675   2.82895
   R10        2.61818  -0.01797  -0.03054   0.00198  -0.02856   2.58963
   R11        3.15569  -0.12176  -0.12078  -0.20597  -0.32675   2.82894
   R12        3.15570  -0.12176  -0.12078  -0.20597  -0.32675   2.82895
    A1        2.09439  -0.00000  -0.00000  -0.00000  -0.00000   2.09439
    A2        2.09439   0.00000   0.00000   0.00000   0.00000   2.09439
    A3        2.09440  -0.00000   0.00000  -0.00000  -0.00000   2.09440
    A4        2.09439   0.00000   0.00000   0.00000   0.00000   2.09439
    A5        2.09440  -0.00000  -0.00000  -0.00000  -0.00000   2.09440
    A6        2.09439  -0.00000  -0.00000   0.00000  -0.00000   2.09439
    A7        2.09440   0.00000   0.00000  -0.00000   0.00000   2.09440
    A8        2.09439  -0.00000  -0.00000   0.00000  -0.00000   2.09439
    A9        2.09439   0.00000  -0.00000   0.00000   0.00000   2.09439
   A10        2.09439   0.00000   0.00000  -0.00000   0.00000   2.09439
   A11        2.09440  -0.00000  -0.00000   0.00000  -0.00000   2.09440
   A12        2.09439  -0.00000  -0.00000   0.00000  -0.00000   2.09439
   A13        2.09439   0.00000   0.00000   0.00000   0.00000   2.09439
   A14        2.09439   0.00000   0.00000   0.00000   0.00000   2.09439
   A15        2.09440  -0.00000  -0.00000  -0.00000  -0.00000   2.09440
   A16        2.09440  -0.00000  -0.00000   0.00000  -0.00000   2.09440
   A17        2.09439   0.00000   0.00000  -0.00000   0.00000   2.09439
   A18        2.09439   0.00000   0.00000   0.00000   0.00000   2.09439
    D1       -0.00000   0.00000   0.00000  -0.00000   0.00000   0.00000
    D2        3.14159   0.00000   0.00000   0.00000   0.00000   3.14159
    D3        3.14159  -0.00000   0.00000  -0.00000   0.00000   3.14159
    D4       -0.00000   0.00000   0.00000   0.00000   0.00000   0.00000
    D5       -0.00000  -0.00000   0.00000  -0.00000   0.00000   0.00000
    D6        3.14159  -0.00000   0.00000  -0.00000   0.00000   3.14159
    D7        3.14159   0.00000   0.00000   0.00000   0.00000   3.14159
    D8        0.00000   0.00000   0.00000   0.00000   0.00000   0.00000
    D9        0.00000   0.00000   0.00000   0.00000   0.00000   0.00000
   D10        3.14159   0.00000   0.00000   0.00000   0.00000   3.14159
   D11        3.14159  -0.00000   0.00000  -0.00000   0.00000   3.14159
   D12       -0.00000   0.00000   0.00000   0.00000   0.00000   0.00000
   D13       -0.00000  -0.00000   0.00000  -0.00000   0.00000   0.00000
   D14        3.14159   0.00000   0.00000   0.00000   0.00000   3.14159
   D15        3.14159  -0.00000   0.00000  -0.00000   0.00000   3.14159
   D16        0.00000  -0.00000   0.00000  -0.00000   0.00000   0.00000
   D17        0.00000  -0.00000   0.00000   0.00000  -0.00000   0.00000
   D18        3.14159   0.00000   0.00000   0.00000   0.00000   3.14159
   D19        3.14159  -0.00000   0.00000  -0.00000   0.00000   3.14159
   D20        0.00000  -0.00000   0.00000  -0.00000  -0.00000   0.00000
   D21        0.00000   0.00000   0.00000   0.00000   0.00000   0.00000
   D22        3.14159   0.00000   0.00000   0.00000   0.00000   3.14159
   D23        3.14159  -0.00000   0.00000  -0.00000   0.00000   3.14159
   D24        0.00000  -0.00000   0.00000  -0.00000  -0.00000   0.00000
         Item               Value     Threshold  Converged?
 Maximum Force            0.121757     0.000450     NO 
 RMS     Force            0.041025     0.000300     NO 
 Maximum Displacement     0.355180     0.001800     NO 
 RMS     Displacement     0.118820     0.001200     NO 
 Predicted change in Energy=-2.414168D-01
 GradGradGradGradGradGradGradGradGradGradGradGradGradGradGradGradGradGrad

                          Input orientation:                          
 ---------------------------------------------------------------------
 Center     Atomic      Atomic             Coordinates (Angstroms)
 Number     Number       Type             X           Y           Z
 ---------------------------------------------------------------------
      1          6           0       -3.178039    0.182520   -0.000000
      2          6           0       -2.010525    0.900038    0.000000
      3          6           0       -0.805377    0.247698    0.000000
      4          6           0       -0.767743   -1.122159    0.000000
      5          6           0       -1.935262   -1.839678   -0.000000
      6          6           0       -3.140406   -1.187339   -0.000000
      7          1           0       -4.415817   -1.971167   -0.000000
      8          1           0       -4.494567    0.895149   -0.000000
      9          1           0       -2.051631    2.396495    0.000000
     10          1           0        0.470035    1.031525    0.000000
     11          1           0        0.548776   -1.834786    0.000000
     12          1           0       -1.894145   -3.336125   -0.000000
 ---------------------------------------------------------------------
                    Distance matrix (angstroms):
                    1          2          3          4          5
     1  C    0.000000
     2  C    1.370373   0.000000
     3  C    2.373558   1.370376   0.000000
     4  C    2.740751   2.373560   1.370374   0.000000
     5  C    2.373558   2.740749   2.373558   1.370378   0.000000
     6  C    1.370376   2.373557   2.740746   2.373558   1.370371
     7  H    2.484042   3.745564   4.237764   3.745566   2.484038
     8  H    1.497026   2.484047   3.745573   4.237777   3.745574
     9  H    2.484045   1.497021   2.484045   3.745570   4.237771
    10  H    3.745565   2.484042   1.497017   2.484039   3.745566
    11  H    4.237768   3.745568   2.484043   1.497017   2.484043
    12  H    3.745564   4.237761   3.745558   2.484035   1.497012
                    6          7          8          9         10
     6  C    0.000000
     7  H    1.497018   0.000000
     8  H    2.484051   2.867398   0.000000
     9  H    3.745570   4.966472   2.867399   0.000000
    10  H    4.237764   5.734781   4.966475   2.867392   0.000000
    11  H    3.745564   4.966466   5.734794   4.966473   2.867393
    12  H    2.484039   2.867392   4.966475   5.734783   4.966460
                   11         12
    11  H    0.000000
    12  H    2.867383   0.000000
 Stoichiometry    C6H6
 Framework group  CS[SG(C6H6)]
 Deg. of freedom    21
 Full point group                 CS      NOp   2
 Largest Abelian subgroup         CS      NOp   2
 Largest concise Abelian subgroup C1      NOp   1
                         Standard orientation:                         
 ---------------------------------------------------------------------
 Center     Atomic      Atomic             Coordinates (Angstroms)
 Number     Number       Type             X           Y           Z
 ---------------------------------------------------------------------
      1          6           0       -1.186781    0.685186    0.000000
      2          6           0       -1.186779   -0.685187   -0.000000
      3          6           0        0.000002   -1.370373   -0.000000
      4          6           0        1.186781   -0.685188   -0.000000
      5          6           0        1.186778    0.685190    0.000000
      6          6           0        0.000000    1.370373    0.000000
      7          1           0       -0.000001    2.867391    0.000000
      8          1           0       -2.483244    1.433697    0.000000
      9          1           0       -2.483235   -1.433702   -0.000000
     10          1           0        0.000004   -2.867391   -0.000000
     11          1           0        2.483238   -1.433692   -0.000000
     12          1           0        2.483231    1.433691    0.000000
 ---------------------------------------------------------------------
 Rotational constants (GHZ):           5.4656796           5.4656675           2.7328368
 Standard basis: VSTO-6G (5D, 7F)
 There are    24 symmetry adapted cartesian basis functions of A'  symmetry.
 There are     6 symmetry adapted cartesian basis functions of A"  symmetry.
 There are    24 symmetry adapted basis functions of A'  symmetry.
 There are     6 symmetry adapted basis functions of A"  symmetry.
    30 basis functions,   180 primitive gaussians,    30 cartesian basis functions
    15 alpha electrons       15 beta electrons
       nuclear repulsion energy       116.3743624866 Hartrees.
 Integral buffers will be    131072 words long.
 Regular integral format.
 Two-electron integral symmetry is turned off.
 Do NDO integrals.
 One-electron integrals computed using PRISM.
 NBasis=    30 RedAO= T EigKep=  1.00D+00  NBF=    24     6
 NBsUse=    30 1.00D-06 EigRej= -1.00D+00 NBFU=    24     6
 Initial guess from the checkpoint file:  "geometry_chks/benzene.chk"
 B after Tr=    -0.000000    0.000000   -0.000000
         Rot=    1.000000    0.000000    0.000000    0.000000 Ang=   0.00 deg.
 Initial guess orbital symmetries:
       Occupied  (A') (A') (A') (A') (A') (A') (A') (A") (A') (A')
                 (A') (A') (A') (A") (A")
       Virtual   (A') (A") (A") (A') (A') (A') (A') (A') (A") (A')
                 (A') (A') (A') (A') (A')
 Keep J ints in memory in canonical form, NReq=861540.
 Overlap will be assumed to be unity.
 Requested convergence on RMS density matrix=1.00D-08 within  32 cycles.
 Requested convergence on MAX density matrix=1.00D-06.
 Requested convergence on             energy=1.00D-06.
 No special actions if energy rises.
 Fock symm off for IB=2 I1=    1 I=   25 J=    4 Cut=1.00D-07 Err=1.88D-03
 Fock matrix is not symmetric: symmetry in diagonalization turned off.
 SCF Done:  E(RAM1) =  0.392501359427     A.U. after   10 cycles
            NFock=  9  Conv=0.74D-08     -V/T= 1.0083
 QCSCF skips out because SCF is already converged.
 Calling FoFJK, ICntrl=      2127 FMM=F ISym2X=1 I1Cent= 0 IOpClX= 0 NMat=1 NMatS=1 NMatT=0.
 ***** Axes restored to original set *****
 -------------------------------------------------------------------
 Center     Atomic                   Forces (Hartrees/Bohr)
 Number     Number              X              Y              Z
 -------------------------------------------------------------------
      1        6          -0.115080172    0.062291657   -0.000000000
      2        6          -0.003592307    0.130808306   -0.000000000
      3        6           0.111486641    0.068516395   -0.000000000
      4        6           0.115077080   -0.062293134   -0.000000000
      5        6           0.003599127   -0.130807821    0.000000000
      6        6          -0.111489498   -0.068514765    0.000000000
      7        1           0.101223080    0.062208666    0.000000000
      8        1           0.104486328   -0.056558020    0.000000000
      9        1           0.003262344   -0.118766496    0.000000000
     10        1          -0.101223248   -0.062208501    0.000000000
     11        1          -0.104485832    0.056557881    0.000000000
     12        1          -0.003263543    0.118765832    0.000000000
 -------------------------------------------------------------------
 Cartesian Forces:  Max     0.130808306 RMS     0.072156971

 GradGradGradGradGradGradGradGradGradGradGradGradGradGradGradGradGradGrad
 Berny optimization.
 Using GEDIIS/GDIIS optimizer.
 FormGI is forming the generalized inverse of G from B-inverse, IUseBI=4.
 Internal  Forces:  Max     0.118811625 RMS     0.039806745
 Search for a local minimum.
 Step number   4 out of a maximum of   64
 All quantities printed in internal units (Hartrees-Bohrs-Radians)
 Mixed Optimization -- RFO/linear search
 Update second derivatives using D2CorX and points    3    4
 DE= -2.39D-01 DEPred=-2.41D-01 R= 9.91D-01
 TightC=F SS=  1.41D+00  RLast= 8.03D-01 DXNew= 8.4853D-01 2.4103D+00
 Trust test= 9.91D-01 RLast= 8.03D-01 DXMaxT set to 8.49D-01
 ITU=  1  1  1  0
 Use linear search instead of GDIIS.
 Linear search step of   1.370 exceeds DXMaxT=   0.849 but not scaled.
 Quartic linear search produced a step of  1.70554.
 Iteration  1 RMS(Cart)=  0.08447969 RMS(Int)=  0.11909609
 Iteration  2 RMS(Cart)=  0.06666667 RMS(Int)=  0.05242942
 Iteration  3 RMS(Cart)=  0.05242942 RMS(Int)=  0.00000006
 Iteration  4 RMS(Cart)=  0.00000010 RMS(Int)=  0.00000001
 ClnCor:  largest displacement from symmetrization is 2.47D-12 for atom     9.
 Variable       Old X    -DE/DX   Delta X   Delta X   Delta X     New X
                                 (Linear)    (Quad)   (Total)
    R1        2.58963   0.01205  -0.04871   0.00000  -0.04871   2.54092
    R2        2.58963   0.01205  -0.04871   0.00000  -0.04871   2.54092
    R3        2.82897  -0.11881  -0.55729   0.00000  -0.55729   2.27168
    R4        2.58963   0.01205  -0.04871   0.00000  -0.04871   2.54092
    R5        2.82896  -0.11881  -0.55729   0.00000  -0.55729   2.27167
    R6        2.58963   0.01205  -0.04872   0.00000  -0.04872   2.54091
    R7        2.82895  -0.11881  -0.55729   0.00000  -0.55729   2.27166
    R8        2.58964   0.01204  -0.04872   0.00000  -0.04872   2.54092
    R9        2.82895  -0.11881  -0.55729   0.00000  -0.55729   2.27166
   R10        2.58963   0.01205  -0.04871   0.00000  -0.04871   2.54092
   R11        2.82894  -0.11881  -0.55729   0.00000  -0.55729   2.27166
   R12        2.82895  -0.11881  -0.55729   0.00000  -0.55729   2.27167
    A1        2.09439   0.00000  -0.00000   0.00000  -0.00000   2.09439
    A2        2.09439   0.00000   0.00000   0.00000   0.00000   2.09440
    A3        2.09440  -0.00000  -0.00000   0.00000  -0.00000   2.09440
    A4        2.09439   0.00000   0.00000   0.00000   0.00000   2.09440
    A5        2.09440  -0.00000  -0.00000   0.00000  -0.00000   2.09440
    A6        2.09439   0.00000  -0.00000   0.00000  -0.00000   2.09439
    A7        2.09440  -0.00000   0.00000   0.00000   0.00000   2.09440
    A8        2.09439  -0.00000  -0.00000   0.00000  -0.00000   2.09439
    A9        2.09439   0.00000   0.00000   0.00000   0.00000   2.09439
   A10        2.09439   0.00000   0.00000   0.00000   0.00000   2.09439
   A11        2.09440  -0.00000  -0.00000   0.00000  -0.00000   2.09440
   A12        2.09439  -0.00000  -0.00000   0.00000  -0.00000   2.09439
   A13        2.09439  -0.00000   0.00000   0.00000   0.00000   2.09440
   A14        2.09439   0.00000   0.00000   0.00000   0.00000   2.09439
   A15        2.09440  -0.00000  -0.00000   0.00000  -0.00000   2.09440
   A16        2.09440  -0.00000  -0.00000   0.00000  -0.00000   2.09440
   A17        2.09439   0.00000   0.00000   0.00000   0.00000   2.09439
   A18        2.09439   0.00000   0.00000   0.00000   0.00000   2.09439
    D1       -0.00000  -0.00000   0.00000   0.00000   0.00000   0.00000
    D2        3.14159   0.00000   0.00000   0.00000   0.00000   3.14159
    D3        3.14159  -0.00000   0.00000   0.00000   0.00000   3.14159
    D4        0.00000   0.00000   0.00000   0.00000   0.00000   0.00000
    D5        0.00000   0.00000   0.00000   0.00000  -0.00000   0.00000
    D6        3.14159  -0.00000   0.00000   0.00000   0.00000   3.14159
    D7        3.14159   0.00000   0.00000   0.00000   0.00000   3.14159
    D8        0.00000   0.00000   0.00000   0.00000   0.00000   0.00000
    D9       -0.00000   0.00000   0.00000   0.00000   0.00000   0.00000
   D10        3.14159   0.00000   0.00000   0.00000   0.00000   3.14159
   D11        3.14159  -0.00000   0.00000   0.00000   0.00000   3.14159
   D12        0.00000  -0.00000   0.00000   0.00000  -0.00000   0.00000
   D13        0.00000  -0.00000   0.00000   0.00000  -0.00000   0.00000
   D14        3.14159   0.00000   0.00000   0.00000   0.00000   3.14159
   D15        3.14159  -0.00000   0.00000   0.00000   0.00000   3.14159
   D16       -0.00000  -0.00000   0.00000   0.00000   0.00000   0.00000
   D17       -0.00000   0.00000   0.00000   0.00000   0.00000   0.00000
   D18        3.14159   0.00000   0.00000   0.00000   0.00000   3.14159
   D19        3.14159  -0.00000   0.00000   0.00000   0.00000   3.14159
   D20       -0.00000  -0.00000   0.00000   0.00000   0.00000   0.00000
   D21        0.00000   0.00000   0.00000   0.00000   0.00000   0.00000
   D22        3.14159   0.00000   0.00000   0.00000   0.00000   3.14159
   D23        3.14159  -0.00000   0.00000   0.00000   0.00000   3.14159
   D24        0.00000  -0.00000   0.00000   0.00000  -0.00000   0.00000
         Item               Value     Threshold  Converged?
 Maximum Force            0.118812     0.000450     NO 
 RMS     Force            0.039807     0.000300     NO 
 Maximum Displacement     0.605774     0.001800     NO 
 RMS     Displacement     0.202652     0.001200     NO 
 Predicted change in Energy=-3.778697D-01
 GradGradGradGradGradGradGradGradGradGradGradGradGradGradGradGradGradGrad

                          Input orientation:                          
 ---------------------------------------------------------------------
 Center     Atomic      Atomic             Coordinates (Angstroms)
 Number     Number       Type             X           Y           Z
 ---------------------------------------------------------------------
      1          6           0       -3.155370    0.170250   -0.000000
      2          6           0       -2.009817    0.874269    0.000000
      3          6           0       -0.827339    0.234199    0.000000
      4          6           0       -0.790413   -1.109888    0.000000
      5          6           0       -1.935968   -1.813909   -0.000000
      6          6           0       -3.118445   -1.173841   -0.000000
      7          1           0       -4.142608   -1.803260   -0.000000
      8          1           0       -4.212550    0.742495   -0.000000
      9          1           0       -2.042824    2.075933    0.000000
     10          1           0        0.196824    0.863617    0.000000
     11          1           0        0.266759   -1.682130    0.000000
     12          1           0       -1.902950   -3.015564   -0.000000
 ---------------------------------------------------------------------
                    Distance matrix (angstroms):
                    1          2          3          4          5
     1  C    0.000000
     2  C    1.344595   0.000000
     3  C    2.328909   1.344598   0.000000
     4  C    2.689196   2.328910   1.344594   0.000000
     5  C    2.328911   2.689193   2.328907   1.344597   0.000000
     6  C    1.344598   2.328908   2.689190   2.328910   1.344596
     7  H    2.206667   3.423151   3.891304   3.423152   2.206665
     8  H    1.202121   2.206671   3.423159   3.891316   3.423161
     9  H    2.206668   1.202117   2.206669   3.423154   3.891309
    10  H    3.423151   2.206666   1.202113   2.206663   3.423149
    11  H    3.891308   3.423153   2.206665   1.202112   2.206665
    12  H    3.423151   3.891301   3.423142   2.206658   1.202108
                    6          7          8          9         10
     6  C    0.000000
     7  H    1.202114   0.000000
     8  H    2.206674   2.546716   0.000000
     9  H    3.423155   4.411035   2.546716   0.000000
    10  H    3.891304   5.093417   4.411037   2.546710   0.000000
    11  H    3.423150   4.411030   5.093428   4.411033   2.546708
    12  H    2.206665   2.546713   4.411038   5.093418   4.411020
                   11         12
    11  H    0.000000
    12  H    2.546700   0.000000
 Stoichiometry    C6H6
 Framework group  CS[SG(C6H6)]
 Deg. of freedom    21
 Full point group                 CS      NOp   2
 Largest Abelian subgroup         CS      NOp   2
 Largest concise Abelian subgroup C1      NOp   1
                         Standard orientation:                         
 ---------------------------------------------------------------------
 Center     Atomic      Atomic             Coordinates (Angstroms)
 Number     Number       Type             X           Y           Z
 ---------------------------------------------------------------------
      1          6           0       -1.164456    0.672299   -0.000000
      2          6           0       -1.164455   -0.672297   -0.000000
      3          6           0        0.000001   -1.344595    0.000000
      4          6           0        1.164455   -0.672300    0.000000
      5          6           0        1.164455    0.672298    0.000000
      6          6           0        0.000001    1.344596    0.000000
      7          1           0        0.000002    2.546710    0.000000
      8          1           0       -2.205523    1.273359   -0.000000
      9          1           0       -2.205517   -1.273357   -0.000000
     10          1           0        0.000001   -2.546708    0.000000
     11          1           0        2.205516   -1.273355    0.000000
     12          1           0        2.205515    1.273346    0.000000
 ---------------------------------------------------------------------
 Rotational constants (GHZ):           5.9670378           5.9670158           2.9835134
 Standard basis: VSTO-6G (5D, 7F)
 There are    24 symmetry adapted cartesian basis functions of A'  symmetry.
 There are     6 symmetry adapted cartesian basis functions of A"  symmetry.
 There are    24 symmetry adapted basis functions of A'  symmetry.
 There are     6 symmetry adapted basis functions of A"  symmetry.
    30 basis functions,   180 primitive gaussians,    30 cartesian basis functions
    15 alpha electrons       15 beta electrons
       nuclear repulsion energy       120.4888231554 Hartrees.
 Integral buffers will be    131072 words long.
 Regular integral format.
 Two-electron integral symmetry is turned off.
 Do NDO integrals.
 One-electron integrals computed using PRISM.
 NBasis=    30 RedAO= T EigKep=  1.00D+00  NBF=    24     6
 NBsUse=    30 1.00D-06 EigRej= -1.00D+00 NBFU=    24     6
 Initial guess from the checkpoint file:  "geometry_chks/benzene.chk"
 B after Tr=     0.000000   -0.000000   -0.000000
         Rot=    1.000000    0.000000    0.000000    0.000001 Ang=   0.00 deg.
 Initial guess orbital symmetries:
       Occupied  (A') (A') (A') (A') (A') (A') (A') (A") (A') (A')
                 (A') (A') (A') (A") (A")
       Virtual   (A") (A") (A') (A') (A') (A') (A') (A') (A") (A')
                 (A') (A') (A') (A') (A')
 Keep J ints in memory in canonical form, NReq=861540.
 Overlap will be assumed to be unity.
 Requested convergence on RMS density matrix=1.00D-08 within  32 cycles.
 Requested convergence on MAX density matrix=1.00D-06.
 Requested convergence on             energy=1.00D-06.
 No special actions if energy rises.
 Fock symm off for IB=2 I1=    1 I=   25 J=    4 Cut=1.00D-07 Err=1.82D-03
 Fock matrix is not symmetric: symmetry in diagonalization turned off.
 SCF Done:  E(RAM1) =  0.889872610530E-01 A.U. after   11 cycles
            NFock= 10  Conv=0.25D-08     -V/T= 1.0019
 QCSCF skips out because SCF is already converged.
 Calling FoFJK, ICntrl=      2127 FMM=F ISym2X=1 I1Cent= 0 IOpClX= 0 NMat=1 NMatS=1 NMatT=0.
 ***** Axes restored to original set *****
 -------------------------------------------------------------------
 Center     Atomic                   Forces (Hartrees/Bohr)
 Number     Number              X              Y              Z
 -------------------------------------------------------------------
      1        6          -0.114234430    0.061832200   -0.000000000
      2        6          -0.003565060    0.129845620   -0.000000000
      3        6           0.110664428    0.068014224    0.000000000
      4        6           0.114230714   -0.061834655   -0.000000000
      5        6           0.003567621   -0.129842182   -0.000000000
      6        6          -0.110665742   -0.068010054   -0.000000000
      7        1           0.044576803    0.027395554    0.000000000
      8        1           0.046016198   -0.024908552    0.000000000
      9        1           0.001436654   -0.052303705    0.000000000
     10        1          -0.044576635   -0.027395127    0.000000000
     11        1          -0.046012929    0.024906716    0.000000000
     12        1          -0.001437621    0.052299961    0.000000000
 -------------------------------------------------------------------
 Cartesian Forces:  Max     0.129845620 RMS     0.057169285

 GradGradGradGradGradGradGradGradGradGradGradGradGradGradGradGradGradGrad
 Berny optimization.
 Using GEDIIS/GDIIS optimizer.
 FormGI is forming the generalized inverse of G from B-inverse, IUseBI=4.
 Internal  Forces:  Max     0.077573556 RMS     0.031189255
 Search for a local minimum.
 Step number   5 out of a maximum of   64
 All quantities printed in internal units (Hartrees-Bohrs-Radians)
 Mixed Optimization -- RFO/linear search
 Update second derivatives using D2CorX and points    4    5
 ITU=  0  1  1  1  0
 Use linear search instead of GDIIS.
     Eigenvalues ---    0.02011   0.02011   0.02011   0.02011   0.02011
     Eigenvalues ---    0.02011   0.02011   0.02011   0.02011   0.06524
     Eigenvalues ---    0.06524   0.06524   0.06524   0.06524   0.11897
     Eigenvalues ---    0.16000   0.16000   0.16000   0.16000   0.16000
     Eigenvalues ---    0.16000   0.22000   0.22000   0.22000   0.40385
     Eigenvalues ---    0.40385   0.44656   0.44657   0.44657   1.30274
 RFO step:  Lambda=-4.61620231D-02 EMin= 2.01065826D-02
 Quartic linear search produced a step of  0.28903.
 Iteration  1 RMS(Cart)=  0.05091265 RMS(Int)=  0.00497687
 Iteration  2 RMS(Cart)=  0.00497690 RMS(Int)=  0.00000000
 Iteration  3 RMS(Cart)=  0.00000000 RMS(Int)=  0.00000000
 ClnCor:  largest displacement from symmetrization is 3.15D-10 for atom    11.
 Variable       Old X    -DE/DX   Delta X   Delta X   Delta X     New X
                                 (Linear)    (Quad)   (Total)
    R1        2.54092   0.07757  -0.01408   0.07328   0.05920   2.60012
    R2        2.54092   0.07757  -0.01408   0.07328   0.05920   2.60012
    R3        2.27168  -0.05233  -0.16107  -0.05389  -0.21496   2.05672
    R4        2.54092   0.07757  -0.01408   0.07328   0.05920   2.60012
    R5        2.27167  -0.05232  -0.16107  -0.05387  -0.21494   2.05673
    R6        2.54091   0.07757  -0.01408   0.07328   0.05920   2.60012
    R7        2.27166  -0.05232  -0.16107  -0.05385  -0.21493   2.05674
    R8        2.54092   0.07757  -0.01408   0.07328   0.05920   2.60012
    R9        2.27166  -0.05232  -0.16107  -0.05385  -0.21492   2.05674
   R10        2.54092   0.07757  -0.01408   0.07328   0.05920   2.60012
   R11        2.27166  -0.05232  -0.16107  -0.05384  -0.21491   2.05675
   R12        2.27167  -0.05232  -0.16107  -0.05386  -0.21493   2.05674
    A1        2.09439   0.00000  -0.00000   0.00000   0.00000   2.09439
    A2        2.09440  -0.00000   0.00000   0.00000   0.00000   2.09440
    A3        2.09440  -0.00000  -0.00000  -0.00000  -0.00000   2.09440
    A4        2.09440  -0.00000   0.00000   0.00000   0.00000   2.09440
    A5        2.09440  -0.00000  -0.00000  -0.00000  -0.00000   2.09440
    A6        2.09439   0.00000  -0.00000   0.00000   0.00000   2.09439
    A7        2.09440  -0.00000   0.00000  -0.00000  -0.00000   2.09440
    A8        2.09439   0.00000  -0.00000  -0.00000  -0.00000   2.09439
    A9        2.09439   0.00000   0.00000   0.00000   0.00000   2.09439
   A10        2.09439   0.00000   0.00000  -0.00000  -0.00000   2.09439
   A11        2.09440  -0.00000  -0.00000   0.00000  -0.00000   2.09440
   A12        2.09439  -0.00000  -0.00000   0.00000   0.00000   2.09439
   A13        2.09440  -0.00000   0.00000  -0.00000  -0.00000   2.09440
   A14        2.09439   0.00000   0.00000   0.00000   0.00000   2.09439
   A15        2.09440  -0.00000  -0.00000  -0.00000  -0.00000   2.09440
   A16        2.09440  -0.00000  -0.00000   0.00000  -0.00000   2.09440
   A17        2.09439   0.00000   0.00000  -0.00000  -0.00000   2.09439
   A18        2.09439   0.00000   0.00000   0.00000   0.00000   2.09440
    D1       -0.00000   0.00000   0.00000  -0.00000   0.00000   0.00000
    D2        3.14159   0.00000   0.00000  -0.00000   0.00000   3.14159
    D3        3.14159  -0.00000   0.00000  -0.00000   0.00000   3.14159
    D4        0.00000   0.00000   0.00000  -0.00000  -0.00000   0.00000
    D5        0.00000  -0.00000   0.00000   0.00000  -0.00000   0.00000
    D6        3.14159  -0.00000   0.00000  -0.00000   0.00000   3.14159
    D7        3.14159   0.00000   0.00000   0.00000   0.00000   3.14159
    D8        0.00000   0.00000   0.00000   0.00000   0.00000   0.00000
    D9        0.00000   0.00000   0.00000  -0.00000  -0.00000   0.00000
   D10        3.14159   0.00000   0.00000  -0.00000   0.00000   3.14159
   D11        3.14159  -0.00000   0.00000  -0.00000   0.00000   3.14159
   D12       -0.00000  -0.00000   0.00000  -0.00000   0.00000   0.00000
   D13        0.00000  -0.00000   0.00000   0.00000   0.00000   0.00000
   D14        3.14159   0.00000   0.00000   0.00000   0.00000   3.14159
   D15        3.14159  -0.00000   0.00000   0.00000   0.00000   3.14159
   D16        0.00000  -0.00000   0.00000   0.00000  -0.00000   0.00000
   D17       -0.00000   0.00000   0.00000   0.00000   0.00000   0.00000
   D18        3.14159   0.00000   0.00000  -0.00000   0.00000   3.14159
[...]
 Internal  Forces:  Max     0.000365709 RMS     0.000073065
 Search for a local minimum.
 Step number   9 out of a maximum of   64
 All quantities printed in internal units (Hartrees-Bohrs-Radians)
 Mixed Optimization -- En-DIIS/RFO-DIIS
 Swapping is turned off.
 Update second derivatives using D2CorX and points    5    6    7    8    9
 DE= -1.29D-06 DEPred=-1.77D-06 R= 7.30D-01
 TightC=F SS=  1.41D+00  RLast= 3.45D-03 DXNew= 2.4000D+00 1.0362D-02
 Trust test= 7.30D-01 RLast= 3.45D-03 DXMaxT set to 1.43D+00
 ITU=  1  1  1  1  0  1  1  1  0
     Eigenvalues ---    0.02011   0.02011   0.02011   0.02011   0.02011
     Eigenvalues ---    0.02011   0.02011   0.02011   0.02011   0.06524
     Eigenvalues ---    0.06524   0.06524   0.06524   0.09141   0.16000
     Eigenvalues ---    0.16000   0.16000   0.16000   0.16000   0.16000
     Eigenvalues ---    0.21988   0.22000   0.22000   0.35079   0.40635
     Eigenvalues ---    0.41804   0.44656   0.44657   0.44705   0.79854
 En-DIIS/RFO-DIIS/Sim-DIIS IScMMF=       -3 using points:     9    8    7
 RFO step:  Lambda=-2.50495411D-06.
 DidBck=T Rises=F RFO-DIIS coefs:    0.14042    0.73898    0.12060
 Iteration  1 RMS(Cart)=  0.00020098 RMS(Int)=  0.00000000
 Iteration  2 RMS(Cart)=  0.00000000 RMS(Int)=  0.00000000
 ClnCor:  largest displacement from symmetrization is 8.89D-14 for atom     9.
 Variable       Old X    -DE/DX   Delta X   Delta X   Delta X     New X
                                 (Linear)    (Quad)   (Total)
    R1        2.63629  -0.00005   0.00026  -0.00031  -0.00004   2.63625
    R2        2.63629  -0.00004   0.00027  -0.00031  -0.00004   2.63625
    R3        2.07908  -0.00037  -0.00092  -0.00014  -0.00106   2.07802
    R4        2.63628  -0.00002   0.00028  -0.00031  -0.00003   2.63625
    R5        2.07848  -0.00015  -0.00029  -0.00011  -0.00040   2.07808
    R6        2.63626   0.00001   0.00029  -0.00031  -0.00001   2.63625
    R7        2.07791   0.00006   0.00030  -0.00007   0.00023   2.07814
    R8        2.63625   0.00003   0.00031  -0.00031  -0.00000   2.63625
    R9        2.07777   0.00011   0.00044  -0.00006   0.00038   2.07816
   R10        2.63626   0.00002   0.00030  -0.00031  -0.00001   2.63625
   R11        2.07717   0.00033   0.00107  -0.00002   0.00105   2.07822
   R12        2.07802   0.00002   0.00018  -0.00008   0.00010   2.07813
    A1        2.09438   0.00002   0.00002   0.00000   0.00002   2.09440
    A2        2.09440  -0.00001  -0.00001  -0.00000  -0.00001   2.09439
    A3        2.09440  -0.00001  -0.00001  -0.00000  -0.00001   2.09439
    A4        2.09439   0.00001   0.00000   0.00000   0.00000   2.09440
    A5        2.09440  -0.00000  -0.00000  -0.00000  -0.00000   2.09440
    A6        2.09439  -0.00000  -0.00000   0.00000   0.00000   2.09439
    A7        2.09440  -0.00000  -0.00000  -0.00000  -0.00000   2.09439
    A8        2.09439   0.00000   0.00000   0.00000   0.00000   2.09439
    A9        2.09439   0.00000   0.00000  -0.00000   0.00000   2.09440
   A10        2.09439  -0.00000   0.00000   0.00000   0.00000   2.09440
   A11        2.09440   0.00000  -0.00000  -0.00000  -0.00000   2.09440
   A12        2.09440   0.00000  -0.00000   0.00000  -0.00000   2.09439
   A13        2.09441  -0.00002  -0.00001  -0.00000  -0.00001   2.09439
   A14        2.09439   0.00001   0.00001   0.00000   0.00001   2.09440
   A15        2.09439   0.00001   0.00001  -0.00000   0.00001   2.09440
   A16        2.09440  -0.00000  -0.00000  -0.00000  -0.00000   2.09439
   A17        2.09439   0.00000  -0.00000   0.00000  -0.00000   2.09439
   A18        2.09439   0.00000   0.00000  -0.00000   0.00000   2.09440
    D1        0.00000   0.00000   0.00000   0.00000   0.00000   0.00000
    D2        3.14159   0.00000   0.00000   0.00000   0.00000   3.14159
    D3        3.14159  -0.00000   0.00000  -0.00000   0.00000   3.14159
    D4        0.00000  -0.00000   0.00000   0.00000  -0.00000   0.00000
    D5        0.00000  -0.00000   0.00000  -0.00000  -0.00000   0.00000
    D6        3.14159  -0.00000   0.00000  -0.00000   0.00000   3.14159
    D7        3.14159   0.00000   0.00000   0.00000   0.00000   3.14159
    D8        0.00000   0.00000   0.00000   0.00000   0.00000   0.00000
    D9       -0.00000  -0.00000   0.00000   0.00000   0.00000   0.00000
   D10        3.14159   0.00000   0.00000   0.00000   0.00000   3.14159
   D11        3.14159  -0.00000   0.00000  -0.00000   0.00000   3.14159
   D12        0.00000   0.00000   0.00000   0.00000   0.00000   0.00000
   D13        0.00000  -0.00000   0.00000  -0.00000   0.00000   0.00000
   D14        3.14159   0.00000   0.00000   0.00000   0.00000   3.14159
   D15        3.14159  -0.00000   0.00000  -0.00000   0.00000   3.14159
   D16       -0.00000  -0.00000   0.00000  -0.00000   0.00000   0.00000
   D17       -0.00000   0.00000   0.00000  -0.00000   0.00000   0.00000
   D18        3.14159   0.00000   0.00000   0.00000   0.00000   3.14159
   D19        3.14159  -0.00000   0.00000  -0.00000   0.00000   3.14159
   D20        0.00000   0.00000   0.00000  -0.00000   0.00000   0.00000
   D21       -0.00000   0.00000   0.00000   0.00000   0.00000   0.00000
   D22        3.14159   0.00000   0.00000   0.00000   0.00000   3.14159
   D23        3.14159  -0.00000   0.00000  -0.00000   0.00000   3.14159
   D24        0.00000  -0.00000   0.00000  -0.00000  -0.00000   0.00000
         Item               Value     Threshold  Converged?
 Maximum Force            0.000366     0.000450     YES
 RMS     Force            0.000073     0.000300     YES
 Maximum Displacement     0.000877     0.001800     YES
 RMS     Displacement     0.000201     0.001200     YES
 Predicted change in Energy=-6.656519D-07
 Optimization completed.
    -- Stationary point found.
                           ----------------------------
                           !   Optimized Parameters   !
                           ! (Angstroms and Degrees)  !
 --------------------------                            --------------------------
 ! Name  Definition              Value          Derivative Info.                !
 --------------------------------------------------------------------------------
 ! R1    R(1,2)                  1.3951         -DE/DX =   -0.0001              !
 ! R2    R(1,6)                  1.3951         -DE/DX =    0.0                 !
 ! R3    R(1,8)                  1.1002         -DE/DX =   -0.0004              !
 ! R4    R(2,3)                  1.3951         -DE/DX =    0.0                 !
 ! R5    R(2,9)                  1.0999         -DE/DX =   -0.0001              !
 ! R6    R(3,4)                  1.3951         -DE/DX =    0.0                 !
 ! R7    R(3,10)                 1.0996         -DE/DX =    0.0001              !
 ! R8    R(4,5)                  1.395          -DE/DX =    0.0                 !
 ! R9    R(4,11)                 1.0995         -DE/DX =    0.0001              !
 ! R10   R(5,6)                  1.395          -DE/DX =    0.0                 !
 ! R11   R(5,12)                 1.0992         -DE/DX =    0.0003              !
 ! R12   R(6,7)                  1.0996         -DE/DX =    0.0                 !
 ! A1    A(2,1,6)              119.9992         -DE/DX =    0.0                 !
 ! A2    A(2,1,8)              120.0005         -DE/DX =    0.0                 !
 ! A3    A(6,1,8)              120.0004         -DE/DX =    0.0                 !
 ! A4    A(1,2,3)              120.0            -DE/DX =    0.0                 !
 ! A5    A(1,2,9)              120.0001         -DE/DX =    0.0                 !
 ! A6    A(3,2,9)              120.0            -DE/DX =    0.0                 !
 ! A7    A(2,3,4)              120.0002         -DE/DX =    0.0                 !
 ! A8    A(2,3,10)             119.9999         -DE/DX =    0.0                 !
 ! A9    A(4,3,10)             119.9999         -DE/DX =    0.0                 !
 ! A10   A(3,4,5)              119.9998         -DE/DX =    0.0                 !
 ! A11   A(3,4,11)             120.0001         -DE/DX =    0.0                 !
 ! A12   A(5,4,11)             120.0            -DE/DX =    0.0                 !
 ! A13   A(4,5,6)              120.0007         -DE/DX =    0.0                 !
 ! A14   A(4,5,12)             119.9996         -DE/DX =    0.0                 !
 ! A15   A(6,5,12)             119.9997         -DE/DX =    0.0                 !
 ! A16   A(1,6,5)              120.0001         -DE/DX =    0.0                 !
 ! A17   A(1,6,7)              120.0            -DE/DX =    0.0                 !
 ! A18   A(5,6,7)              119.9999         -DE/DX =    0.0                 !
 ! D1    D(6,1,2,3)              0.0            -DE/DX =    0.0                 !
 ! D2    D(6,1,2,9)            180.0            -DE/DX =    0.0                 !
 ! D3    D(8,1,2,3)            180.0            -DE/DX =    0.0                 !
 ! D4    D(8,1,2,9)              0.0            -DE/DX =    0.0                 !
 ! D5    D(2,1,6,5)              0.0            -DE/DX =    0.0                 !
 ! D6    D(2,1,6,7)            180.0            -DE/DX =    0.0                 !
 ! D7    D(8,1,6,5)            180.0            -DE/DX =    0.0                 !
 ! D8    D(8,1,6,7)              0.0            -DE/DX =    0.0                 !
 ! D9    D(1,2,3,4)              0.0            -DE/DX =    0.0                 !
 ! D10   D(1,2,3,10)           180.0            -DE/DX =    0.0                 !
 ! D11   D(9,2,3,4)            180.0            -DE/DX =    0.0                 !
 ! D12   D(9,2,3,10)             0.0            -DE/DX =    0.0                 !
 ! D13   D(2,3,4,5)              0.0            -DE/DX =    0.0                 !
 ! D14   D(2,3,4,11)           180.0            -DE/DX =    0.0                 !
 ! D15   D(10,3,4,5)           180.0            -DE/DX =    0.0                 !
 ! D16   D(10,3,4,11)            0.0            -DE/DX =    0.0                 !
 ! D17   D(3,4,5,6)              0.0            -DE/DX =    0.0                 !
 ! D18   D(3,4,5,12)           180.0            -DE/DX =    0.0                 !
 ! D19   D(11,4,5,6)           180.0            -DE/DX =    0.0                 !
 ! D20   D(11,4,5,12)            0.0            -DE/DX =    0.0                 !
 ! D21   D(4,5,6,1)              0.0            -DE/DX =    0.0                 !
 ! D22   D(4,5,6,7)            180.0            -DE/DX =    0.0                 !
 ! D23   D(12,5,6,1)           180.0            -DE/DX =    0.0                 !
 ! D24   D(12,5,6,7)             0.0            -DE/DX =    0.0                 !
 --------------------------------------------------------------------------------
 GradGradGradGradGradGradGradGradGradGradGradGradGradGradGradGradGradGrad

                          Input orientation:                          
 ---------------------------------------------------------------------
 Center     Atomic      Atomic             Coordinates (Angstroms)
 Number     Number       Type             X           Y           Z
 ---------------------------------------------------------------------
      1          6           0       -3.199698    0.194190   -0.000000
      2          6           0       -2.011143    0.924631   -0.000000
      3          6           0       -0.784292    0.260535    0.000000
      4          6           0       -0.745986   -1.133989    0.000000
      5          6           0       -1.934524   -1.864420    0.000000
      6          6           0       -3.161375   -1.200346   -0.000000
      7          1           0       -4.098231   -1.776120   -0.000000
      8          1           0       -4.167249    0.717915   -0.000000
      9          1           0       -2.041340    2.024099   -0.000000
     10          1           0        0.152522    0.836266    0.000000
     11          1           0        0.220954   -1.657394    0.000000
     12          1           0       -1.904336   -2.963196    0.000000
 ---------------------------------------------------------------------
                    Distance matrix (angstroms):
                    1          2          3          4          5
     1  C    0.000000
     2  C    1.395065   0.000000
     3  C    2.416317   1.395058   0.000000
     4  C    2.790119   2.416307   1.395050   0.000000
     5  C    2.416307   2.790103   2.416292   1.395045   0.000000
     6  C    1.395062   2.416311   2.790107   2.416300   1.395048
     7  H    2.165521   3.413208   3.889750   3.413192   2.165508
     8  H    1.100202   2.165993   3.413736   3.890320   3.413725
     9  H    2.165724   1.099883   2.165716   3.413424   3.889986
    10  H    3.413157   2.165468   1.099585   2.165461   3.413131
    11  H    3.889630   3.413078   2.165403   1.099511   2.165397
    12  H    3.412777   3.889294   3.412761   2.165126   1.099191
                    6          7          8          9         10
     6  C    0.000000
     7  H    1.099643   0.000000
     8  H    2.165989   2.494990   0.000000
     9  H    3.413433   4.321165   2.495117   0.000000
    10  H    3.889691   4.989334   4.321392   2.494790   0.000000
    11  H    3.413069   4.320816   4.989831   4.321037   2.494598
    12  H    2.165130   2.494459   4.321037   4.989176   4.320483
                   11         12
    11  H    0.000000
    12  H    2.494389   0.000000
 Stoichiometry    C6H6
 Framework group  CS[SG(C6H6)]
 Deg. of freedom    21
 Full point group                 CS      NOp   2
 Largest Abelian subgroup         CS      NOp   2
 Largest concise Abelian subgroup C1      NOp   1
                         Standard orientation:                         
 ---------------------------------------------------------------------
 Center     Atomic      Atomic             Coordinates (Angstroms)
 Number     Number       Type             X           Y           Z
 ---------------------------------------------------------------------
      1          6           0        1.208156    0.697491   -0.000000
      2          6           0        0.000000    1.395033   -0.000000
      3          6           0       -1.208160    0.697513    0.000000
      4          6           0       -1.208175   -0.697537    0.000000
      5          6           0       -0.000036   -1.395070    0.000000
      6          6           0        1.208125   -0.697571   -0.000000
      7          1           0        2.160432   -1.247414   -0.000000
      8          1           0        2.160968    1.247576   -0.000000
      9          1           0        0.000007    2.494916   -0.000000
     10          1           0       -2.160424    1.247313    0.000000
     11          1           0       -2.160384   -1.247285    0.000000
     12          1           0       -0.000054   -2.494261    0.000000
 ---------------------------------------------------------------------
 Rotational constants (GHZ):           5.6862290           5.6860086           2.8430594

 **********************************************************************

            Population analysis using the SCF Density.

 **********************************************************************

 Orbital symmetries:
       Occupied  (A') (A') (A') (A') (A') (A') (A') (A') (A') (A')
                 (A") (A') (A') (A") (A")
       Virtual   (A") (A") (A") (A') (A') (A') (A') (A') (A') (A')
                 (A') (A') (A') (A') (A')
 The electronic state is 1-A'.
 Alpha  occ. eigenvalues --   -1.43860  -1.15285  -1.15281  -0.84747  -0.84744
 Alpha  occ. eigenvalues --   -0.65619  -0.59250  -0.56596  -0.52042  -0.52040
 Alpha  occ. eigenvalues --   -0.49175  -0.43690  -0.43688  -0.35474  -0.35474
 Alpha virt. eigenvalues --    0.02039   0.02039   0.10944   0.14831   0.14834
 Alpha virt. eigenvalues --    0.14876   0.15409   0.16899   0.16901   0.18827
 Alpha virt. eigenvalues --    0.18828   0.20624   0.20625   0.21054   0.22540
          Condensed to atoms (all electrons):
               1          2          3          4          5          6
     1  C    4.130153   0.000000   0.000000   0.000000   0.000000   0.000000
     2  C    0.000000   4.130125   0.000000   0.000000   0.000000   0.000000
     3  C    0.000000   0.000000   4.130113   0.000000   0.000000   0.000000
     4  C    0.000000   0.000000   0.000000   4.130118   0.000000   0.000000
     5  C    0.000000   0.000000   0.000000   0.000000   4.130090   0.000000
     6  C    0.000000   0.000000   0.000000   0.000000   0.000000   4.130116
     7  H    0.000000   0.000000   0.000000   0.000000   0.000000   0.000000
     8  H    0.000000   0.000000   0.000000   0.000000   0.000000   0.000000
     9  H    0.000000   0.000000   0.000000   0.000000   0.000000   0.000000
    10  H    0.000000   0.000000   0.000000   0.000000   0.000000   0.000000
    11  H    0.000000   0.000000   0.000000   0.000000   0.000000   0.000000
    12  H    0.000000   0.000000   0.000000   0.000000   0.000000   0.000000
               7          8          9         10         11         12
     1  C    0.000000   0.000000   0.000000   0.000000   0.000000   0.000000
     2  C    0.000000   0.000000   0.000000   0.000000   0.000000   0.000000
     3  C    0.000000   0.000000   0.000000   0.000000   0.000000   0.000000
     4  C    0.000000   0.000000   0.000000   0.000000   0.000000   0.000000
     5  C    0.000000   0.000000   0.000000   0.000000   0.000000   0.000000
     6  C    0.000000   0.000000   0.000000   0.000000   0.000000   0.000000
     7  H    0.869883   0.000000   0.000000   0.000000   0.000000   0.000000
     8  H    0.000000   0.869840   0.000000   0.000000   0.000000   0.000000
     9  H    0.000000   0.000000   0.869866   0.000000   0.000000   0.000000
    10  H    0.000000   0.000000   0.000000   0.869888   0.000000   0.000000
    11  H    0.000000   0.000000   0.000000   0.000000   0.869891   0.000000
    12  H    0.000000   0.000000   0.000000   0.000000   0.000000   0.869918
 Mulliken charges:
               1
     1  C   -0.130153
     2  C   -0.130125
     3  C   -0.130113
     4  C   -0.130118
     5  C   -0.130090
     6  C   -0.130116
     7  H    0.130117
     8  H    0.130160
     9  H    0.130134
    10  H    0.130112
    11  H    0.130109
    12  H    0.130082
 Sum of Mulliken charges =  -0.00000
 Mulliken charges with hydrogens summed into heavy atoms:
               1
     1  C    0.000007
     2  C    0.000009
     3  C   -0.000001
     4  C   -0.000009
     5  C   -0.000008
     6  C    0.000001
 Charge=             -0.0000 electrons
 Dipole moment (field-independent basis, Debye):
    X=              0.0006    Y=              0.0009    Z=              0.0000  Tot=              0.0010
 N-N= 1.195993292955D+02 E-N=-1.705386673611D+02  KE=-4.785079932025D+01
 Symmetry A'   KE=-3.861071107306D+01
 Symmetry A"   KE=-9.240088247188D+00
 1\1\GINC-SH02-06N11\FOpt\RAM1\ZDO\C6H6\JLAPIER\11-Dec-2025\0\\# opt am
 1 SCF=XQC\\Benzene\\0,1\C,-3.1996981636,0.1941898529,0.\C,-2.011142911
 6,0.9246305919,0.\C,-0.7842923031,0.2605348399,0.\C,-0.7459861587,-1.1
 339894526,0.\C,-1.9345241816,-1.8644199143,0.\C,-3.1613751256,-1.20034
 56767,0.\H,-4.0982310745,-1.7761200998,0.\H,-4.1672494021,0.7179153371
 ,0.\H,-2.0413396417,2.0240988298,0.\H,0.1525217582,0.8362655491,0.\H,0
 .2209535828,-1.6573936674,0.\H,-1.9043363787,-2.96319619,0.\\Version=E
 S64L-G16RevB.01\State=1-A'\HF=0.0349531\RMSD=8.098e-09\RMSF=1.157e-04\
 Dipole=-0.0002278,0.0003333,0.\PG=CS [SG(C6H6)]\\@


 KNOWING HOW CONTENTED, FREE, AND JOYFUL IS LIFE IN
 THE REALMS OF SCIENCE, ONE FERVENTLY WISHES THAT
 MANY WOULD ENTER HER PORTALS.
   --  DMITRI IVANOVICH MENDELEEV
 "FIRST PRINCIPLES OF CHEMISTRY", LONGMANS, GREEN,
 AND CO.  LONDON, 1891
 Job cpu time:       0 days  0 hours  0 minutes  7.9 seconds.
 Elapsed time:       0 days  0 hours  0 minutes 13.7 seconds.
 File lengths (MBytes):  RWF=     10 Int=      0 D2E=      0 Chk=      2 Scr=      1
 Normal termination of Gaussian 16 at Thu Dec 11 11:11:29 2025.
